 Entering Gaussian System, Link 0=g16
 Input=UridineRNallgPBE0aVDZ.gjf
 Output=UridineRNallgPBE0aVDZ.log
 Initial command:
 /sw/contrib/chem-src/g16/c01/g16/l1.exe "/scr/Gau-69847.inp" -scrdir="/scr/"
 Entering Link 1 = /sw/contrib/chem-src/g16/c01/g16/l1.exe PID=     69850.
  
 Copyright (c) 1988-2019, Gaussian, Inc.  All Rights Reserved.
  
 This is part of the Gaussian(R) 16 program.  It is based on
 the Gaussian(R) 09 system (copyright 2009, Gaussian, Inc.),
 the Gaussian(R) 03 system (copyright 2003, Gaussian, Inc.),
 the Gaussian(R) 98 system (copyright 1998, Gaussian, Inc.),
 the Gaussian(R) 94 system (copyright 1995, Gaussian, Inc.),
 the Gaussian 92(TM) system (copyright 1992, Gaussian, Inc.),
 the Gaussian 90(TM) system (copyright 1990, Gaussian, Inc.),
 the Gaussian 88(TM) system (copyright 1988, Gaussian, Inc.),
 the Gaussian 86(TM) system (copyright 1986, Carnegie Mellon
 University), and the Gaussian 82(TM) system (copyright 1983,
 Carnegie Mellon University). Gaussian is a federally registered
 trademark of Gaussian, Inc.
  
 This software contains proprietary and confidential information,
 including trade secrets, belonging to Gaussian, Inc.
  
 This software is provided under written license and may be
 used, copied, transmitted, or stored only in accord with that
 written license.
  
 The following legend is applicable only to US Government
 contracts under FAR:
  
                    RESTRICTED RIGHTS LEGEND
  
 Use, reproduction and disclosure by the US Government is
 subject to restrictions as set forth in subparagraphs (a)
 and (c) of the Commercial Computer Software - Restricted
 Rights clause in FAR 52.227-19.
  
 Gaussian, Inc.
 340 Quinnipiac St., Bldg. 40, Wallingford CT 06492
  
  
 ---------------------------------------------------------------
 Warning -- This program may not be used in any manner that
 competes with the business of Gaussian, Inc. or will provide
 assistance to any competitor of Gaussian, Inc.  The licensee
 of this program is prohibited from giving any competitor of
 Gaussian, Inc. access to this program.  By using this program,
 the user acknowledges that Gaussian, Inc. is engaged in the
 business of creating and licensing software in the field of
 computational chemistry and represents and warrants to the
 licensee that it is not a competitor of Gaussian, Inc. and that
 it will not use this program in any manner prohibited above.
 ---------------------------------------------------------------
  

 Cite this work as:
 Gaussian 16, Revision C.01,
 M. J. Frisch, G. W. Trucks, H. B. Schlegel, G. E. Scuseria, 
 M. A. Robb, J. R. Cheeseman, G. Scalmani, V. Barone, 
 G. A. Petersson, H. Nakatsuji, X. Li, M. Caricato, A. V. Marenich, 
 J. Bloino, B. G. Janesko, R. Gomperts, B. Mennucci, H. P. Hratchian, 
 J. V. Ortiz, A. F. Izmaylov, J. L. Sonnenberg, D. Williams-Young, 
 F. Ding, F. Lipparini, F. Egidi, J. Goings, B. Peng, A. Petrone, 
 T. Henderson, D. Ranasinghe, V. G. Zakrzewski, J. Gao, N. Rega, 
 G. Zheng, W. Liang, M. Hada, M. Ehara, K. Toyota, R. Fukuda, 
 J. Hasegawa, M. Ishida, T. Nakajima, Y. Honda, O. Kitao, H. Nakai, 
 T. Vreven, K. Throssell, J. A. Montgomery, Jr., J. E. Peralta, 
 F. Ogliaro, M. J. Bearpark, J. J. Heyd, E. N. Brothers, K. N. Kudin, 
 V. N. Staroverov, T. A. Keith, R. Kobayashi, J. Normand, 
 K. Raghavachari, A. P. Rendell, J. C. Burant, S. S. Iyengar, 
 J. Tomasi, M. Cossi, J. M. Millam, M. Klene, C. Adamo, R. Cammi, 
 J. W. Ochterski, R. L. Martin, K. Morokuma, O. Farkas, 
 J. B. Foresman, and D. J. Fox, Gaussian, Inc., Wallingford CT, 2019.
 
 ******************************************
 Gaussian 16:  EM64L-G16RevC.01  3-Jul-2019
                26-Oct-2024 
 ******************************************
 %nprocshared=40
 Will use up to   40 processors via shared memory.
 %mem=50gb
 ------------------------------------------------------
 # PBE1PBE/aug-cc-pVDZ opt freq EmpiricalDispersion=GD3
 ------------------------------------------------------
 1/18=20,19=15,26=3,38=1/1,3;
 2/9=110,12=2,17=6,18=5,40=1/2;
 3/5=16,7=10,11=2,25=1,30=1,71=1,74=-13,124=31/1,2,3;
 4//1;
 5/5=2,38=5/2;
 6/7=2,8=2,9=2,10=2,28=1/1;
 7//1,2,3,16;
 1/18=20,19=15,26=3/3(2);
 2/9=110/2;
 99//99;
 2/9=110/2;
 3/5=16,7=10,11=2,25=1,30=1,71=1,74=-13,124=31/1,2,3;
 4/5=5,16=3,69=1/1;
 5/5=2,38=5/2;
 7//1,2,3,16;
 1/18=20,19=15,26=3/3(-5);
 2/9=110/2;
 6/7=2,8=2,9=2,10=2,19=2,28=1/1;
 99/9=1/99;
 ----
 blah
 ----
 Symbolic Z-matrix:
 Charge =  0 Multiplicity = 2
 C                     2.30917  -0.17304  -0.60678 
 C                     1.20256  -1.24402  -0.61266 
 C                     0.33235  -0.93125   0.61243 
 O                     1.74988  -2.54972  -0.40719 
 H                     0.60944  -1.21272  -1.53335 
 O                     0.98387   0.08241   1.3592 
 H                     0.28496  -1.84805   1.22088 
 N                    -1.02724  -0.56144   0.33531 
 C                     2.24774   0.42107   0.80803 
 H                     2.08346   0.59416  -1.35032 
 O                     3.58991  -0.68799  -0.93505 
 C                     2.42831   1.92863   0.87336 
 H                     3.04677  -0.04679   1.41998 
 O                     1.6504    2.64992  -0.03802 
 H                     3.49087   2.15017   0.67065 
 H                     2.21831   2.23781   1.91581 
 H                     3.79478  -1.35769  -0.27212 
 H                     2.2867   -2.7436   -1.18281 
 H                     0.84508   2.13399  -0.28041 
 C                    -2.06072  -1.19916   0.96945 
 C                    -3.33907  -0.84772   0.73209 
 C                    -3.62142   0.23706  -0.22056 
 N                    -2.55365   0.8765   -0.7999 
 C                    -1.30138   0.52608  -0.54415 
 H                    -1.77499  -1.99641   1.65796 
 H                    -4.16815  -1.35157   1.22468 
 O                    -4.79356   0.54923  -0.47443 
 O                    -0.28504   1.07233  -1.04276 
 

 GradGradGradGradGradGradGradGradGradGradGradGradGradGradGradGradGradGrad
 Berny optimization.
 Initialization pass.
                           ----------------------------
                           !    Initial Parameters    !
                           ! (Angstroms and Degrees)  !
 --------------------------                            --------------------------
 ! Name  Definition              Value          Derivative Info.                !
 --------------------------------------------------------------------------------
 ! R1    R(1,2)                  1.54           estimate D2E/DX2                !
 ! R2    R(1,9)                  1.5357         estimate D2E/DX2                !
 ! R3    R(1,10)                 1.092          estimate D2E/DX2                !
 ! R4    R(1,11)                 1.4189         estimate D2E/DX2                !
 ! R5    R(2,3)                  1.5349         estimate D2E/DX2                !
 ! R6    R(2,4)                  1.4306         estimate D2E/DX2                !
 ! R7    R(2,5)                  1.0956         estimate D2E/DX2                !
 ! R8    R(3,6)                  1.4176         estimate D2E/DX2                !
 ! R9    R(3,7)                  1.1014         estimate D2E/DX2                !
 ! R10   R(3,8)                  1.436          estimate D2E/DX2                !
 ! R11   R(4,18)                 0.963          estimate D2E/DX2                !
 ! R12   R(6,9)                  1.4198         estimate D2E/DX2                !
 ! R13   R(8,20)                 1.37           estimate D2E/DX2                !
 ! R14   R(8,24)                 1.4252         estimate D2E/DX2                !
 ! R15   R(9,12)                 1.5197         estimate D2E/DX2                !
 ! R16   R(9,13)                 1.1099         estimate D2E/DX2                !
 ! R17   R(11,17)                0.9643         estimate D2E/DX2                !
 ! R18   R(12,14)                1.3986         estimate D2E/DX2                !
 ! R19   R(12,15)                1.1042         estimate D2E/DX2                !
 ! R20   R(12,16)                1.1074         estimate D2E/DX2                !
 ! R21   R(14,19)                0.9866         estimate D2E/DX2                !
 ! R22   R(20,21)                1.3469         estimate D2E/DX2                !
 ! R23   R(20,25)                1.0915         estimate D2E/DX2                !
 ! R24   R(21,22)                1.4711         estimate D2E/DX2                !
 ! R25   R(21,26)                1.0881         estimate D2E/DX2                !
 ! R26   R(22,23)                1.3728         estimate D2E/DX2                !
 ! R27   R(22,27)                1.2393         estimate D2E/DX2                !
 ! R28   R(23,24)                1.3253         estimate D2E/DX2                !
 ! R29   R(24,28)                1.257          estimate D2E/DX2                !
 ! A1    A(2,1,9)              104.1117         estimate D2E/DX2                !
 ! A2    A(2,1,10)             109.7231         estimate D2E/DX2                !
 ! A3    A(2,1,11)             113.2871         estimate D2E/DX2                !
 ! A4    A(9,1,10)             110.3184         estimate D2E/DX2                !
 ! A5    A(9,1,11)             112.933          estimate D2E/DX2                !
 ! A6    A(10,1,11)            106.5005         estimate D2E/DX2                !
 ! A7    A(1,2,3)              105.2265         estimate D2E/DX2                !
 ! A8    A(1,2,4)              111.0548         estimate D2E/DX2                !
 ! A9    A(1,2,5)              111.8597         estimate D2E/DX2                !
 ! A10   A(3,2,4)              106.7529         estimate D2E/DX2                !
 ! A11   A(3,2,5)              110.9752         estimate D2E/DX2                !
 ! A12   A(4,2,5)              110.7248         estimate D2E/DX2                !
 ! A13   A(2,3,6)              107.7934         estimate D2E/DX2                !
 ! A14   A(2,3,7)              107.2002         estimate D2E/DX2                !
 ! A15   A(2,3,8)              115.8003         estimate D2E/DX2                !
 ! A16   A(6,3,7)              108.9036         estimate D2E/DX2                !
 ! A17   A(6,3,8)              110.6497         estimate D2E/DX2                !
 ! A18   A(7,3,8)              106.2757         estimate D2E/DX2                !
 ! A19   A(2,4,18)             106.3399         estimate D2E/DX2                !
 ! A20   A(3,6,9)              112.0356         estimate D2E/DX2                !
 ! A21   A(3,8,20)             120.3331         estimate D2E/DX2                !
 ! A22   A(3,8,24)             119.8484         estimate D2E/DX2                !
 ! A23   A(20,8,24)            119.7168         estimate D2E/DX2                !
 ! A24   A(1,9,6)              107.5157         estimate D2E/DX2                !
 ! A25   A(1,9,12)             114.747          estimate D2E/DX2                !
 ! A26   A(1,9,13)             108.4259         estimate D2E/DX2                !
 ! A27   A(6,9,12)             109.0079         estimate D2E/DX2                !
 ! A28   A(6,9,13)             109.0424         estimate D2E/DX2                !
 ! A29   A(12,9,13)            107.9943         estimate D2E/DX2                !
 ! A30   A(1,11,17)            106.5437         estimate D2E/DX2                !
 ! A31   A(9,12,14)            114.6765         estimate D2E/DX2                !
 ! A32   A(9,12,15)            107.7868         estimate D2E/DX2                !
 ! A33   A(9,12,16)            107.1507         estimate D2E/DX2                !
 ! A34   A(14,12,15)           108.1881         estimate D2E/DX2                !
 ! A35   A(14,12,16)           111.3434         estimate D2E/DX2                !
 ! A36   A(15,12,16)           107.4147         estimate D2E/DX2                !
 ! A37   A(12,14,19)           110.1454         estimate D2E/DX2                !
 ! A38   A(8,20,21)            120.8608         estimate D2E/DX2                !
 ! A39   A(8,20,25)            115.7549         estimate D2E/DX2                !
 ! A40   A(21,20,25)           123.3831         estimate D2E/DX2                !
 ! A41   A(20,21,22)           119.2563         estimate D2E/DX2                !
 ! A42   A(20,21,26)           121.5067         estimate D2E/DX2                !
 ! A43   A(22,21,26)           119.2361         estimate D2E/DX2                !
 ! A44   A(21,22,23)           117.8707         estimate D2E/DX2                !
 ! A45   A(21,22,27)           119.9963         estimate D2E/DX2                !
 ! A46   A(23,22,27)           122.1328         estimate D2E/DX2                !
 ! A47   A(22,23,24)           122.029          estimate D2E/DX2                !
 ! A48   A(8,24,23)            120.171          estimate D2E/DX2                !
 ! A49   A(8,24,28)            114.8883         estimate D2E/DX2                !
 ! A50   A(23,24,28)           124.9297         estimate D2E/DX2                !
 ! D1    D(9,1,2,3)             15.7015         estimate D2E/DX2                !
 ! D2    D(9,1,2,4)            -99.4419         estimate D2E/DX2                !
 ! D3    D(9,1,2,5)            136.2937         estimate D2E/DX2                !
 ! D4    D(10,1,2,3)          -102.3643         estimate D2E/DX2                !
 ! D5    D(10,1,2,4)           142.4923         estimate D2E/DX2                !
 ! D6    D(10,1,2,5)            18.228          estimate D2E/DX2                !
 ! D7    D(11,1,2,3)           138.7682         estimate D2E/DX2                !
 ! D8    D(11,1,2,4)            23.6248         estimate D2E/DX2                !
 ! D9    D(11,1,2,5)          -100.6396         estimate D2E/DX2                !
 ! D10   D(2,1,9,6)            -18.4273         estimate D2E/DX2                !
 ! D11   D(2,1,9,12)          -139.8632         estimate D2E/DX2                !
 ! D12   D(2,1,9,13)            99.3323         estimate D2E/DX2                !
 ! D13   D(10,1,9,6)            99.228          estimate D2E/DX2                !
 ! D14   D(10,1,9,12)          -22.2078         estimate D2E/DX2                !
 ! D15   D(10,1,9,13)         -143.0123         estimate D2E/DX2                !
 ! D16   D(11,1,9,6)          -141.7251         estimate D2E/DX2                !
 ! D17   D(11,1,9,12)           96.839          estimate D2E/DX2                !
 ! D18   D(11,1,9,13)          -23.9654         estimate D2E/DX2                !
 ! D19   D(2,1,11,17)          -60.0003         estimate D2E/DX2                !
 ! D20   D(9,1,11,17)           58.0546         estimate D2E/DX2                !
 ! D21   D(10,1,11,17)         179.2905         estimate D2E/DX2                !
 ! D22   D(1,2,3,6)             -8.004          estimate D2E/DX2                !
 ! D23   D(1,2,3,7)           -125.103          estimate D2E/DX2                !
 ! D24   D(1,2,3,8)            116.5044         estimate D2E/DX2                !
 ! D25   D(4,2,3,6)            110.0803         estimate D2E/DX2                !
 ! D26   D(4,2,3,7)             -7.0188         estimate D2E/DX2                !
 ! D27   D(4,2,3,8)           -125.4114         estimate D2E/DX2                !
 ! D28   D(5,2,3,6)           -129.1763         estimate D2E/DX2                !
 ! D29   D(5,2,3,7)            113.7246         estimate D2E/DX2                !
 ! D30   D(5,2,3,8)             -4.6679         estimate D2E/DX2                !
 ! D31   D(1,2,4,18)           -66.3984         estimate D2E/DX2                !
 ! D32   D(3,2,4,18)           179.4106         estimate D2E/DX2                !
 ! D33   D(5,2,4,18)            58.5074         estimate D2E/DX2                !
 ! D34   D(2,3,6,9)             -3.899          estimate D2E/DX2                !
 ! D35   D(7,3,6,9)            112.0886         estimate D2E/DX2                !
 ! D36   D(8,3,6,9)           -131.4476         estimate D2E/DX2                !
 ! D37   D(2,3,8,20)           128.381          estimate D2E/DX2                !
 ! D38   D(2,3,8,24)           -55.2955         estimate D2E/DX2                !
 ! D39   D(6,3,8,20)          -108.6005         estimate D2E/DX2                !
 ! D40   D(6,3,8,24)            67.723          estimate D2E/DX2                !
 ! D41   D(7,3,8,20)             9.4795         estimate D2E/DX2                !
 ! D42   D(7,3,8,24)          -174.197          estimate D2E/DX2                !
 ! D43   D(3,6,9,1)             14.3337         estimate D2E/DX2                !
 ! D44   D(3,6,9,12)           139.2933         estimate D2E/DX2                !
 ! D45   D(3,6,9,13)          -103.0254         estimate D2E/DX2                !
 ! D46   D(3,8,20,21)          179.0293         estimate D2E/DX2                !
 ! D47   D(3,8,20,25)           -1.3413         estimate D2E/DX2                !
 ! D48   D(24,8,20,21)           2.7009         estimate D2E/DX2                !
 ! D49   D(24,8,20,25)        -177.6697         estimate D2E/DX2                !
 ! D50   D(3,8,24,23)         -179.7106         estimate D2E/DX2                !
 ! D51   D(3,8,24,28)            1.4374         estimate D2E/DX2                !
 ! D52   D(20,8,24,23)          -3.3642         estimate D2E/DX2                !
 ! D53   D(20,8,24,28)         177.7837         estimate D2E/DX2                !
 ! D54   D(1,9,12,14)           47.8913         estimate D2E/DX2                !
 ! D55   D(1,9,12,15)          -72.6492         estimate D2E/DX2                !
 ! D56   D(1,9,12,16)          172.0139         estimate D2E/DX2                !
 ! D57   D(6,9,12,14)          -72.7259         estimate D2E/DX2                !
 ! D58   D(6,9,12,15)          166.7336         estimate D2E/DX2                !
 ! D59   D(6,9,12,16)           51.3967         estimate D2E/DX2                !
 ! D60   D(13,9,12,14)         168.9328         estimate D2E/DX2                !
 ! D61   D(13,9,12,15)          48.3923         estimate D2E/DX2                !
 ! D62   D(13,9,12,16)         -66.9446         estimate D2E/DX2                !
 ! D63   D(9,12,14,19)          25.4907         estimate D2E/DX2                !
 ! D64   D(15,12,14,19)        145.8094         estimate D2E/DX2                !
 ! D65   D(16,12,14,19)        -96.3764         estimate D2E/DX2                !
 ! D66   D(8,20,21,22)          -0.0751         estimate D2E/DX2                !
 ! D67   D(8,20,21,26)         179.578          estimate D2E/DX2                !
 ! D68   D(25,20,21,22)       -179.6754         estimate D2E/DX2                !
 ! D69   D(25,20,21,26)         -0.0223         estimate D2E/DX2                !
 ! D70   D(20,21,22,23)         -1.9809         estimate D2E/DX2                !
 ! D71   D(20,21,22,27)        178.2013         estimate D2E/DX2                !
 ! D72   D(26,21,22,23)        178.358          estimate D2E/DX2                !
 ! D73   D(26,21,22,27)         -1.4598         estimate D2E/DX2                !
 ! D74   D(21,22,23,24)          1.3481         estimate D2E/DX2                !
 ! D75   D(27,22,23,24)       -178.8382         estimate D2E/DX2                !
 ! D76   D(22,23,24,8)           1.2619         estimate D2E/DX2                !
 ! D77   D(22,23,24,28)        179.9917         estimate D2E/DX2                !
 --------------------------------------------------------------------------------
 Trust Radius=3.00D-01 FncErr=1.00D-07 GrdErr=1.00D-06 EigMax=2.50D+02 EigMin=1.00D-04
 Number of steps in this run=    166 maximum allowed number of steps=    168.
 GradGradGradGradGradGradGradGradGradGradGradGradGradGradGradGradGradGrad

                          Input orientation:                          
 ---------------------------------------------------------------------
 Center     Atomic      Atomic             Coordinates (Angstroms)
 Number     Number       Type             X           Y           Z
 ---------------------------------------------------------------------
      1          6           0        2.309170   -0.173039   -0.606781
      2          6           0        1.202562   -1.244022   -0.612663
      3          6           0        0.332347   -0.931252    0.612431
      4          8           0        1.749884   -2.549720   -0.407187
      5          1           0        0.609444   -1.212716   -1.533345
      6          8           0        0.983873    0.082406    1.359195
      7          1           0        0.284964   -1.848053    1.220881
      8          7           0       -1.027242   -0.561439    0.335311
      9          6           0        2.247737    0.421072    0.808031
     10          1           0        2.083458    0.594163   -1.350323
     11          8           0        3.589911   -0.687985   -0.935054
     12          6           0        2.428308    1.928629    0.873363
     13          1           0        3.046769   -0.046790    1.419980
     14          8           0        1.650402    2.649916   -0.038023
     15          1           0        3.490870    2.150168    0.670646
     16          1           0        2.218309    2.237808    1.915806
     17          1           0        3.794775   -1.357685   -0.272120
     18          1           0        2.286704   -2.743597   -1.182814
     19          1           0        0.845082    2.133993   -0.280409
     20          6           0       -2.060717   -1.199161    0.969449
     21          6           0       -3.339072   -0.847719    0.732085
     22          6           0       -3.621419    0.237063   -0.220563
     23          7           0       -2.553653    0.876495   -0.799899
     24          6           0       -1.301383    0.526081   -0.544151
     25          1           0       -1.774991   -1.996408    1.657956
     26          1           0       -4.168153   -1.351572    1.224684
     27          8           0       -4.793558    0.549225   -0.474426
     28          8           0       -0.285035    1.072332   -1.042759
 ---------------------------------------------------------------------
                    Distance matrix (angstroms):
                    1          2          3          4          5
     1  C    0.000000
     2  C    1.540007   0.000000
     3  C    2.443193   1.534912   0.000000
     4  O    2.449745   1.430604   2.380855   0.000000
     5  H    2.197389   1.095639   2.181825   2.087203   0.000000
     6  O    2.384686   2.386516   1.417620   3.261129   3.191289
     7  H    3.200536   2.137457   1.101354   2.299768   2.845119
     8  N    3.488558   2.517260   1.435980   3.495282   2.568030
     9  C    1.535720   2.425552   2.352819   3.248110   3.291703
    10  H    1.091970   2.167728   3.040672   3.299209   2.339022
    11  O    1.418883   2.472357   3.614639   2.670281   3.084879
    12  C    2.573330   3.711663   3.555286   4.706982   4.355291
    13  H    2.160498   2.994345   2.966900   3.359332   4.002757
    14  O    2.954071   3.961505   3.871062   5.213674   4.270774
    15  H    2.902676   4.289961   4.413027   5.126568   4.946633
    16  H    3.490542   4.421316   3.911340   5.341923   5.137237
    17  H    1.929354   2.616956   3.598984   2.370816   3.429000
    18  H    2.634405   1.936275   3.213567   0.962996   2.297753
    19  H    2.751812   3.413088   3.233541   4.771992   3.581317
    20  C    4.757451   3.626855   2.434336   4.270810   3.659771
    21  C    5.843834   4.753088   3.674318   5.485638   4.566856
    22  C    5.957284   5.061437   4.206079   6.054080   4.661058
    23  N    4.978540   4.317499   3.686682   5.514853   3.861079
    24  C    3.678150   3.067197   2.476000   4.334690   2.766438
    25  H    5.013390   3.819374   2.582354   4.122586   4.060062
    26  H    6.833661   5.677322   4.561362   6.254736   5.518282
    27  O    7.140583   6.260056   5.444995   7.240484   5.780846
    28  O    2.910485   2.786292   2.671173   4.202869   2.502441
                    6          7          8          9         10
     6  O    0.000000
     7  H    2.057736   0.000000
     8  N    2.346797   2.039974   0.000000
     9  C    1.419799   3.028506   3.451707   0.000000
    10  H    2.968581   3.976190   3.721993   2.171506   0.000000
    11  O    3.556475   4.112966   4.790401   2.463693   2.021324
    12  C    2.393943   4.356377   4.293107   1.519738   2.616200
    13  H    2.067831   3.303295   4.247227   1.109878   3.002227
    14  O    2.998097   4.866311   4.197851   2.457715   2.477053
    15  H    3.321863   5.154257   5.280019   2.134017   2.913121
    16  H    2.545468   4.573292   4.568079   2.128042   3.658873
    17  H    3.554746   3.845554   4.924919   2.593073   2.810843
    18  H    4.018143   3.253723   4.248383   3.738999   3.348135
    19  H    2.629938   4.292353   3.339171   2.467031   2.247080
    20  C    3.326236   2.446732   1.369997   4.605864   5.076568
    21  C    4.466123   3.791204   2.363037   5.729575   5.984921
    22  C    4.871167   4.656748   2.770624   5.961448   5.826620
    23  N    4.219758   4.423173   2.384594   5.083915   4.678192
    24  C    3.006987   3.356836   1.425239   3.799431   3.480186
    25  H    3.467284   2.111033   2.089893   4.769583   5.536102
    26  H    5.349557   4.480710   3.358663   6.669296   7.035566
    27  O    6.079375   5.866208   4.009287   7.158279   6.932717
    28  O    2.891274   3.738665   2.262555   3.203825   2.435775
                   11         12         13         14         15
    11  O    0.000000
    12  C    3.386202   0.000000
    13  H    2.500464   2.140926   0.000000
    14  O    3.963325   1.398577   3.368655   0.000000
    15  H    3.262391   1.104179   2.363335   2.034523   0.000000
    16  H    4.309172   1.107420   2.480237   2.076006   1.782559
    17  H    0.964339   3.738880   2.267413   4.551264   3.645024
    18  H    2.446482   5.106624   3.824265   5.550262   5.369755
    19  H    3.990765   1.969764   3.534765   0.986645   2.811576
    20  C    5.984817   5.472079   5.255221   5.440845   6.490563
    21  C    7.128511   6.402401   6.472531   6.141772   7.459169
    22  C    7.305443   6.376305   6.872895   5.800627   7.418819
    23  N    6.341076   5.359732   6.094673   4.625965   6.349882
    24  C    5.054851   4.229312   4.805457   3.671495   5.203756
    25  H    6.100643   5.804242   5.206440   6.016476   6.774818
    26  H    8.080370   7.375394   7.334555   7.173696   8.439773
    27  O    8.486779   7.474934   8.087938   6.791758   8.515043
    28  O    4.257408   3.430306   4.291670   2.691502   4.284267
                   16         17         18         19         20
    16  H    0.000000
    17  H    4.494423   0.000000
    18  H    5.866900   2.241516   0.000000
    19  H    2.592275   4.570839   5.165607   0.000000
    20  C    5.569417   5.987772   5.090932   4.595185   0.000000
    21  C    6.465768   7.222206   6.237832   5.236687   1.346865
    22  C    6.532188   7.585896   6.687016   4.852995   2.432007
    23  N    5.656841   6.750752   6.056463   3.660952   2.771629
    24  C    4.622730   5.439982   4.896228   2.694857   2.417443
    25  H    5.825935   5.929203   5.012547   5.261393   1.091460
    26  H    7.358546   8.102387   7.028439   6.288640   2.128300
    27  O    7.598079   8.799812   7.840574   5.860324   3.551063
    28  O    4.046995   4.810792   4.603778   1.727850   3.515922
                   21         22         23         24         25
    21  C    0.000000
    22  C    1.471057   0.000000
    23  N    2.436549   1.372817   0.000000
    24  C    2.769166   2.360256   1.325284   0.000000
    25  H    2.150133   3.453480   3.860173   3.381794   0.000000
    26  H    1.088070   2.216172   3.416113   3.856518   2.516101
    27  O    2.350032   1.239275   2.286966   3.492948   4.487655
    28  O    4.020424   3.536261   2.289970   1.256966   4.350976
                   26         27         28
    26  H    0.000000
    27  O    2.625097   0.000000
    28  O    5.108347   4.574213   0.000000
 Stoichiometry    C9H11N2O6(2)
 Framework group  C1[X(C9H11N2O6)]
 Deg. of freedom    78
 Full point group                 C1      NOp   1
 Largest Abelian subgroup         C1      NOp   1
 Largest concise Abelian subgroup C1      NOp   1
                         Standard orientation:                         
 ---------------------------------------------------------------------
 Center     Atomic      Atomic             Coordinates (Angstroms)
 Number     Number       Type             X           Y           Z
 ---------------------------------------------------------------------
      1          6           0        2.309170   -0.173039   -0.606781
      2          6           0        1.202562   -1.244022   -0.612663
      3          6           0        0.332347   -0.931252    0.612431
      4          8           0        1.749884   -2.549720   -0.407187
      5          1           0        0.609444   -1.212716   -1.533345
      6          8           0        0.983873    0.082406    1.359195
      7          1           0        0.284964   -1.848053    1.220881
      8          7           0       -1.027242   -0.561439    0.335311
      9          6           0        2.247737    0.421072    0.808031
     10          1           0        2.083458    0.594163   -1.350323
     11          8           0        3.589911   -0.687985   -0.935054
     12          6           0        2.428308    1.928629    0.873363
     13          1           0        3.046769   -0.046790    1.419980
     14          8           0        1.650402    2.649916   -0.038023
     15          1           0        3.490870    2.150168    0.670646
     16          1           0        2.218309    2.237808    1.915806
     17          1           0        3.794775   -1.357685   -0.272120
     18          1           0        2.286704   -2.743597   -1.182814
     19          1           0        0.845082    2.133993   -0.280409
     20          6           0       -2.060717   -1.199161    0.969449
     21          6           0       -3.339072   -0.847719    0.732085
     22          6           0       -3.621419    0.237063   -0.220563
     23          7           0       -2.553653    0.876495   -0.799899
     24          6           0       -1.301383    0.526081   -0.544151
     25          1           0       -1.774991   -1.996408    1.657956
     26          1           0       -4.168153   -1.351572    1.224684
     27          8           0       -4.793558    0.549225   -0.474426
     28          8           0       -0.285035    1.072332   -1.042759
 ---------------------------------------------------------------------
 Rotational constants (GHZ):           0.9176751           0.3187825           0.2745484
 Standard basis: Aug-CC-pVDZ (5D, 7F)
 There are   524 symmetry adapted cartesian basis functions of A   symmetry.
 There are   490 symmetry adapted basis functions of A   symmetry.
   490 basis functions,   852 primitive gaussians,   524 cartesian basis functions
    64 alpha electrons       63 beta electrons
       nuclear repulsion energy      1321.3156670592 Hartrees.
 NAtoms=   28 NActive=   28 NUniq=   28 SFac= 1.00D+00 NAtFMM=   60 NAOKFM=F Big=F
 Integral buffers will be    131072 words long.
 Raffenetti 2 integral format.
 Two-electron integral symmetry is turned on.
 Nuclear repulsion after empirical dispersion term =     1321.2956350524 Hartrees.
 One-electron integrals computed using PRISM.
 NBasis=   490 RedAO= T EigKep=  2.60D-06  NBF=   490
 NBsUse=   490 1.00D-06 EigRej= -1.00D+00 NBFU=   490
 ExpMin= 2.97D-02 ExpMax= 1.17D+04 ExpMxC= 4.01D+02 IAcc=3 IRadAn=         5 AccDes= 0.00D+00
 Harris functional with IExCor= 1009 and IRadAn=       5 diagonalized for initial guess.
 HarFok:  IExCor= 1009 AccDes= 0.00D+00 IRadAn=         5 IDoV= 1 UseB2=F ITyADJ=14
 ICtDFT=  3500011 ScaDFX=  1.000000  1.000000  1.000000  1.000000
 FoFCou: FMM=F IPFlag=           0 FMFlag=      100000 FMFlg1=           0
         NFxFlg=           0 DoJE=T BraDBF=F KetDBF=T FulRan=T
         wScrn=  0.000000 ICntrl=       500 IOpCl=  0 I1Cent=   200000004 NGrid=           0
         NMat0=    1 NMatS0=      1 NMatT0=    0 NMatD0=    1 NMtDS0=    0 NMtDT0=    0
 Petite list used in FoFCou.
 Initial guess <Sx>= 0.0000 <Sy>= 0.0000 <Sz>= 0.5000 <S**2>= 0.7500 S= 0.5000
 Requested convergence on RMS density matrix=1.00D-08 within 128 cycles.
 Requested convergence on MAX density matrix=1.00D-06.
 Requested convergence on             energy=1.00D-06.
 No special actions if energy rises.
 Rare condition: small coef for last iteration:  0.000D+00
 Restarting incremental Fock formation.
 Restarting incremental Fock formation.
 Restarting incremental Fock formation.
 SCF Done:  E(UPBE1PBE) =  -909.505551727     A.U. after   69 cycles
            NFock= 69  Conv=0.21D-08     -V/T= 2.0054
 <Sx>= 0.0000 <Sy>= 0.0000 <Sz>= 0.5000 <S**2>= 0.7907 S= 0.5202
 <L.S>= 0.000000000000E+00
 Annihilation of the first spin contaminant:
 S**2 before annihilation     0.7907,   after     0.7511

 **********************************************************************

            Population analysis using the SCF Density.

 **********************************************************************

 Orbital symmetries:
 Alpha Orbitals:
       Occupied  (A) (A) (A) (A) (A) (A) (A) (A) (A) (A) (A) (A)
                 (A) (A) (A) (A) (A) (A) (A) (A) (A) (A) (A) (A)
                 (A) (A) (A) (A) (A) (A) (A) (A) (A) (A) (A) (A)
                 (A) (A) (A) (A) (A) (A) (A) (A) (A) (A) (A) (A)
                 (A) (A) (A) (A) (A) (A) (A) (A) (A) (A) (A) (A)
                 (A) (A) (A) (A)
       Virtual   (A) (A) (A) (A) (A) (A) (A) (A) (A) (A) (A) (A)
                 (A) (A) (A) (A) (A) (A) (A) (A) (A) (A) (A) (A)
                 (A) (A) (A) (A) (A) (A) (A) (A) (A) (A) (A) (A)
                 (A) (A) (A) (A) (A) (A) (A) (A) (A) (A) (A) (A)
                 (A) (A) (A) (A) (A) (A) (A) (A) (A) (A) (A) (A)
                 (A) (A) (A) (A) (A) (A) (A) (A) (A) (A) (A) (A)
                 (A) (A) (A) (A) (A) (A) (A) (A) (A) (A) (A) (A)
                 (A) (A) (A) (A) (A) (A) (A) (A) (A) (A) (A) (A)
                 (A) (A) (A) (A) (A) (A) (A) (A) (A) (A) (A) (A)
                 (A) (A) (A) (A) (A) (A) (A) (A) (A) (A) (A) (A)
                 (A) (A) (A) (A) (A) (A) (A) (A) (A) (A) (A) (A)
                 (A) (A) (A) (A) (A) (A) (A) (A) (A) (A) (A) (A)
                 (A) (A) (A) (A) (A) (A) (A) (A) (A) (A) (A) (A)
                 (A) (A) (A) (A) (A) (A) (A) (A) (A) (A) (A) (A)
                 (A) (A) (A) (A) (A) (A) (A) (A) (A) (A) (A) (A)
                 (A) (A) (A) (A) (A) (A) (A) (A) (A) (A) (A) (A)
                 (A) (A) (A) (A) (A) (A) (A) (A) (A) (A) (A) (A)
                 (A) (A) (A) (A) (A) (A) (A) (A) (A) (A) (A) (A)
                 (A) (A) (A) (A) (A) (A) (A) (A) (A) (A) (A) (A)
                 (A) (A) (A) (A) (A) (A) (A) (A) (A) (A) (A) (A)
                 (A) (A) (A) (A) (A) (A) (A) (A) (A) (A) (A) (A)
                 (A) (A) (A) (A) (A) (A) (A) (A) (A) (A) (A) (A)
                 (A) (A) (A) (A) (A) (A) (A) (A) (A) (A) (A) (A)
                 (A) (A) (A) (A) (A) (A) (A) (A) (A) (A) (A) (A)
                 (A) (A) (A) (A) (A) (A) (A) (A) (A) (A) (A) (A)
                 (A) (A) (A) (A) (A) (A) (A) (A) (A) (A) (A) (A)
                 (A) (A) (A) (A) (A) (A) (A) (A) (A) (A) (A) (A)
                 (A) (A) (A) (A) (A) (A) (A) (A) (A) (A) (A) (A)
                 (A) (A) (A) (A) (A) (A) (A) (A) (A) (A) (A) (A)
                 (A) (A) (A) (A) (A) (A) (A) (A) (A) (A) (A) (A)
                 (A) (A) (A) (A) (A) (A) (A) (A) (A) (A) (A) (A)
                 (A) (A) (A) (A) (A) (A) (A) (A) (A) (A) (A) (A)
                 (A) (A) (A) (A) (A) (A) (A) (A) (A) (A) (A) (A)
                 (A) (A) (A) (A) (A) (A) (A) (A) (A) (A) (A) (A)
                 (A) (A) (A) (A) (A) (A) (A) (A) (A) (A) (A) (A)
                 (A) (A) (A) (A) (A) (A)
 Beta  Orbitals:
       Occupied  (A) (A) (A) (A) (A) (A) (A) (A) (A) (A) (A) (A)
                 (A) (A) (A) (A) (A) (A) (A) (A) (A) (A) (A) (A)
                 (A) (A) (A) (A) (A) (A) (A) (A) (A) (A) (A) (A)
                 (A) (A) (A) (A) (A) (A) (A) (A) (A) (A) (A) (A)
                 (A) (A) (A) (A) (A) (A) (A) (A) (A) (A) (A) (A)
                 (A) (A) (A)
       Virtual   (A) (A) (A) (A) (A) (A) (A) (A) (A) (A) (A) (A)
                 (A) (A) (A) (A) (A) (A) (A) (A) (A) (A) (A) (A)
                 (A) (A) (A) (A) (A) (A) (A) (A) (A) (A) (A) (A)
                 (A) (A) (A) (A) (A) (A) (A) (A) (A) (A) (A) (A)
                 (A) (A) (A) (A) (A) (A) (A) (A) (A) (A) (A) (A)
                 (A) (A) (A) (A) (A) (A) (A) (A) (A) (A) (A) (A)
                 (A) (A) (A) (A) (A) (A) (A) (A) (A) (A) (A) (A)
                 (A) (A) (A) (A) (A) (A) (A) (A) (A) (A) (A) (A)
                 (A) (A) (A) (A) (A) (A) (A) (A) (A) (A) (A) (A)
                 (A) (A) (A) (A) (A) (A) (A) (A) (A) (A) (A) (A)
                 (A) (A) (A) (A) (A) (A) (A) (A) (A) (A) (A) (A)
                 (A) (A) (A) (A) (A) (A) (A) (A) (A) (A) (A) (A)
                 (A) (A) (A) (A) (A) (A) (A) (A) (A) (A) (A) (A)
                 (A) (A) (A) (A) (A) (A) (A) (A) (A) (A) (A) (A)
                 (A) (A) (A) (A) (A) (A) (A) (A) (A) (A) (A) (A)
                 (A) (A) (A) (A) (A) (A) (A) (A) (A) (A) (A) (A)
                 (A) (A) (A) (A) (A) (A) (A) (A) (A) (A) (A) (A)
                 (A) (A) (A) (A) (A) (A) (A) (A) (A) (A) (A) (A)
                 (A) (A) (A) (A) (A) (A) (A) (A) (A) (A) (A) (A)
                 (A) (A) (A) (A) (A) (A) (A) (A) (A) (A) (A) (A)
                 (A) (A) (A) (A) (A) (A) (A) (A) (A) (A) (A) (A)
                 (A) (A) (A) (A) (A) (A) (A) (A) (A) (A) (A) (A)
                 (A) (A) (A) (A) (A) (A) (A) (A) (A) (A) (A) (A)
                 (A) (A) (A) (A) (A) (A) (A) (A) (A) (A) (A) (A)
                 (A) (A) (A) (A) (A) (A) (A) (A) (A) (A) (A) (A)
                 (A) (A) (A) (A) (A) (A) (A) (A) (A) (A) (A) (A)
                 (A) (A) (A) (A) (A) (A) (A) (A) (A) (A) (A) (A)
                 (A) (A) (A) (A) (A) (A) (A) (A) (A) (A) (A) (A)
                 (A) (A) (A) (A) (A) (A) (A) (A) (A) (A) (A) (A)
                 (A) (A) (A) (A) (A) (A) (A) (A) (A) (A) (A) (A)
                 (A) (A) (A) (A) (A) (A) (A) (A) (A) (A) (A) (A)
                 (A) (A) (A) (A) (A) (A) (A) (A) (A) (A) (A) (A)
                 (A) (A) (A) (A) (A) (A) (A) (A) (A) (A) (A) (A)
                 (A) (A) (A) (A) (A) (A) (A) (A) (A) (A) (A) (A)
                 (A) (A) (A) (A) (A) (A) (A) (A) (A) (A) (A) (A)
                 (A) (A) (A) (A) (A) (A) (A)
 The electronic state is 2-A.
 Alpha  occ. eigenvalues --  -19.28491 -19.27251 -19.26664 -19.25296 -19.21513
 Alpha  occ. eigenvalues --  -19.20033 -14.53370 -14.43721 -10.39497 -10.37934
 Alpha  occ. eigenvalues --  -10.36946 -10.35392 -10.32240 -10.30899 -10.30211
 Alpha  occ. eigenvalues --  -10.30104 -10.27479  -1.14797  -1.13764  -1.10971
 Alpha  occ. eigenvalues --   -1.09739  -1.07370  -1.04589  -1.03116  -0.97597
 Alpha  occ. eigenvalues --   -0.87398  -0.82028  -0.81052  -0.73546  -0.72489
 Alpha  occ. eigenvalues --   -0.69216  -0.66325  -0.63678  -0.61795  -0.60450
 Alpha  occ. eigenvalues --   -0.57652  -0.55681  -0.55024  -0.52986  -0.52648
 Alpha  occ. eigenvalues --   -0.51410  -0.50797  -0.50188  -0.49749  -0.48456
 Alpha  occ. eigenvalues --   -0.47298  -0.46110  -0.44771  -0.43927  -0.42846
 Alpha  occ. eigenvalues --   -0.41803  -0.40828  -0.38430  -0.36541  -0.35808
 Alpha  occ. eigenvalues --   -0.35350  -0.34297  -0.34075  -0.32417  -0.31769
 Alpha  occ. eigenvalues --   -0.31157  -0.30219  -0.29572  -0.27098
 Alpha virt. eigenvalues --   -0.08174  -0.03275  -0.02160  -0.01765  -0.00188
 Alpha virt. eigenvalues --    0.00844   0.01368   0.02694   0.02929   0.03466
 Alpha virt. eigenvalues --    0.03861   0.04195   0.04955   0.05555   0.05842
 Alpha virt. eigenvalues --    0.06002   0.06768   0.06930   0.07452   0.07715
 Alpha virt. eigenvalues --    0.08093   0.08541   0.08776   0.09012   0.09303
 Alpha virt. eigenvalues --    0.09693   0.09899   0.10496   0.10837   0.11062
 Alpha virt. eigenvalues --    0.11390   0.11751   0.12216   0.12578   0.12744
 Alpha virt. eigenvalues --    0.13063   0.13343   0.13917   0.14162   0.14179
 Alpha virt. eigenvalues --    0.14897   0.15269   0.15570   0.15734   0.16483
 Alpha virt. eigenvalues --    0.16896   0.17043   0.17631   0.18287   0.18529
 Alpha virt. eigenvalues --    0.18809   0.19629   0.20288   0.20585   0.20866
 Alpha virt. eigenvalues --    0.21559   0.21635   0.21855   0.22353   0.22617
 Alpha virt. eigenvalues --    0.22864   0.23305   0.23590   0.23977   0.24503
 Alpha virt. eigenvalues --    0.25010   0.25103   0.25531   0.25852   0.25937
 Alpha virt. eigenvalues --    0.26290   0.26565   0.26886   0.27011   0.27543
 Alpha virt. eigenvalues --    0.27686   0.28216   0.28598   0.28758   0.29067
 Alpha virt. eigenvalues --    0.29517   0.29838   0.30161   0.30296   0.30366
 Alpha virt. eigenvalues --    0.31272   0.31475   0.32013   0.32472   0.32767
 Alpha virt. eigenvalues --    0.33202   0.33709   0.34329   0.34577   0.35352
 Alpha virt. eigenvalues --    0.35994   0.36297   0.36518   0.37122   0.37417
 Alpha virt. eigenvalues --    0.37698   0.37762   0.38837   0.39223   0.39613
 Alpha virt. eigenvalues --    0.39978   0.40566   0.41008   0.41550   0.42382
 Alpha virt. eigenvalues --    0.42588   0.42909   0.43178   0.43843   0.44056
 Alpha virt. eigenvalues --    0.45094   0.45235   0.45825   0.46252   0.46758
 Alpha virt. eigenvalues --    0.47608   0.47818   0.48579   0.49465   0.50042
 Alpha virt. eigenvalues --    0.50586   0.51372   0.52342   0.52952   0.53429
 Alpha virt. eigenvalues --    0.53693   0.54282   0.54432   0.55256   0.55946
 Alpha virt. eigenvalues --    0.56339   0.57093   0.57659   0.57956   0.58330
 Alpha virt. eigenvalues --    0.58893   0.59352   0.59637   0.60237   0.61280
 Alpha virt. eigenvalues --    0.61730   0.62243   0.62769   0.63315   0.63637
 Alpha virt. eigenvalues --    0.63756   0.64617   0.64731   0.65339   0.65732
 Alpha virt. eigenvalues --    0.66086   0.67097   0.67737   0.68062   0.68558
 Alpha virt. eigenvalues --    0.68928   0.69388   0.69543   0.70016   0.70216
 Alpha virt. eigenvalues --    0.70786   0.70989   0.71946   0.72727   0.72808
 Alpha virt. eigenvalues --    0.73355   0.73989   0.74740   0.75397   0.76226
 Alpha virt. eigenvalues --    0.77261   0.77896   0.78387   0.79027   0.79837
 Alpha virt. eigenvalues --    0.80034   0.81096   0.81498   0.81994   0.82559
 Alpha virt. eigenvalues --    0.83069   0.83549   0.84565   0.85499   0.86469
 Alpha virt. eigenvalues --    0.86849   0.88189   0.88763   0.89406   0.89551
 Alpha virt. eigenvalues --    0.90581   0.91927   0.92683   0.93573   0.94765
 Alpha virt. eigenvalues --    0.95094   0.95416   0.96742   0.97738   0.98360
 Alpha virt. eigenvalues --    0.99269   0.99816   1.00370   1.01775   1.02793
 Alpha virt. eigenvalues --    1.03624   1.04529   1.04846   1.06671   1.07284
 Alpha virt. eigenvalues --    1.08251   1.08568   1.09929   1.10736   1.11288
 Alpha virt. eigenvalues --    1.11800   1.13162   1.14737   1.15500   1.16262
 Alpha virt. eigenvalues --    1.17742   1.19342   1.19871   1.20231   1.21622
 Alpha virt. eigenvalues --    1.22423   1.22637   1.24321   1.25048   1.26569
 Alpha virt. eigenvalues --    1.27072   1.27564   1.28223   1.28790   1.30807
 Alpha virt. eigenvalues --    1.31473   1.32062   1.33194   1.33461   1.34329
 Alpha virt. eigenvalues --    1.35571   1.36634   1.37217   1.37683   1.38757
 Alpha virt. eigenvalues --    1.39651   1.40991   1.41146   1.42007   1.43258
 Alpha virt. eigenvalues --    1.43847   1.44704   1.45402   1.46336   1.48171
 Alpha virt. eigenvalues --    1.49047   1.50406   1.50581   1.51467   1.52039
 Alpha virt. eigenvalues --    1.53244   1.53424   1.55034   1.56496   1.57043
 Alpha virt. eigenvalues --    1.58893   1.59407   1.60923   1.61590   1.62727
 Alpha virt. eigenvalues --    1.64542   1.65742   1.66435   1.67700   1.68415
 Alpha virt. eigenvalues --    1.68736   1.69895   1.70379   1.71689   1.72025
 Alpha virt. eigenvalues --    1.72597   1.73216   1.74002   1.75150   1.76668
 Alpha virt. eigenvalues --    1.76948   1.78083   1.79943   1.80820   1.81065
 Alpha virt. eigenvalues --    1.81814   1.82701   1.83812   1.84464   1.85344
 Alpha virt. eigenvalues --    1.85744   1.86486   1.87555   1.88699   1.89838
 Alpha virt. eigenvalues --    1.92410   1.92625   1.93994   1.94918   1.96093
 Alpha virt. eigenvalues --    1.97830   1.98086   1.98455   2.00361   2.02047
 Alpha virt. eigenvalues --    2.03121   2.04574   2.05929   2.07845   2.08843
 Alpha virt. eigenvalues --    2.09393   2.09872   2.10365   2.12372   2.13615
 Alpha virt. eigenvalues --    2.13904   2.14080   2.15050   2.17157   2.19605
 Alpha virt. eigenvalues --    2.21004   2.22902   2.23787   2.24432   2.24743
 Alpha virt. eigenvalues --    2.25620   2.27200   2.28520   2.28818   2.30587
 Alpha virt. eigenvalues --    2.31021   2.33472   2.34929   2.35891   2.36538
 Alpha virt. eigenvalues --    2.38556   2.41162   2.42793   2.43373   2.43958
 Alpha virt. eigenvalues --    2.46829   2.47451   2.48988   2.50418   2.50560
 Alpha virt. eigenvalues --    2.52259   2.53233   2.55815   2.58044   2.58459
 Alpha virt. eigenvalues --    2.62257   2.63370   2.64223   2.65503   2.66154
 Alpha virt. eigenvalues --    2.67527   2.69118   2.72940   2.73098   2.74058
 Alpha virt. eigenvalues --    2.77114   2.77654   2.79102   2.82938   2.84187
 Alpha virt. eigenvalues --    2.84702   2.86346   2.87261   2.93391   2.95536
 Alpha virt. eigenvalues --    2.96927   3.00744   3.02948   3.11574   3.12294
 Alpha virt. eigenvalues --    3.18377   3.21775   3.22446   3.29655   3.30514
 Alpha virt. eigenvalues --    3.32106   3.35320   3.35856   3.37497   3.39248
 Alpha virt. eigenvalues --    3.44930   3.46025   3.48025   3.48647   3.51289
 Alpha virt. eigenvalues --    3.51711   3.53396   3.54084   3.55716   3.56446
 Alpha virt. eigenvalues --    3.58847   3.60199   3.60746   3.61009   3.63393
 Alpha virt. eigenvalues --    3.66687   3.72061   3.73910   3.75190   3.77233
 Alpha virt. eigenvalues --    3.79154   3.82413   3.86658   3.90413   3.94773
 Alpha virt. eigenvalues --    3.96054   4.02264   4.03767   4.14230   4.21399
 Alpha virt. eigenvalues --    5.11504
  Beta  occ. eigenvalues --  -19.27154 -19.27113 -19.26658 -19.25285 -19.21601
  Beta  occ. eigenvalues --  -19.20028 -14.52800 -14.43181 -10.39611 -10.38248
  Beta  occ. eigenvalues --  -10.36977 -10.35571 -10.32199 -10.30466 -10.30213
  Beta  occ. eigenvalues --  -10.30093 -10.27479  -1.14264  -1.11800  -1.10415
  Beta  occ. eigenvalues --   -1.09548  -1.07345  -1.04306  -1.02963  -0.96213
  Beta  occ. eigenvalues --   -0.86745  -0.81851  -0.80808  -0.73293  -0.72282
  Beta  occ. eigenvalues --   -0.68963  -0.66127  -0.63581  -0.61602  -0.60260
  Beta  occ. eigenvalues --   -0.57584  -0.55293  -0.54219  -0.52895  -0.52296
  Beta  occ. eigenvalues --   -0.50667  -0.50340  -0.49358  -0.49041  -0.48372
  Beta  occ. eigenvalues --   -0.46114  -0.44750  -0.43915  -0.43359  -0.42306
  Beta  occ. eigenvalues --   -0.41549  -0.40240  -0.38252  -0.36250  -0.35575
  Beta  occ. eigenvalues --   -0.34210  -0.34047  -0.32221  -0.31129  -0.30914
  Beta  occ. eigenvalues --   -0.29816  -0.28016  -0.27032
  Beta virt. eigenvalues --   -0.22387  -0.06279  -0.02554  -0.02147  -0.01749
  Beta virt. eigenvalues --   -0.00162   0.00871   0.01396   0.02733   0.02949
  Beta virt. eigenvalues --    0.03474   0.03889   0.04225   0.04986   0.05587
  Beta virt. eigenvalues --    0.05932   0.06033   0.06832   0.07046   0.07547
  Beta virt. eigenvalues --    0.08029   0.08426   0.08647   0.08805   0.09067
  Beta virt. eigenvalues --    0.09481   0.09835   0.09956   0.10564   0.10898
  Beta virt. eigenvalues --    0.11128   0.11503   0.11815   0.12272   0.12591
  Beta virt. eigenvalues --    0.12880   0.13098   0.13444   0.13930   0.14227
  Beta virt. eigenvalues --    0.14327   0.14981   0.15354   0.15586   0.15754
  Beta virt. eigenvalues --    0.16556   0.16992   0.17143   0.17696   0.18352
  Beta virt. eigenvalues --    0.18582   0.18854   0.19714   0.20325   0.20629
  Beta virt. eigenvalues --    0.20934   0.21655   0.21714   0.21897   0.22450
  Beta virt. eigenvalues --    0.22758   0.22963   0.23412   0.23768   0.24033
  Beta virt. eigenvalues --    0.24601   0.25061   0.25192   0.25698   0.25920
  Beta virt. eigenvalues --    0.26059   0.26339   0.26630   0.26982   0.27109
  Beta virt. eigenvalues --    0.27574   0.27817   0.28272   0.28656   0.28828
  Beta virt. eigenvalues --    0.29127   0.29622   0.29884   0.30219   0.30382
  Beta virt. eigenvalues --    0.30473   0.31350   0.31526   0.32103   0.32581
  Beta virt. eigenvalues --    0.32814   0.33299   0.33823   0.34399   0.34660
  Beta virt. eigenvalues --    0.35400   0.36030   0.36343   0.36658   0.37274
  Beta virt. eigenvalues --    0.37452   0.37779   0.37842   0.38879   0.39292
  Beta virt. eigenvalues --    0.39662   0.40008   0.40685   0.41039   0.41680
  Beta virt. eigenvalues --    0.42438   0.42735   0.43005   0.43267   0.43953
  Beta virt. eigenvalues --    0.44154   0.45205   0.45286   0.45948   0.46307
  Beta virt. eigenvalues --    0.46842   0.47650   0.47953   0.48694   0.49605
  Beta virt. eigenvalues --    0.50165   0.50671   0.51497   0.52406   0.53067
  Beta virt. eigenvalues --    0.53445   0.53863   0.54330   0.54505   0.55401
  Beta virt. eigenvalues --    0.55981   0.56409   0.57165   0.57781   0.58010
  Beta virt. eigenvalues --    0.58403   0.58947   0.59415   0.59791   0.60417
  Beta virt. eigenvalues --    0.61447   0.61875   0.62285   0.62967   0.63457
  Beta virt. eigenvalues --    0.63660   0.63898   0.64669   0.64839   0.65406
  Beta virt. eigenvalues --    0.65857   0.66225   0.67139   0.67812   0.68149
  Beta virt. eigenvalues --    0.68644   0.68989   0.69467   0.69645   0.70078
  Beta virt. eigenvalues --    0.70342   0.70819   0.71121   0.72105   0.72862
  Beta virt. eigenvalues --    0.73107   0.73697   0.74173   0.74950   0.75520
  Beta virt. eigenvalues --    0.76314   0.77323   0.78008   0.78458   0.79148
  Beta virt. eigenvalues --    0.80031   0.80156   0.81176   0.81599   0.82131
  Beta virt. eigenvalues --    0.82631   0.83215   0.83740   0.84648   0.85713
  Beta virt. eigenvalues --    0.86598   0.86941   0.88296   0.88987   0.89605
  Beta virt. eigenvalues --    0.89744   0.90848   0.92063   0.92940   0.93823
  Beta virt. eigenvalues --    0.94981   0.95144   0.95553   0.96902   0.97835
  Beta virt. eigenvalues --    0.98387   0.99365   0.99892   1.01313   1.02058
  Beta virt. eigenvalues --    1.03081   1.03699   1.04683   1.05189   1.06931
  Beta virt. eigenvalues --    1.07413   1.08454   1.08942   1.09988   1.10883
  Beta virt. eigenvalues --    1.11460   1.11862   1.13225   1.14777   1.15753
  Beta virt. eigenvalues --    1.16631   1.17882   1.19434   1.19979   1.20625
  Beta virt. eigenvalues --    1.21799   1.22473   1.22743   1.24484   1.25189
  Beta virt. eigenvalues --    1.26637   1.27118   1.27638   1.28425   1.28878
  Beta virt. eigenvalues --    1.30957   1.31581   1.32082   1.33379   1.33692
  Beta virt. eigenvalues --    1.34573   1.35620   1.36944   1.37456   1.38016
  Beta virt. eigenvalues --    1.38862   1.39775   1.41162   1.41305   1.42224
  Beta virt. eigenvalues --    1.43544   1.43943   1.44878   1.45481   1.46710
  Beta virt. eigenvalues --    1.48723   1.49231   1.50686   1.50833   1.51909
  Beta virt. eigenvalues --    1.52411   1.53480   1.54104   1.55095   1.56558
  Beta virt. eigenvalues --    1.57353   1.59022   1.59694   1.61042   1.61687
  Beta virt. eigenvalues --    1.63150   1.64631   1.65822   1.66481   1.67825
  Beta virt. eigenvalues --    1.68446   1.68927   1.69969   1.70559   1.71782
  Beta virt. eigenvalues --    1.72227   1.72682   1.73815   1.74102   1.75370
  Beta virt. eigenvalues --    1.76781   1.77067   1.78226   1.80049   1.80916
  Beta virt. eigenvalues --    1.81171   1.81955   1.82777   1.83970   1.84510
  Beta virt. eigenvalues --    1.85402   1.85793   1.86607   1.87687   1.88804
  Beta virt. eigenvalues --    1.89983   1.92467   1.92740   1.94188   1.95036
  Beta virt. eigenvalues --    1.96257   1.97941   1.98264   1.98557   2.00415
  Beta virt. eigenvalues --    2.02222   2.03206   2.04674   2.05974   2.07939
  Beta virt. eigenvalues --    2.08982   2.09616   2.09984   2.10457   2.12603
  Beta virt. eigenvalues --    2.13695   2.13982   2.14276   2.15221   2.17296
  Beta virt. eigenvalues --    2.19697   2.21159   2.23031   2.23969   2.24575
  Beta virt. eigenvalues --    2.25080   2.25875   2.27295   2.28661   2.28926
  Beta virt. eigenvalues --    2.30688   2.31139   2.33644   2.35030   2.36033
  Beta virt. eigenvalues --    2.36694   2.38722   2.41254   2.42969   2.43990
  Beta virt. eigenvalues --    2.44528   2.47108   2.47627   2.49434   2.50793
  Beta virt. eigenvalues --    2.50810   2.52756   2.53748   2.55974   2.58264
  Beta virt. eigenvalues --    2.58581   2.62482   2.63490   2.64286   2.66045
  Beta virt. eigenvalues --    2.66852   2.67634   2.69467   2.73076   2.73489
  Beta virt. eigenvalues --    2.74379   2.77165   2.77843   2.79475   2.83127
  Beta virt. eigenvalues --    2.84333   2.84906   2.86455   2.87357   2.94094
  Beta virt. eigenvalues --    2.95771   2.97206   3.00867   3.03011   3.11749
  Beta virt. eigenvalues --    3.12372   3.18456   3.21999   3.22595   3.30034
  Beta virt. eigenvalues --    3.30861   3.35654   3.36826   3.38787   3.39380
  Beta virt. eigenvalues --    3.39517   3.45062   3.46367   3.48070   3.48674
  Beta virt. eigenvalues --    3.51664   3.51754   3.53443   3.54247   3.55786
  Beta virt. eigenvalues --    3.56697   3.58915   3.60370   3.60808   3.61468
  Beta virt. eigenvalues --    3.63562   3.66810   3.72139   3.74063   3.75911
  Beta virt. eigenvalues --    3.77477   3.79184   3.82494   3.86994   3.90520
  Beta virt. eigenvalues --    3.94816   3.96269   4.02407   4.03798   4.14298
  Beta virt. eigenvalues --    4.21390   5.11529
          Condensed to atoms (all electrons):
               1          2          3          4          5          6
     1  C    9.320586  -3.531183   1.669907   0.307539   0.753662   0.212192
     2  C   -3.531183  10.614649  -3.848440  -0.602132  -1.059437  -0.092169
     3  C    1.669907  -3.848440  13.464433   0.229251   0.049404  -0.353727
     4  O    0.307539  -0.602132   0.229251   8.664658  -0.083073   0.006165
     5  H    0.753662  -1.059437   0.049404  -0.083073   2.258770   0.066034
     6  O    0.212192  -0.092169  -0.353727   0.006165   0.066034   9.529343
     7  H   -0.071697   0.391848  -1.006278  -0.029840   0.054890  -0.143457
     8  N   -0.091648   0.209292  -0.248713   0.012390  -0.211721  -0.005102
     9  C   -2.368402   2.262419  -3.242380  -0.096794  -0.123311  -0.404319
    10  H   -0.705610   0.407934  -0.010745  -0.024195  -0.220625   0.062179
    11  O   -0.383218   0.118364  -0.008277  -0.031998   0.029385  -0.024588
    12  C   -0.018866  -0.094275   0.079711   0.010144  -0.000531   0.023882
    13  H    0.294692  -0.117758   0.249634   0.003328  -0.023460  -0.143683
    14  O   -0.114742   0.052776  -0.025232  -0.000799  -0.004473  -0.025409
    15  H    0.055526   0.012747   0.014495   0.000653   0.003153   0.113804
    16  H   -0.044440  -0.010580   0.003530   0.000268  -0.001214  -0.071040
    17  H   -0.089735  -0.024872  -0.000957  -0.002514   0.010820   0.016262
    18  H   -0.185434   0.216964  -0.023770   0.292442  -0.099646  -0.002276
    19  H   -0.042465   0.024855  -0.032634  -0.000923  -0.003143   0.028996
    20  C   -0.001473   0.012806  -1.327015   0.013129  -0.089891  -0.077062
    21  C    0.024008  -0.129529   0.034133   0.007418   0.014238   0.003794
    22  C   -0.031575   0.050693  -0.100637  -0.000366  -0.007152  -0.010497
    23  N   -0.049765   0.045231   0.050302  -0.000150  -0.010162  -0.009705
    24  C    0.088758   0.030734  -0.725832  -0.001854   0.099270   0.150689
    25  H   -0.032720   0.114357  -0.083870  -0.007320   0.007643   0.059854
    26  H    0.000764  -0.004705   0.103671   0.000371  -0.000739  -0.003115
    27  O    0.000563   0.000966  -0.009212   0.000011  -0.000316   0.000449
    28  O    0.023394   0.055047  -0.090745  -0.000707   0.067164  -0.005718
               7          8          9         10         11         12
     1  C   -0.071697  -0.091648  -2.368402  -0.705610  -0.383218  -0.018866
     2  C    0.391848   0.209292   2.262419   0.407934   0.118364  -0.094275
     3  C   -1.006278  -0.248713  -3.242380  -0.010745  -0.008277   0.079711
     4  O   -0.029840   0.012390  -0.096794  -0.024195  -0.031998   0.010144
     5  H    0.054890  -0.211721  -0.123311  -0.220625   0.029385  -0.000531
     6  O   -0.143457  -0.005102  -0.404319   0.062179  -0.024588   0.023882
     7  H    2.045868  -0.060822   0.199129  -0.008590   0.001704  -0.030994
     8  N   -0.060822   7.822802   0.102449   0.002926   0.000050   0.031612
     9  C    0.199129   0.102449  10.283924  -0.370447   0.247825  -0.219375
    10  H   -0.008590   0.002926  -0.370447   2.486785  -0.258198  -0.020003
    11  O    0.001704   0.000050   0.247825  -0.258198   8.660291  -0.003240
    12  C   -0.030994   0.031612  -0.219375  -0.020003  -0.003240   4.865275
    13  H    0.009479   0.018334  -1.006706   0.087516  -0.059859   0.013657
    14  O   -0.000879   0.017019   0.051707   0.038990   0.004512   0.069365
    15  H   -0.000348  -0.004827  -0.147598  -0.025931   0.008492   0.134348
    16  H   -0.000106   0.009673   0.245866   0.027099  -0.000429   0.084676
    17  H   -0.004927  -0.003782  -0.025683   0.043356   0.283577   0.006038
    18  H   -0.006303  -0.004799   0.019130   0.022597  -0.009468  -0.001446
    19  H    0.001702  -0.018714   0.046563   0.003633  -0.001887  -0.057303
    20  C    0.151247   0.174291  -0.156359  -0.011698   0.005975   0.004350
    21  C    0.006295  -0.520168  -0.043793   0.003482   0.000460  -0.006991
    22  C    0.016281  -0.003503   0.019411  -0.003088  -0.000284   0.001474
    23  N   -0.004986   0.001200  -0.001234  -0.005019   0.000566   0.011908
    24  C    0.032685  -0.187760   0.135870   0.043697  -0.015661  -0.058623
    25  H   -0.223838  -0.129972   0.024605  -0.003362   0.000654   0.010768
    26  H    0.000571   0.107571   0.000870   0.000221  -0.000032   0.000038
    27  O   -0.000478  -0.020777  -0.000247   0.000396   0.000001  -0.000067
    28  O    0.023116  -0.182277   0.028992  -0.062756   0.008859   0.010960
              13         14         15         16         17         18
     1  C    0.294692  -0.114742   0.055526  -0.044440  -0.089735  -0.185434
     2  C   -0.117758   0.052776   0.012747  -0.010580  -0.024872   0.216964
     3  C    0.249634  -0.025232   0.014495   0.003530  -0.000957  -0.023770
     4  O    0.003328  -0.000799   0.000653   0.000268  -0.002514   0.292442
     5  H   -0.023460  -0.004473   0.003153  -0.001214   0.010820  -0.099646
     6  O   -0.143683  -0.025409   0.113804  -0.071040   0.016262  -0.002276
     7  H    0.009479  -0.000879  -0.000348  -0.000106  -0.004927  -0.006303
     8  N    0.018334   0.017019  -0.004827   0.009673  -0.003782  -0.004799
     9  C   -1.006706   0.051707  -0.147598   0.245866  -0.025683   0.019130
    10  H    0.087516   0.038990  -0.025931   0.027099   0.043356   0.022597
    11  O   -0.059859   0.004512   0.008492  -0.000429   0.283577  -0.009468
    12  C    0.013657   0.069365   0.134348   0.084676   0.006038  -0.001446
    13  H    2.273325   0.022064  -0.126124   0.005549  -0.010674   0.007055
    14  O    0.022064   8.466448  -0.104546  -0.058130  -0.001750   0.000819
    15  H   -0.126124  -0.104546   1.598938  -0.295619   0.008000  -0.001146
    16  H    0.005549  -0.058130  -0.295619   1.336578  -0.002015  -0.000058
    17  H   -0.010674  -0.001750   0.008000  -0.002015   0.712550   0.019270
    18  H    0.007055   0.000819  -0.001146  -0.000058   0.019270   0.649767
    19  H   -0.003831   0.218649   0.004205  -0.024808   0.000438   0.000352
    20  C    0.019997   0.001091  -0.000594   0.003841  -0.003022   0.000718
    21  C   -0.004190   0.001586  -0.000221   0.000377   0.000737  -0.002654
    22  C    0.001350  -0.003793  -0.000546   0.000505  -0.000361   0.000447
    23  N    0.000839   0.000240   0.000705  -0.001031  -0.000252   0.000422
    24  C   -0.007217  -0.018876  -0.017395   0.021844   0.005335  -0.000568
    25  H    0.005117   0.000091   0.000403   0.000150  -0.000130   0.001301
    26  H   -0.000026  -0.000013  -0.000023   0.000084  -0.000009  -0.000098
    27  O   -0.000008   0.000065   0.000004  -0.000033   0.000005   0.000021
    28  O    0.009307  -0.059025   0.006371  -0.005523  -0.001810  -0.000507
              19         20         21         22         23         24
     1  C   -0.042465  -0.001473   0.024008  -0.031575  -0.049765   0.088758
     2  C    0.024855   0.012806  -0.129529   0.050693   0.045231   0.030734
     3  C   -0.032634  -1.327015   0.034133  -0.100637   0.050302  -0.725832
     4  O   -0.000923   0.013129   0.007418  -0.000366  -0.000150  -0.001854
     5  H   -0.003143  -0.089891   0.014238  -0.007152  -0.010162   0.099270
     6  O    0.028996  -0.077062   0.003794  -0.010497  -0.009705   0.150689
     7  H    0.001702   0.151247   0.006295   0.016281  -0.004986   0.032685
     8  N   -0.018714   0.174291  -0.520168  -0.003503   0.001200  -0.187760
     9  C    0.046563  -0.156359  -0.043793   0.019411  -0.001234   0.135870
    10  H    0.003633  -0.011698   0.003482  -0.003088  -0.005019   0.043697
    11  O   -0.001887   0.005975   0.000460  -0.000284   0.000566  -0.015661
    12  C   -0.057303   0.004350  -0.006991   0.001474   0.011908  -0.058623
    13  H   -0.003831   0.019997  -0.004190   0.001350   0.000839  -0.007217
    14  O    0.218649   0.001091   0.001586  -0.003793   0.000240  -0.018876
    15  H    0.004205  -0.000594  -0.000221  -0.000546   0.000705  -0.017395
    16  H   -0.024808   0.003841   0.000377   0.000505  -0.001031   0.021844
    17  H    0.000438  -0.003022   0.000737  -0.000361  -0.000252   0.005335
    18  H    0.000352   0.000718  -0.002654   0.000447   0.000422  -0.000568
    19  H    0.585591  -0.019800   0.006239   0.001225   0.008704   0.003550
    20  C   -0.019800   9.185879  -1.609930   0.283079  -0.016817  -1.259047
    21  C    0.006239  -1.609930   8.648637  -1.558760   0.193695   0.846008
    22  C    0.001225   0.283079  -1.558760   7.866953   0.004311  -1.063346
    23  N    0.008704  -0.016817   0.193695   0.004311   7.851763  -0.298081
    24  C    0.003550  -1.259047   0.846008  -1.063346  -0.298081   7.456690
    25  H   -0.000140  -0.349388  -0.092434  -0.097811   0.016030   0.072380
    26  H    0.000303   0.428835  -0.655686  -0.003534  -0.058161  -0.144788
    27  O   -0.000624   0.003238  -0.097929   0.078851  -0.096010   0.106133
    28  O    0.045832  -0.009538  -0.037977   0.021700  -0.189390   0.258617
              25         26         27         28
     1  C   -0.032720   0.000764   0.000563   0.023394
     2  C    0.114357  -0.004705   0.000966   0.055047
     3  C   -0.083870   0.103671  -0.009212  -0.090745
     4  O   -0.007320   0.000371   0.000011  -0.000707
     5  H    0.007643  -0.000739  -0.000316   0.067164
     6  O    0.059854  -0.003115   0.000449  -0.005718
     7  H   -0.223838   0.000571  -0.000478   0.023116
     8  N   -0.129972   0.107571  -0.020777  -0.182277
     9  C    0.024605   0.000870  -0.000247   0.028992
    10  H   -0.003362   0.000221   0.000396  -0.062756
    11  O    0.000654  -0.000032   0.000001   0.008859
    12  C    0.010768   0.000038  -0.000067   0.010960
    13  H    0.005117  -0.000026  -0.000008   0.009307
    14  O    0.000091  -0.000013   0.000065  -0.059025
    15  H    0.000403  -0.000023   0.000004   0.006371
    16  H    0.000150   0.000084  -0.000033  -0.005523
    17  H   -0.000130  -0.000009   0.000005  -0.001810
    18  H    0.001301  -0.000098   0.000021  -0.000507
    19  H   -0.000140   0.000303  -0.000624   0.045832
    20  C   -0.349388   0.428835   0.003238  -0.009538
    21  C   -0.092434  -0.655686  -0.097929  -0.037977
    22  C   -0.097811  -0.003534   0.078851   0.021700
    23  N    0.016030  -0.058161  -0.096010  -0.189390
    24  C    0.072380  -0.144788   0.106133   0.258617
    25  H    2.613957  -0.161643   0.000681   0.001515
    26  H   -0.161643   1.913367  -0.022713   0.002589
    27  O    0.000681  -0.022713   8.620838  -0.004772
    28  O    0.001515   0.002589  -0.004772   8.834643
          Atomic-Atomic Spin Densities.
               1          2          3          4          5          6
     1  C    0.022092  -0.002338  -0.007120   0.000498   0.002680   0.002651
     2  C   -0.002338   0.002623   0.003724   0.000330  -0.001048  -0.001540
     3  C   -0.007120   0.003724   0.001496  -0.001054  -0.000244  -0.001307
     4  O    0.000498   0.000330  -0.001054   0.001861   0.001270  -0.000053
     5  H    0.002680  -0.001048  -0.000244   0.001270  -0.000146   0.000791
     6  O    0.002651  -0.001540  -0.001307  -0.000053   0.000791   0.038557
     7  H   -0.000079  -0.001956   0.008870   0.000290   0.001102  -0.000221
     8  N   -0.000839  -0.001290  -0.068796   0.000522   0.001786  -0.010503
     9  C   -0.001663  -0.001968  -0.005644   0.000168  -0.002499  -0.005820
    10  H    0.000646   0.000409  -0.000908   0.000019  -0.000104   0.000420
    11  O   -0.003932   0.001727  -0.000465  -0.000072  -0.000521  -0.000161
    12  C   -0.000097  -0.003139   0.005611  -0.000009   0.000202  -0.000897
    13  H   -0.000773   0.000243   0.000116  -0.000094   0.000115   0.001136
    14  O   -0.000047   0.000184  -0.002226   0.000015  -0.000208  -0.000151
    15  H   -0.000267   0.000152  -0.000107  -0.000013   0.000094  -0.000037
    16  H   -0.000361   0.000046   0.000923  -0.000002   0.000067   0.000160
    17  H   -0.000361   0.000218  -0.000725   0.000093  -0.000268   0.000145
    18  H   -0.001259  -0.000155  -0.000202  -0.000468  -0.000722   0.000058
    19  H    0.000005   0.000423  -0.001130  -0.000047  -0.000416  -0.000865
    20  C   -0.002895   0.017573  -0.023204  -0.001584  -0.003064   0.003323
    21  C   -0.001838   0.006256   0.022222  -0.000040   0.000343   0.001557
    22  C    0.001243  -0.000797   0.010102  -0.000083  -0.000479  -0.001220
    23  N    0.000321  -0.000545   0.010040  -0.000090  -0.000296   0.000013
    24  C    0.001933  -0.002914   0.012307   0.000217   0.004312   0.004215
    25  H   -0.000549   0.005326  -0.009828  -0.000084  -0.000143   0.002228
    26  H    0.000108  -0.000937  -0.004638   0.000011  -0.000159  -0.000220
    27  O   -0.000049  -0.000182  -0.000852   0.000005   0.000203   0.000006
    28  O    0.000797  -0.001880   0.002380   0.000197  -0.000836  -0.000427
               7          8          9         10         11         12
     1  C   -0.000079  -0.000839  -0.001663   0.000646  -0.003932  -0.000097
     2  C   -0.001956  -0.001290  -0.001968   0.000409   0.001727  -0.003139
     3  C    0.008870  -0.068796  -0.005644  -0.000908  -0.000465   0.005611
     4  O    0.000290   0.000522   0.000168   0.000019  -0.000072  -0.000009
     5  H    0.001102   0.001786  -0.002499  -0.000104  -0.000521   0.000202
     6  O   -0.000221  -0.010503  -0.005820   0.000420  -0.000161  -0.000897
     7  H    0.002714  -0.003303  -0.002984  -0.000200   0.000010   0.000440
     8  N   -0.003303   0.364267   0.009294  -0.000218   0.000164  -0.000879
     9  C   -0.002984   0.009294   0.014741  -0.001444   0.000900  -0.006237
    10  H   -0.000200  -0.000218  -0.001444  -0.000396   0.000288   0.000205
    11  O    0.000010   0.000164   0.000900   0.000288   0.005062   0.000183
    12  C    0.000440  -0.000879  -0.006237   0.000205   0.000183   0.000814
    13  H    0.000066  -0.000133  -0.004230   0.000273   0.000551   0.001263
    14  O   -0.000071   0.001698   0.000153   0.000051   0.000029   0.000121
    15  H    0.000032  -0.000251   0.000339   0.000007  -0.000023   0.000277
    16  H    0.000083  -0.000536  -0.001118  -0.000036   0.000072  -0.000017
    17  H   -0.000088   0.000188   0.000362  -0.000164   0.000012  -0.000064
    18  H   -0.000404   0.000218   0.000695  -0.000019   0.000432  -0.000039
    19  H   -0.000314   0.002600   0.001395   0.000050  -0.000043  -0.000242
    20  C   -0.001464   0.000276   0.009422   0.000142  -0.000002   0.000712
    21  C    0.001560   0.010438   0.002263  -0.000338   0.000009   0.000443
    22  C   -0.000660   0.010490  -0.000330   0.000272  -0.000013   0.000121
    23  N    0.000806  -0.013098  -0.002540   0.000008   0.000011   0.000622
    24  C   -0.001860  -0.023014  -0.004674   0.000356  -0.000099   0.000576
    25  H   -0.000572   0.009811   0.001953   0.000035   0.000008   0.000019
    26  H    0.000402  -0.013212  -0.000289   0.000023   0.000000  -0.000012
    27  O    0.000012   0.000573   0.000052  -0.000016  -0.000000  -0.000020
    28  O    0.000420   0.000640  -0.001083   0.000429  -0.000066  -0.000679
              13         14         15         16         17         18
     1  C   -0.000773  -0.000047  -0.000267  -0.000361  -0.000361  -0.001259
     2  C    0.000243   0.000184   0.000152   0.000046   0.000218  -0.000155
     3  C    0.000116  -0.002226  -0.000107   0.000923  -0.000725  -0.000202
     4  O   -0.000094   0.000015  -0.000013  -0.000002   0.000093  -0.000468
     5  H    0.000115  -0.000208   0.000094   0.000067  -0.000268  -0.000722
     6  O    0.001136  -0.000151  -0.000037   0.000160   0.000145   0.000058
     7  H    0.000066  -0.000071   0.000032   0.000083  -0.000088  -0.000404
     8  N   -0.000133   0.001698  -0.000251  -0.000536   0.000188   0.000218
     9  C   -0.004230   0.000153   0.000339  -0.001118   0.000362   0.000695
    10  H    0.000273   0.000051   0.000007  -0.000036  -0.000164  -0.000019
    11  O    0.000551   0.000029  -0.000023   0.000072   0.000012   0.000432
    12  C    0.001263   0.000121   0.000277  -0.000017  -0.000064  -0.000039
    13  H    0.004802   0.000079  -0.000068   0.000350  -0.000292  -0.000041
    14  O    0.000079   0.002693  -0.000075  -0.000200  -0.000004   0.000013
    15  H   -0.000068  -0.000075  -0.000071   0.000007  -0.000020  -0.000019
    16  H    0.000350  -0.000200   0.000007   0.000765  -0.000014  -0.000016
    17  H   -0.000292  -0.000004  -0.000020  -0.000014   0.000481   0.000429
    18  H   -0.000041   0.000013  -0.000019  -0.000016   0.000429   0.001990
    19  H   -0.000117   0.000580   0.000027  -0.000252   0.000057   0.000081
    20  C    0.000232   0.000463  -0.000067  -0.000143   0.000014   0.000493
    21  C   -0.000016  -0.000061   0.000023   0.000005  -0.000004   0.000046
    22  C    0.000010   0.000046   0.000004   0.000050   0.000013   0.000007
    23  N   -0.000082  -0.000342   0.000026   0.000100   0.000011   0.000008
    24  C    0.000262  -0.001564   0.000171   0.000300  -0.000059  -0.000421
    25  H    0.000104   0.000019  -0.000003  -0.000011  -0.000011   0.000078
    26  H   -0.000010   0.000002  -0.000001   0.000001   0.000002  -0.000004
    27  O    0.000002   0.000009  -0.000001  -0.000002  -0.000000  -0.000006
    28  O    0.000019   0.001177  -0.000056  -0.000000  -0.000032  -0.000075
              19         20         21         22         23         24
     1  C    0.000005  -0.002895  -0.001838   0.001243   0.000321   0.001933
     2  C    0.000423   0.017573   0.006256  -0.000797  -0.000545  -0.002914
     3  C   -0.001130  -0.023204   0.022222   0.010102   0.010040   0.012307
     4  O   -0.000047  -0.001584  -0.000040  -0.000083  -0.000090   0.000217
     5  H   -0.000416  -0.003064   0.000343  -0.000479  -0.000296   0.004312
     6  O   -0.000865   0.003323   0.001557  -0.001220   0.000013   0.004215
     7  H   -0.000314  -0.001464   0.001560  -0.000660   0.000806  -0.001860
     8  N    0.002600   0.000276   0.010438   0.010490  -0.013098  -0.023014
     9  C    0.001395   0.009422   0.002263  -0.000330  -0.002540  -0.004674
    10  H    0.000050   0.000142  -0.000338   0.000272   0.000008   0.000356
    11  O   -0.000043  -0.000002   0.000009  -0.000013   0.000011  -0.000099
    12  C   -0.000242   0.000712   0.000443   0.000121   0.000622   0.000576
    13  H   -0.000117   0.000232  -0.000016   0.000010  -0.000082   0.000262
    14  O    0.000580   0.000463  -0.000061   0.000046  -0.000342  -0.001564
    15  H    0.000027  -0.000067   0.000023   0.000004   0.000026   0.000171
    16  H   -0.000252  -0.000143   0.000005   0.000050   0.000100   0.000300
    17  H    0.000057   0.000014  -0.000004   0.000013   0.000011  -0.000059
    18  H    0.000081   0.000493   0.000046   0.000007   0.000008  -0.000421
    19  H    0.000701   0.000690   0.000013  -0.000399  -0.000695  -0.001772
    20  C    0.000690  -0.244365   0.057391   0.025740   0.008325   0.015920
    21  C    0.000013   0.057391   0.178588   0.128273  -0.008034  -0.028212
    22  C   -0.000399   0.025740   0.128273  -0.485648   0.015544   0.059941
    23  N   -0.000695   0.008325  -0.008034   0.015544   0.317222  -0.018927
    24  C   -0.001772   0.015920  -0.028212   0.059941  -0.018927  -0.121154
    25  H    0.000139  -0.000877  -0.011455  -0.002932  -0.001263   0.003444
    26  H   -0.000032  -0.036587   0.071530   0.016134   0.001861   0.005926
    27  O    0.000099  -0.005763  -0.026068  -0.005026  -0.014802  -0.005035
    28  O   -0.000930   0.000013   0.001741  -0.002584  -0.000841   0.025140
              25         26         27         28
     1  C   -0.000549   0.000108  -0.000049   0.000797
     2  C    0.005326  -0.000937  -0.000182  -0.001880
     3  C   -0.009828  -0.004638  -0.000852   0.002380
     4  O   -0.000084   0.000011   0.000005   0.000197
     5  H   -0.000143  -0.000159   0.000203  -0.000836
     6  O    0.002228  -0.000220   0.000006  -0.000427
     7  H   -0.000572   0.000402   0.000012   0.000420
     8  N    0.009811  -0.013212   0.000573   0.000640
     9  C    0.001953  -0.000289   0.000052  -0.001083
    10  H    0.000035   0.000023  -0.000016   0.000429
    11  O    0.000008   0.000000  -0.000000  -0.000066
    12  C    0.000019  -0.000012  -0.000020  -0.000679
    13  H    0.000104  -0.000010   0.000002   0.000019
    14  O    0.000019   0.000002   0.000009   0.001177
    15  H   -0.000003  -0.000001  -0.000001  -0.000056
    16  H   -0.000011   0.000001  -0.000002  -0.000000
    17  H   -0.000011   0.000002  -0.000000  -0.000032
    18  H    0.000078  -0.000004  -0.000006  -0.000075
    19  H    0.000139  -0.000032   0.000099  -0.000930
    20  C   -0.000877  -0.036587  -0.005763   0.000013
    21  C   -0.011455   0.071530  -0.026068   0.001741
    22  C   -0.002932   0.016134  -0.005026  -0.002584
    23  N   -0.001263   0.001861  -0.014802  -0.000841
    24  C    0.003444   0.005926  -0.005035   0.025140
    25  H    0.013510  -0.001305   0.000108  -0.000252
    26  H   -0.001305  -0.047651  -0.004047  -0.000172
    27  O    0.000108  -0.004047   0.578402  -0.000142
    28  O   -0.000252  -0.000172  -0.000142  -0.048801
 Mulliken charges and spin densities:
               1          2
     1  C    1.011380   0.008506
     2  C    0.893401   0.018547
     3  C    1.189993  -0.050660
     4  O   -0.665104   0.001800
     5  H   -0.475540   0.001815
     6  O   -0.901777   0.031839
     7  H   -0.341272   0.002630
     8  N    0.184974   0.276892
     9  C    0.537887  -0.000785
    10  H   -0.500543  -0.000211
    11  O   -0.573578   0.004059
    12  C    1.153508  -0.000723
    13  H   -0.517708   0.003769
    14  O   -0.527755   0.002379
    15  H   -0.236927   0.000079
    16  H   -0.225013   0.000222
    17  H    0.066105  -0.000084
    18  H    0.106867   0.000698
    19  H    0.225437  -0.000395
    20  C    0.643156  -0.179285
    21  C    0.969153   0.406635
    22  C    0.538972  -0.232180
    23  N   -0.445154   0.293362
    24  C    0.446788  -0.074687
    25  H   -0.746877   0.007496
    26  H   -0.503971  -0.013278
    27  O   -0.559038   0.517460
    28  O   -0.747363  -0.025902
 Sum of Mulliken charges =  -0.00000   1.00000
 Mulliken charges and spin densities with hydrogens summed into heavy atoms:
               1          2
     1  C    0.510838   0.008295
     2  C    0.417861   0.020362
     3  C    0.848721  -0.048029
     4  O   -0.558237   0.002498
     6  O   -0.901777   0.031839
     8  N    0.184974   0.276892
     9  C    0.020178   0.002984
    11  O   -0.507473   0.003975
    12  C    0.691567  -0.000422
    14  O   -0.302317   0.001985
    20  C   -0.103721  -0.171789
    21  C    0.465182   0.393358
    22  C    0.538972  -0.232180
    23  N   -0.445154   0.293362
    24  C    0.446788  -0.074687
    27  O   -0.559038   0.517460
    28  O   -0.747363  -0.025902
 Electronic spatial extent (au):  <R**2>=           4000.4732
 Charge=             -0.0000 electrons
 Dipole moment (field-independent basis, Debye):
    X=              0.2874    Y=             -7.2598    Z=              3.6549  Tot=              8.1330
 Quadrupole moment (field-independent basis, Debye-Ang):
   XX=           -104.2419   YY=           -104.8287   ZZ=            -97.7328
   XY=              4.0424   XZ=             -5.5705   YZ=              3.8162
 Traceless Quadrupole moment (field-independent basis, Debye-Ang):
   XX=             -1.9741   YY=             -2.5609   ZZ=              4.5350
   XY=              4.0424   XZ=             -5.5705   YZ=              3.8162
 Octapole moment (field-independent basis, Debye-Ang**2):
  XXX=             78.9770  YYY=            -34.9391  ZZZ=             -3.9668  XYY=             -0.1191
  XXY=            -50.1229  XXZ=             48.9676  XZZ=              2.6466  YZZ=            -15.1085
  YYZ=              5.6551  XYZ=              9.1165
 Hexadecapole moment (field-independent basis, Debye-Ang**3):
 XXXX=          -3915.5108 YYYY=          -1172.6754 ZZZZ=           -471.4777 XXXY=             65.4104
 XXXZ=            -44.3181 YYYX=            -71.7032 YYYZ=             29.9424 ZZZX=            -15.3724
 ZZZY=              8.8075 XXYY=           -725.4278 XXZZ=           -669.2364 YYZZ=           -228.4142
 XXYZ=             21.0199 YYXZ=            -39.4872 ZZXY=              7.6456
 N-N= 1.321295635052D+03 E-N=-4.772089463592D+03  KE= 9.046033502829D+02
                          Isotropic Fermi Contact Couplings
        Atom                 a.u.       MegaHertz       Gauss      10(-4) cm-1
     1  C(13)             -0.00005      -0.06108      -0.02180      -0.02037
     2  C(13)              0.00713       8.01354       2.85943       2.67303
     3  C(13)             -0.00855      -9.61396      -3.43050      -3.20687
     4  O(17)              0.00184      -1.11769      -0.39882      -0.37282
     5  H(1)               0.00011       0.50180       0.17906       0.16738
     6  O(17)              0.01014      -6.14472      -2.19259      -2.04966
     7  H(1)               0.00079       3.52373       1.25735       1.17539
     8  N(14)              0.06039      19.51228       6.96247       6.50860
     9  C(13)             -0.00084      -0.94428      -0.33694      -0.31498
    10  H(1)              -0.00003      -0.14067      -0.05019      -0.04692
    11  O(17)              0.00057      -0.34266      -0.12227      -0.11430
    12  C(13)             -0.00031      -0.34295      -0.12237      -0.11440
    13  H(1)               0.00142       6.35721       2.26841       2.12054
    14  O(17)              0.00014      -0.08453      -0.03016      -0.02820
    15  H(1)               0.00005       0.23433       0.08362       0.07817
    16  H(1)               0.00009       0.38308       0.13669       0.12778
    17  H(1)              -0.00003      -0.13730      -0.04899      -0.04580
    18  H(1)               0.00024       1.06828       0.38119       0.35634
[...]
 ,-0.00006110,0.00001315,-0.00006659,-0.00085558,-0.00038828,-0.0005470
 0,-0.03060798,0.04330766,-0.09692314,-0.05601904,-0.27052682,0.3545380
 3,0.00707230,0.00708547,0.00083633,-0.00473887,-0.01518747,-0.01006010
 ,0.01714911,-0.00905009,0.01814419,-0.00384794,0.00637419,0.00260543,0
 .00138329,0.00098239,-0.00188833,-0.02132279,-0.00613657,-0.00347025,0
 .00126357,0.00206483,0.00023534,-0.02376250,-0.00932401,0.01493332,0.0
 0809383,0.00591906,-0.00687856,-0.00071554,-0.00032845,-0.00007925,-0.
 00915711,0.00027154,0.00142374,-0.00130493,0.00241705,-0.00076748,-0.0
 0380161,-0.00056554,0.00104264,0.00130669,-0.00351231,0.00110095,-0.00
 022302,-0.00072408,0.00040249,0.00031295,-0.00010304,-0.00004534,0.001
 82682,-0.00061121,0.00041873,-0.00053621,-0.00086405,-0.00135864,-0.00
 104751,0.00242588,-0.00123507,0.02021839,-0.06138009,0.00412879,-0.022
 10547,0.02455531,0.00656316,0.25049642,-0.00010327,-0.00006041,-0.0001
 5579,-0.00014049,0.00017438,-0.00004801,0.00483293,-0.00262969,-0.0002
 9053,-0.00031576,-0.00001024,0.00019378,0.00001538,0.00013649,-0.00019
 435,-0.00259314,-0.00072884,-0.00060846,0.00007284,0.00055580,-0.00022
 389,-0.01468918,-0.01384765,0.00765193,0.00081708,0.00015972,-0.000603
 67,-0.00005005,0.00002477,0.00001498,-0.00020112,-0.00002871,0.0001621
 8,-0.00012973,0.00033566,-0.00011417,-0.00025868,0.00004384,0.00007269
 ,0.00039113,-0.00030912,0.00017751,-0.00002550,-0.00008878,0.00000947,
 0.00000786,-0.00000841,0.00000146,0.00008879,-0.00000598,-0.00002109,0
 .00005657,0.00003063,-0.00000823,-0.00056599,0.00022235,-0.00018064,0.
 03359862,-0.00385931,0.02030305,0.02704332,-0.16742467,0.08509718,0.01
 142143,0.36560892,-0.00004696,-0.00082870,0.00013849,0.00103016,0.0002
 7756,0.00142747,-0.00685862,0.00289063,-0.00140431,0.00038199,0.000053
 34,-0.00068338,-0.00010014,-0.00035246,0.00006195,0.00381489,0.0020541
 3,-0.00030614,-0.00034840,-0.00011434,0.00024449,0.02098061,0.02153649
 ,-0.02690671,-0.00126067,-0.00042057,0.00110280,0.00033741,0.00012221,
 -0.00012637,0.00054231,0.00025117,-0.00036073,0.00067523,-0.00061324,0
 .00064539,0.00035805,0.00006572,-0.00011930,-0.00090723,0.00032690,-0.
 00076036,-0.00004770,0.00018017,-0.00009277,-0.00007599,0.00000892,-0.
 00014842,-0.00020472,0.00003104,-0.00000090,0.00006175,-0.00007470,0.0
 0009821,0.00117517,0.00030628,0.00082120,-0.05307345,0.00336511,-0.001
 80243,0.00124466,0.08649685,-0.15116301,-0.02737738,-0.20799624,0.3938
 9578,-0.00194862,-0.00449063,0.00027889,0.00399368,0.00491780,0.005380
 08,-0.00680261,0.00510483,-0.01190985,0.00120835,-0.00099744,-0.001674
 32,-0.00069107,-0.00128309,0.00063185,0.00959143,0.00382159,-0.0002745
 6,-0.00226072,-0.00000640,-0.00054849,0.00595041,0.05319244,-0.0528958
 9,-0.00249332,-0.00261658,0.00355772,0.00124598,0.00041369,-0.00048298
 ,0.00305557,0.00087438,-0.00090089,0.00196643,-0.00228423,0.00228775,0
 .00146732,0.00051971,-0.00064978,-0.00397864,0.00062534,-0.00279112,-0
 .00025358,0.00050559,-0.00037305,-0.00022753,0.00012927,-0.00046757,-0
 .00081988,0.00020270,-0.00019091,0.00034337,0.00003501,0.00047627,0.00
 480192,0.00258129,0.00346061,-0.07102423,0.02245327,0.00587139,0.01229
 205,-0.03236241,0.02114599,-0.05427551,-0.15289832,0.12925190,0.608369
 75,-0.00006805,-0.00042408,0.00032585,-0.00030768,0.00061798,0.0002924
 2,-0.00397943,-0.00266139,0.00370126,-0.00001547,0.00007344,-0.0002886
 8,-0.00011902,-0.00006239,-0.00034014,0.00159103,0.00109515,0.00074971
 ,0.00144656,-0.00068154,0.00018331,0.02967352,-0.00105664,0.01500902,-
 0.00082214,-0.00036387,0.00058209,0.00002346,0.00002387,-0.00016543,0.
 00029149,0.00012647,-0.00017789,0.00017851,-0.00035579,0.00017504,0.00
 025221,-0.00003660,-0.00010164,-0.00041358,0.00046385,-0.00023934,0.00
 000904,0.00008314,-0.00001600,0.00000849,-0.00000318,-0.00001854,-0.00
 011130,0.00006866,0.00002591,-0.00006374,0.00003127,-0.00005130,0.0004
 8834,-0.00037746,0.00021833,-0.00308330,0.00041199,-0.00304964,-0.0268
 2513,-0.00740314,0.02928716,-0.05619628,-0.16505375,0.11350932,0.08105
 554,0.23989778,0.00100036,0.00066156,-0.00004755,-0.00025391,-0.001352
 11,-0.00181515,0.00604378,0.00460570,0.00075199,-0.00092437,0.00102949
 ,0.00070001,0.00002463,0.00021393,-0.00031769,-0.00265689,-0.00195093,
 0.00023795,-0.00161563,0.00055817,-0.00060494,-0.03028558,0.01636764,0
 .00011157,0.00164667,0.00080077,-0.00101696,-0.00015573,-0.00006765,-0
 .00001798,-0.00131086,0.00005658,0.00036406,-0.00023079,0.00040058,-0.
 00009886,-0.00054538,-0.00000377,0.00011636,0.00019647,-0.00036664,0.0
 0025791,-0.00007476,-0.00012844,0.00005153,0.00007649,-0.00000778,-0.0
 0000126,0.00033901,-0.00006590,0.00004054,-0.00008262,-0.00008201,-0.0
 0017038,0.00002517,0.00006564,-0.00028956,-0.00041875,-0.01395699,0.00
 915526,0.03821824,0.03258015,-0.00622541,0.00349391,0.08181749,-0.1557
 6925,-0.06361918,-0.16456455,0.21036800,-0.00241813,0.00328544,-0.0002
 6609,-0.00437378,0.00217303,-0.00475519,0.00438629,0.03309893,-0.01935
 659,0.00142551,-0.00362727,0.00233630,-0.00058793,0.00321785,0.0020959
 9,-0.00166568,-0.00862265,0.00338179,-0.00552424,0.00018818,0.00047034
 ,-0.15245330,-0.00662431,0.01273028,-0.00132583,0.00098834,-0.00270041
 ,-0.00182652,-0.00055944,0.00073970,0.00101535,-0.00181353,0.00053493,
 -0.00299926,0.00270116,-0.00391003,0.00010477,-0.00045623,0.00062294,0
 .00730852,0.00080874,0.00393818,0.00070743,-0.00048422,0.00044495,0.00
 012808,-0.00013278,0.00091180,0.00019129,0.00007629,0.00000742,-0.0003
 7465,0.00055778,0.00039665,-0.01124706,-0.00659179,-0.00419831,0.07370
 353,-0.00544939,-0.00510829,-0.03868639,0.02187433,-0.01968218,-0.0609
 0887,-0.00561832,0.02076480,-0.24305861,0.03522176,-0.02660615,0.83883
 416,-0.00277369,0.00036422,-0.00146059,-0.00020090,0.00375265,0.000431
 94,0.02129031,0.00281297,0.00128834,0.00079439,-0.00325082,0.00083137,
 0.00074490,0.00065757,0.00059961,0.00014296,-0.00552282,0.00159275,-0.
 00242258,0.00142053,0.00042671,0.03897661,-0.11193673,0.02929926,-0.00
 129595,-0.00080263,-0.00055130,-0.00121124,-0.00033359,0.00069616,0.00
 212703,-0.00151678,0.00061286,-0.00197795,0.00171215,-0.00248276,0.000
 59919,-0.00001499,0.00016210,0.00448736,0.00079065,0.00228728,0.000430
 44,-0.00028765,0.00017182,-0.00002986,-0.00011595,0.00054398,0.0000227
 1,0.00011335,-0.00008349,0.00023494,0.00066032,0.00057159,-0.00657425,
 -0.00436311,-0.00184366,-0.06100291,0.00272453,0.01596420,0.00986098,-
 0.02336390,0.01298495,0.07273106,0.01402497,-0.04098537,0.01872897,-0.
 09242837,0.04039411,0.16529366,0.42522051,0.00143216,-0.00077954,0.001
 11520,0.00176752,-0.00218232,0.00238724,-0.02197471,-0.00177025,-0.000
 97971,-0.00030696,0.00154208,-0.00162075,0.00085834,-0.00176073,-0.000
 73984,0.00303871,0.00608875,-0.00191489,0.00329489,-0.00058879,0.00106
 827,-0.02733587,0.02420061,-0.08374908,-0.00172858,-0.00040378,0.00173
 593,0.00063779,0.00033871,-0.00062185,-0.00053782,0.00069899,-0.000856
 80,0.00144150,-0.00150728,0.00179339,0.00039047,-0.00002826,-0.0002448
 3,-0.00429679,-0.00107691,-0.00258140,-0.00023028,0.00041492,-0.000280
 08,-0.00012973,0.00000479,-0.00045696,-0.00018663,0.00010348,0.0001272
 7,0.00011579,-0.00035042,-0.00026332,0.00532588,0.00359072,0.00335825,
 0.06313572,0.01743459,-0.03010252,-0.03426371,0.01409426,-0.01365506,0
 .02771701,0.00783952,0.00462925,-0.04310758,0.01102364,-0.08255518,-0.
 14869075,-0.18673704,0.36611471,-0.00030477,-0.00032505,-0.00000518,-0
 .00011467,0.00063892,0.00035959,-0.00081192,-0.00391832,0.00191338,0.0
 0023748,-0.00025077,-0.00025399,0.00001572,-0.00009217,-0.00005570,0.0
 0132945,0.00155338,0.00045435,-0.00066462,0.00040659,-0.00015850,0.008
 72271,-0.01975409,0.01698927,-0.00075663,-0.00035436,0.00044624,0.0000
 4909,0.00001085,-0.00001605,0.00046483,0.00000901,-0.00011346,0.000132
 39,-0.00018458,0.00007799,0.00020046,-0.00000046,-0.00005397,-0.000129
 48,0.00020637,-0.00012374,0.00000850,0.00005406,-0.00003169,-0.0000296
 7,0.00000469,-0.00000899,-0.00012516,0.00002727,-0.00000590,0.00002173
 ,0.00005159,0.00003713,0.00012504,-0.00006952,0.00014973,-0.08382540,0
 .06877985,-0.05904061,-0.00313224,0.01858396,-0.01733576,0.00690969,0.
 00318124,-0.00076532,-0.00372689,-0.00058163,0.00228650,-0.00488451,-0
 .00354170,0.00043877,0.08515261,0.00000592,-0.00019152,-0.00009435,0.0
 0018721,0.00064320,0.00012739,0.00275908,-0.00142065,-0.00147501,0.000
 01186,-0.00013397,-0.00003688,0.00003361,-0.00005892,-0.00006476,-0.00
 029038,-0.00009288,-0.00032186,-0.00062972,0.00101012,-0.00037614,0.00
 377687,-0.01108448,0.01367968,-0.00016547,0.00002150,-0.00011217,0.000
 05832,0.00003098,-0.00000676,0.00014912,0.00003075,-0.00004729,0.00006
 889,-0.00005377,0.00010802,-0.00003274,0.00000089,0.00001946,-0.000104
 45,0.00001606,-0.00010432,-0.00000495,0.00001412,-0.00001714,-0.000012
 37,-0.00000602,-0.00002963,-0.00003526,0.00000925,-0.00000995,0.000032
 32,0.00002485,0.00002362,0.00012577,0.00007640,0.00012104,0.05808722,-
 0.19725454,0.13853870,-0.00001873,0.00244365,0.00500267,0.00267328,0.0
 0318837,0.00492848,-0.00033755,-0.00044699,-0.00144440,-0.00276504,0.0
 0437578,0.00126619,-0.06261282,0.20185390,-0.00001186,-0.00002661,-0.0
 0010238,0.00030844,0.00021452,0.00025474,-0.00148945,-0.00108239,-0.00
 194325,-0.00006894,-0.00018655,-0.00003254,-0.00005886,0.00002984,0.00
 000167,-0.00050900,-0.00031901,0.00029730,0.00068257,-0.00036529,0.000
 56425,-0.00428760,0.01501852,-0.00830884,0.00009287,-0.00008444,-0.000
 08856,-0.00000246,0.00001000,0.00000777,-0.00000832,-0.00003380,0.0000
 0742,-0.00006607,0.00003695,0.00001342,-0.00003576,-0.00000119,0.00000
 953,0.00002251,-0.00003546,0.00000658,-0.00000127,-0.00002441,0.000003
 68,-0.00000201,-0.00001137,-0.00000975,0.00002579,0.00001014,0.0000075
 5,0.00004747,-0.00002871,0.00001932,-0.00004065,0.00001843,-0.00002839
 ,-0.05356438,0.13898067,-0.16586594,0.00186861,0.00499059,0.00375137,0
 .00032583,0.00084541,0.00771615,-0.00138155,-0.00069270,-0.00209350,0.
 00402614,0.00003202,0.00582344,0.05470919,-0.15684859,0.16533252,0.000
 13219,0.00015584,0.00002778,-0.00019080,-0.00029416,-0.00043402,0.0007
 7655,-0.00072908,0.00130262,-0.00014169,0.00017917,0.00011265,0.000039
 33,0.00003762,-0.00004615,-0.00069877,-0.00029135,-0.00008440,-0.00002
 471,0.00006263,-0.00005173,-0.00393959,0.00323914,-0.00196819,0.000219
 40,0.00013357,-0.00019541,-0.00003109,-0.00001162,0.00000280,-0.000215
 43,-0.00000340,0.00004709,-0.00005899,0.00006797,-0.00003017,-0.000101
 11,-0.00001295,0.00001922,0.00004721,-0.00006944,0.00003558,-0.0000009
 9,-0.00002379,0.00001093,0.00000843,-0.00000606,-0.00000014,0.00004530
 ,-0.00001222,0.00001015,-0.00001636,-0.00000494,-0.00002959,-0.0000355
 6,0.00003247,-0.00004141,-0.01347929,-0.01771875,0.01566441,-0.2253118
 8,-0.10354567,0.11095476,0.00084888,0.00338887,-0.00404949,0.00325851,
 0.00250196,-0.00297062,-0.00028931,0.00251872,-0.00068149,0.00105919,-
 0.00009581,-0.00027153,0.23414680,-0.00029968,-0.00028200,0.00001106,0
 .00006496,0.00067055,0.00040992,-0.00141302,0.00153901,-0.00036824,0.0
 0016973,-0.00030812,-0.00012602,-0.00004197,-0.00005746,0.00007180,0.0
 0166297,0.00048816,0.00016911,0.00005534,-0.00011663,-0.00000361,0.005
 07585,0.00405553,0.00276691,-0.00044323,-0.00024936,0.00044425,0.00004
 029,0.00001478,-0.00000166,0.00039197,-0.00002491,-0.00009281,0.000121
 24,-0.00011557,0.00006794,0.00020326,0.00003120,-0.00004300,-0.0000839
 0,0.00012917,-0.00010017,0.00000715,0.00004716,-0.00002362,-0.00002356
 ,0.00000050,-0.00001008,-0.00008252,0.00003469,-0.00000946,0.00002093,
 0.00004464,0.00005811,0.00005227,-0.00005504,0.00010694,0.00587408,0.0
 0915232,-0.00839256,-0.10718360,-0.10725951,0.08490132,-0.00439834,-0.
 00475967,0.00444954,-0.00439034,-0.00194393,0.00701691,0.00145736,-0.0
 0579113,0.00171979,-0.00114580,-0.00189724,-0.00261242,0.11115014,0.10
 428618,0.00001200,-0.00001807,0.00001922,-0.00020092,0.00009086,-0.000
 12695,-0.00043005,0.00051465,0.00100028,-0.00008522,0.00002951,0.00003
 713,0.00000489,-0.00000748,-0.00002655,0.00032382,0.00004401,-0.000031
 00,-0.00001675,0.00000462,-0.00000178,-0.00166500,0.00359849,0.0038434
 5,0.00001313,0.00000821,0.00005913,0.00000595,-0.00000388,-0.00000202,
 -0.00004427,-0.00000403,-0.00000252,0.00004086,-0.00000323,0.00004592,
 -0.00000096,0.00001073,0.00000019,-0.00005475,-0.00003739,-0.00005328,
 -0.00001009,0.00000489,-0.00000462,-0.00000400,-0.00000388,-0.00001563
 ,0.00001245,0.00000547,0.00000698,0.00000680,0.00002203,0.00000352,0.0
 0006996,0.00008678,0.00005631,-0.00735428,-0.00426516,0.00413875,0.115
 36937,0.08056024,-0.10750127,0.00709160,0.00373906,-0.00656858,0.00203
 784,0.00667598,-0.00207346,-0.00049314,-0.00067071,0.00106914,-0.00002
 647,-0.00256075,-0.00227306,-0.11752940,-0.08679777,0.10918051,-0.0024
 6142,-0.00244880,-0.00022862,0.00124402,0.00557188,0.00309274,-0.00335
 422,0.00252934,-0.00458250,0.00102066,-0.00212053,-0.00073663,-0.00047
 323,-0.00027107,0.00043944,0.00677814,0.00207670,0.00168738,-0.0001073
 9,-0.00077412,-0.00022144,0.00076925,-0.00060019,-0.00286709,-0.002628
 75,-0.00224991,0.00239540,0.00018384,0.00008997,-0.00001591,0.00308661
 ,-0.00013727,-0.00046073,0.00033033,-0.00086888,0.00023838,0.00136263,
 0.00017903,-0.00042759,-0.00047854,0.00124980,-0.00040363,0.00008468,0
 .00022821,-0.00012837,-0.00009252,0.00002984,0.00001777,-0.00059097,0.
 00025982,-0.00011980,0.00017284,0.00034427,0.00045255,0.00042517,-0.00
 081069,0.00045793,0.00291127,0.03603522,-0.01028724,-0.05758752,0.0237
 2806,-0.03477752,-0.13948974,0.08328704,-0.07033148,-0.15837657,-0.030
 95909,0.05434502,0.01049856,-0.04068108,-0.00566766,-0.00461993,-0.000
 24336,-0.00049404,0.00309787,-0.00536843,0.00304053,0.35208951,0.00061
 797,0.00105504,0.00016573,-0.00088923,-0.00152521,-0.00126683,0.001327
 11,-0.00052705,0.00324434,-0.00023385,0.00041909,0.00029380,0.00013282
 ,0.00013295,-0.00004254,-0.00160156,-0.00064413,-0.00001715,0.00033813
 ,-0.00010215,0.00008190,-0.00247559,-0.00734296,0.00787171,0.00051341,
 0.00048746,-0.00052892,-0.00013244,-0.00004471,0.00005723,-0.00081668,
 -0.00010463,0.00009673,-0.00036031,0.00034752,-0.00035791,-0.00025892,
 -0.00011713,0.00008088,0.00052886,-0.00023422,0.00037166,0.00004576,-0
 .00008415,0.00007457,0.00004334,-0.00002547,0.00006725,0.00015478,-0.0
 0004882,0.00005367,-0.00008059,-0.00005524,-0.00012046,-0.00059581,-0.
 00023364,-0.00040268,0.01336300,-0.00874613,-0.00243439,0.02131754,-0.
 00892253,0.02320975,0.03364710,-0.03054227,0.00504846,0.02066865,0.013
 99492,-0.00059733,-0.01803579,0.00840119,-0.00894946,0.00084966,0.0002
 1655,0.00111687,-0.00035035,0.00173154,-0.00071419,-0.07119795,0.03332
 199,-0.00049548,-0.00040707,-0.00012755,0.00042343,0.00098581,0.000655
 30,0.00051866,-0.00074955,-0.00278491,0.00023726,-0.00046448,-0.000088
 85,-0.00009501,-0.00002807,0.00014441,0.00019285,-0.00031132,0.0002290
 4,-0.00016043,-0.00004481,-0.00003994,-0.00234981,-0.00184426,0.001752
 39,-0.00020549,-0.00024209,0.00007008,0.00001381,0.00001693,0.00003452
 ,0.00054776,-0.00003704,-0.00001289,-0.00003770,-0.00006236,-0.0000467
 5,0.00013928,0.00003084,-0.00003051,0.00003283,0.00019203,0.00006182,0
 .00001888,0.00000748,-0.00000781,-0.00000290,0.00000934,0.00002754,-0.
 00009060,0.00002270,-0.00004463,0.00004318,0.00005653,0.00007575,-0.00
 005906,-0.00019995,-0.00005546,0.00367711,0.01322656,0.00016458,-0.037
 29035,0.02377116,-0.00945660,-0.01932268,0.00585529,-0.06993801,-0.007
 36981,-0.01663604,0.01769237,0.00329814,0.00958723,0.00444412,-0.00141
 553,-0.00093869,-0.00165238,0.00022545,-0.00308259,-0.00012891,0.05936
 806,-0.02716114,0.05770473,-0.00036236,-0.00349105,0.00214299,0.002416
 88,0.00102842,0.00386771,-0.01546162,-0.00425597,-0.00350098,-0.000322
 86,0.00234795,-0.00192189,-0.00084912,-0.00094392,-0.00078934,0.004890
 14,0.00965879,-0.00546305,0.00114982,-0.00016936,-0.00079517,0.0180941
 8,-0.02319208,0.01663288,0.00021321,-0.00139644,0.00342994,-0.00035339
 ,0.00185517,-0.00125024,-0.00012558,0.00218468,-0.00148536,0.00285999,
 -0.00299682,0.00377885,0.00043395,0.00042281,-0.00055108,-0.00929284,-
 0.00354810,-0.00597331,-0.00065583,0.00061678,-0.00054452,-0.00026747,
 0.00017748,-0.00089706,-0.00064049,0.00008020,-0.00004143,0.00016632,-
 0.00052007,-0.00020295,0.00515828,0.00460995,0.00325974,-0.01549732,0.
 00533055,0.00173353,0.00315121,-0.01038539,0.00848973,0.03035569,0.009
 38647,-0.01517137,-0.10760699,-0.02919611,0.02405497,-0.40567939,-0.21
 727215,0.17954400,-0.00130300,-0.00062083,0.00018434,0.00085594,-0.001
 47314,-0.00011393,-0.01379459,0.00348095,0.00015816,0.50246726,0.00002
 910,-0.00103588,-0.00022945,-0.00059473,-0.00220308,-0.00002040,-0.008
 45110,-0.00265706,-0.00477893,0.00162781,-0.00014485,0.00046159,0.0012
 6734,-0.00136022,0.00079239,0.00251892,0.00437343,0.00084118,0.0002110
 6,0.00060433,-0.00008456,-0.03708440,-0.04210302,0.05217306,-0.0009291
 7,-0.00061018,0.00054959,0.00126281,-0.00065325,-0.00040399,0.00028751
 ,0.00098895,-0.00001712,0.00217359,-0.00364091,0.00369360,0.00007038,0
 .00034914,-0.00015555,-0.00910789,-0.00108830,-0.00507705,-0.00067396,
 0.00055403,-0.00057578,-0.00021598,0.00038979,-0.00074402,-0.00029997,
 -0.00022242,-0.00014772,-0.00032768,-0.00023651,0.00000940,0.00694840,
 0.00309388,0.00294096,0.01259436,-0.00413797,0.00413344,-0.00237295,0.
 00050960,-0.00110502,-0.00418704,0.00485161,0.00548332,-0.01416307,0.0
 1641059,-0.00198020,-0.21016210,-0.21730293,0.11577375,-0.00152618,-0.
 00131539,0.00104898,-0.00029851,0.00063514,-0.00030897,0.00312219,-0.0
 0080781,-0.00155243,0.25828124,0.24675926,-0.00023919,0.00108756,-0.00
 112226,-0.00094703,-0.00037264,-0.00249019,0.00669778,-0.00350110,-0.0
 0070642,0.00071909,-0.00111945,0.00165444,0.00049726,0.00108960,0.0009
 2142,-0.00538725,0.00259299,-0.00481742,-0.00033570,-0.00006186,0.0001
 3726,0.03072301,0.05333899,-0.02451474,0.00313736,-0.00008247,-0.00103
 748,-0.00082598,-0.00058549,0.00042153,0.00012057,-0.00041843,0.000881
 81,-0.00019629,-0.00006627,0.00016470,-0.00041901,0.00013254,0.0002531
 7,-0.00034849,-0.00054544,0.00120156,-0.00014044,-0.00014470,-0.000065
 41,0.00003859,0.00017079,0.00014742,0.00014365,-0.00025174,-0.00013920
 ,-0.00027090,0.00021447,-0.00001472,-0.00185278,-0.00114463,-0.0035347
 7,-0.01313133,0.00353488,0.00359257,0.00751461,-0.00163337,-0.00007640
 ,-0.01798040,-0.00333594,0.00536949,0.01425723,0.00458282,0.01324956,0
 .17906678,0.11633665,-0.17304394,0.00154869,0.00067346,-0.00141815,-0.
 00002974,-0.00052959,-0.00065091,0.00621503,0.00075842,0.00135854,-0.2
 0857514,-0.17072008,0.18427854\\-0.00000132,-0.00000263,-0.00000299,0.
 00000537,-0.00000225,-0.00000426,-0.00002955,-0.00001672,0.00000251,-0
 .00000839,0.00001001,0.00000512,-0.00000263,-0.00000292,0.00000061,-0.
 00000806,0.00000581,-0.00000430,0.00000158,-0.00000317,-0.00000304,0.0
 0003053,-0.00000164,-0.00001257,0.00001942,0.00000026,0.00000156,-0.00
 000025,0.00000038,-0.00000032,0.00000606,0.00000516,0.00000297,0.00000
 619,0.00000197,0.00000296,-0.00000613,-0.00000061,-0.00000174,-0.00001
 037,0.00000596,0.00001170,0.00000186,-0.00000177,-0.00000134,0.0000040
 7,0.00000272,-0.00000043,-0.00000040,-0.00000181,-0.00000057,-0.000002
 16,0.00000403,-0.00000298,-0.00000099,0.00000183,-0.00001415,-0.000004
 78,0.00000607,0.00000591,-0.00000293,-0.00000042,-0.00000546,-0.000011
 21,0.00000011,0.00000821,0.00000832,-0.00001562,-0.00000391,-0.0000156
 7,0.00001249,0.00000747,0.00000073,-0.00000016,-0.00000072,0.00000296,
 -0.00000075,0.00000149,0.00001640,0.00000173,-0.00000070,0.00000134,-0
 .00000806,0.00000898\\\@
 The archive entry for this job was punched.


 WAR ES EIN GOTT DER DIESE ZEICHEN SCHRIEB?
          - LUDWIG BOLTZMANN, QUOTING GOETHE, ABOUT MAXWELL'S EQUATIONS.
 Job cpu time:       0 days 17 hours 26 minutes  5.7 seconds.
 Elapsed time:       0 days  0 hours 26 minutes 21.8 seconds.
 File lengths (MBytes):  RWF=   1167 Int=      0 D2E=      0 Chk=     28 Scr=      1
 Normal termination of Gaussian 16 at Sat Oct 26 21:07:52 2024.
