 Entering Gaussian System, Link 0=g16
 Input=UridineMNallgPBE0aVDZ.gjf
 Output=UridineMNallgPBE0aVDZ.log
 Initial command:
 /sw/contrib/chem-src/g16/c01/g16/l1.exe "/scr/Gau-39517.inp" -scrdir="/scr/"
 Entering Link 1 = /sw/contrib/chem-src/g16/c01/g16/l1.exe PID=     39518.
  
 Copyright (c) 1988-2019, Gaussian, Inc.  All Rights Reserved.
  
 This is part of the Gaussian(R) 16 program.  It is based on
 the Gaussian(R) 09 system (copyright 2009, Gaussian, Inc.),
 the Gaussian(R) 03 system (copyright 2003, Gaussian, Inc.),
 the Gaussian(R) 98 system (copyright 1998, Gaussian, Inc.),
 the Gaussian(R) 94 system (copyright 1995, Gaussian, Inc.),
 the Gaussian 92(TM) system (copyright 1992, Gaussian, Inc.),
 the Gaussian 90(TM) system (copyright 1990, Gaussian, Inc.),
 the Gaussian 88(TM) system (copyright 1988, Gaussian, Inc.),
 the Gaussian 86(TM) system (copyright 1986, Carnegie Mellon
 University), and the Gaussian 82(TM) system (copyright 1983,
 Carnegie Mellon University). Gaussian is a federally registered
 trademark of Gaussian, Inc.
  
 This software contains proprietary and confidential information,
 including trade secrets, belonging to Gaussian, Inc.
  
 This software is provided under written license and may be
 used, copied, transmitted, or stored only in accord with that
 written license.
  
 The following legend is applicable only to US Government
 contracts under FAR:
  
                    RESTRICTED RIGHTS LEGEND
  
 Use, reproduction and disclosure by the US Government is
 subject to restrictions as set forth in subparagraphs (a)
 and (c) of the Commercial Computer Software - Restricted
 Rights clause in FAR 52.227-19.
  
 Gaussian, Inc.
 340 Quinnipiac St., Bldg. 40, Wallingford CT 06492
  
  
 ---------------------------------------------------------------
 Warning -- This program may not be used in any manner that
 competes with the business of Gaussian, Inc. or will provide
 assistance to any competitor of Gaussian, Inc.  The licensee
 of this program is prohibited from giving any competitor of
 Gaussian, Inc. access to this program.  By using this program,
 the user acknowledges that Gaussian, Inc. is engaged in the
 business of creating and licensing software in the field of
 computational chemistry and represents and warrants to the
 licensee that it is not a competitor of Gaussian, Inc. and that
 it will not use this program in any manner prohibited above.
 ---------------------------------------------------------------
  

 Cite this work as:
 Gaussian 16, Revision C.01,
 M. J. Frisch, G. W. Trucks, H. B. Schlegel, G. E. Scuseria, 
 M. A. Robb, J. R. Cheeseman, G. Scalmani, V. Barone, 
 G. A. Petersson, H. Nakatsuji, X. Li, M. Caricato, A. V. Marenich, 
 J. Bloino, B. G. Janesko, R. Gomperts, B. Mennucci, H. P. Hratchian, 
 J. V. Ortiz, A. F. Izmaylov, J. L. Sonnenberg, D. Williams-Young, 
 F. Ding, F. Lipparini, F. Egidi, J. Goings, B. Peng, A. Petrone, 
 T. Henderson, D. Ranasinghe, V. G. Zakrzewski, J. Gao, N. Rega, 
 G. Zheng, W. Liang, M. Hada, M. Ehara, K. Toyota, R. Fukuda, 
 J. Hasegawa, M. Ishida, T. Nakajima, Y. Honda, O. Kitao, H. Nakai, 
 T. Vreven, K. Throssell, J. A. Montgomery, Jr., J. E. Peralta, 
 F. Ogliaro, M. J. Bearpark, J. J. Heyd, E. N. Brothers, K. N. Kudin, 
 V. N. Staroverov, T. A. Keith, R. Kobayashi, J. Normand, 
 K. Raghavachari, A. P. Rendell, J. C. Burant, S. S. Iyengar, 
 J. Tomasi, M. Cossi, J. M. Millam, M. Klene, C. Adamo, R. Cammi, 
 J. W. Ochterski, R. L. Martin, K. Morokuma, O. Farkas, 
 J. B. Foresman, and D. J. Fox, Gaussian, Inc., Wallingford CT, 2019.
 
 ******************************************
 Gaussian 16:  EM64L-G16RevC.01  3-Jul-2019
                24-Oct-2024 
 ******************************************
 %nprocshared=40
 Will use up to   40 processors via shared memory.
 %mem=50gb
 ------------------------------------------------------
 # PBE1PBE/aug-cc-pVDZ opt freq EmpiricalDispersion=GD3
 ------------------------------------------------------
 1/18=20,19=15,26=3,38=1/1,3;
 2/9=110,12=2,17=6,18=5,40=1/2;
 3/5=16,7=10,11=2,25=1,30=1,71=1,74=-13,124=31/1,2,3;
 4//1;
 5/5=2,38=5/2;
 6/7=2,8=2,9=2,10=2,28=1/1;
 7//1,2,3,16;
 1/18=20,19=15,26=3/3(2);
 2/9=110/2;
 99//99;
 2/9=110/2;
 3/5=16,7=10,11=2,25=1,30=1,71=1,74=-13,124=31/1,2,3;
 4/5=5,16=3,69=1/1;
 5/5=2,38=5/2;
 7//1,2,3,16;
 1/18=20,19=15,26=3/3(-5);
 2/9=110/2;
 6/7=2,8=2,9=2,10=2,19=2,28=1/1;
 99/9=1/99;
 ----
 blah
 ----
 Symbolic Z-matrix:
 Charge = -1 Multiplicity = 1
 C                     2.35881  -0.22665  -0.60696 
 C                     1.20877  -1.25592  -0.62 
 C                     0.35647  -0.88377   0.60339 
 O                     1.67713  -2.57429  -0.39171 
 H                     0.62648  -1.20336  -1.54891 
 O                     0.97125   0.19009   1.26507 
 H                     0.31312  -1.76945   1.25531 
 N                    -1.02869  -0.5319    0.32409 
 C                     2.3163    0.35683   0.81064 
 H                     2.1527    0.56398  -1.33422 
 O                     3.60644  -0.77651  -0.9549 
 C                     2.65994   1.82962   0.90664 
 H                     2.99888  -0.2178    1.46563 
 O                     1.9535    2.62353  -0.01426 
 H                     3.73145   1.9525    0.69289 
 H                     2.47969   2.15886   1.94532 
 H                     3.83463  -1.43473  -0.28798 
 H                     2.21897  -2.8215   -1.14937 
 H                     1.0556    2.27404  -0.10647 
 C                    -2.05645  -1.18797   0.95844 
 C                    -3.35725  -0.88415   0.76966 
 C                    -3.72038   0.19504  -0.12968 
 N                    -2.60691   0.82034  -0.71342 
 C                    -1.27987   0.52865  -0.53582 
 H                    -1.74219  -1.98609   1.62931 
 H                    -4.14811  -1.42403   1.28083 
 O                    -4.84503   0.5753   -0.39467 
 O                    -0.38695   1.14533  -1.09856 
 

 GradGradGradGradGradGradGradGradGradGradGradGradGradGradGradGradGradGrad
 Berny optimization.
 Initialization pass.
                           ----------------------------
                           !    Initial Parameters    !
                           ! (Angstroms and Degrees)  !
 --------------------------                            --------------------------
 ! Name  Definition              Value          Derivative Info.                !
 --------------------------------------------------------------------------------
 ! R1    R(1,2)                  1.5434         estimate D2E/DX2                !
 ! R2    R(1,9)                  1.5336         estimate D2E/DX2                !
 ! R3    R(1,10)                 1.0938         estimate D2E/DX2                !
 ! R4    R(1,11)                 1.4071         estimate D2E/DX2                !
 ! R5    R(2,3)                  1.5367         estimate D2E/DX2                !
 ! R6    R(2,4)                  1.4176         estimate D2E/DX2                !
 ! R7    R(2,5)                  1.0976         estimate D2E/DX2                !
 ! R8    R(3,6)                  1.4032         estimate D2E/DX2                !
 ! R9    R(3,7)                  1.1006         estimate D2E/DX2                !
 ! R10   R(3,8)                  1.4562         estimate D2E/DX2                !
 ! R11   R(4,18)                 0.9637         estimate D2E/DX2                !
 ! R12   R(6,9)                  1.4295         estimate D2E/DX2                !
 ! R13   R(8,20)                 1.3745         estimate D2E/DX2                !
 ! R14   R(8,24)                 1.3883         estimate D2E/DX2                !
 ! R15   R(9,12)                 1.5154         estimate D2E/DX2                !
 ! R16   R(9,13)                 1.1069         estimate D2E/DX2                !
 ! R17   R(11,17)                0.9644         estimate D2E/DX2                !
 ! R18   R(12,14)                1.4062         estimate D2E/DX2                !
 ! R19   R(12,15)                1.0995         estimate D2E/DX2                !
 ! R20   R(12,16)                1.1044         estimate D2E/DX2                !
 ! R21   R(14,19)                0.9679         estimate D2E/DX2                !
 ! R22   R(20,21)                1.3491         estimate D2E/DX2                !
 ! R23   R(20,25)                1.089          estimate D2E/DX2                !
 ! R24   R(21,22)                1.451          estimate D2E/DX2                !
 ! R25   R(21,26)                1.0855         estimate D2E/DX2                !
 ! R26   R(22,23)                1.4041         estimate D2E/DX2                !
 ! R27   R(22,27)                1.2164         estimate D2E/DX2                !
 ! R28   R(23,24)                1.3703         estimate D2E/DX2                !
 ! R29   R(24,28)                1.2224         estimate D2E/DX2                !
 ! A1    A(2,1,9)              103.9389         estimate D2E/DX2                !
 ! A2    A(2,1,10)             109.6332         estimate D2E/DX2                !
 ! A3    A(2,1,11)             113.4519         estimate D2E/DX2                !
 ! A4    A(9,1,10)             109.5339         estimate D2E/DX2                !
 ! A5    A(9,1,11)             113.6927         estimate D2E/DX2                !
 ! A6    A(10,1,11)            106.5653         estimate D2E/DX2                !
 ! A7    A(1,2,3)              104.1832         estimate D2E/DX2                !
 ! A8    A(1,2,4)              111.8793         estimate D2E/DX2                !
 ! A9    A(1,2,5)              111.7477         estimate D2E/DX2                !
 ! A10   A(3,2,4)              106.2749         estimate D2E/DX2                !
 ! A11   A(3,2,5)              111.5876         estimate D2E/DX2                !
 ! A12   A(4,2,5)              110.8617         estimate D2E/DX2                !
 ! A13   A(2,3,6)              108.5264         estimate D2E/DX2                !
 ! A14   A(2,3,7)              107.3686         estimate D2E/DX2                !
 ! A15   A(2,3,8)              115.6822         estimate D2E/DX2                !
 ! A16   A(6,3,7)              110.7201         estimate D2E/DX2                !
 ! A17   A(6,3,8)              108.8005         estimate D2E/DX2                !
 ! A18   A(7,3,8)              105.6999         estimate D2E/DX2                !
 ! A19   A(2,4,18)             107.3199         estimate D2E/DX2                !
 ! A20   A(3,6,9)              110.5858         estimate D2E/DX2                !
 ! A21   A(3,8,20)             120.4923         estimate D2E/DX2                !
 ! A22   A(3,8,24)             118.3922         estimate D2E/DX2                !
 ! A23   A(20,8,24)            121.013          estimate D2E/DX2                !
 ! A24   A(1,9,6)              105.995          estimate D2E/DX2                !
 ! A25   A(1,9,12)             114.964          estimate D2E/DX2                !
 ! A26   A(1,9,13)             109.4139         estimate D2E/DX2                !
 ! A27   A(6,9,12)             107.8541         estimate D2E/DX2                !
 ! A28   A(6,9,13)             109.3652         estimate D2E/DX2                !
 ! A29   A(12,9,13)            109.1005         estimate D2E/DX2                !
 ! A30   A(1,11,17)            107.7881         estimate D2E/DX2                !
 ! A31   A(9,12,14)            113.16           estimate D2E/DX2                !
 ! A32   A(9,12,15)            108.4995         estimate D2E/DX2                !
 ! A33   A(9,12,16)            108.198          estimate D2E/DX2                !
 ! A34   A(14,12,15)           107.4072         estimate D2E/DX2                !
 ! A35   A(14,12,16)           111.4448         estimate D2E/DX2                !
 ! A36   A(15,12,16)           107.9729         estimate D2E/DX2                !
 ! A37   A(12,14,19)           108.9384         estimate D2E/DX2                !
 ! A38   A(8,20,21)            123.2928         estimate D2E/DX2                !
 ! A39   A(8,20,25)            114.7323         estimate D2E/DX2                !
 ! A40   A(21,20,25)           121.9739         estimate D2E/DX2                !
 ! A41   A(20,21,22)           119.7058         estimate D2E/DX2                !
 ! A42   A(20,21,26)           121.642          estimate D2E/DX2                !
 ! A43   A(22,21,26)           118.6509         estimate D2E/DX2                !
 ! A44   A(21,22,23)           112.9816         estimate D2E/DX2                !
 ! A45   A(21,22,27)           126.7927         estimate D2E/DX2                !
 ! A46   A(23,22,27)           120.2254         estimate D2E/DX2                !
 ! A47   A(22,23,24)           128.2651         estimate D2E/DX2                !
 ! A48   A(8,24,23)            114.7159         estimate D2E/DX2                !
 ! A49   A(8,24,28)            122.5727         estimate D2E/DX2                !
 ! A50   A(23,24,28)           122.7085         estimate D2E/DX2                !
 ! D1    D(9,1,2,3)             16.4556         estimate D2E/DX2                !
 ! D2    D(9,1,2,4)            -97.9369         estimate D2E/DX2                !
 ! D3    D(9,1,2,5)            137.0786         estimate D2E/DX2                !
 ! D4    D(10,1,2,3)          -100.5653         estimate D2E/DX2                !
 ! D5    D(10,1,2,4)           145.0422         estimate D2E/DX2                !
 ! D6    D(10,1,2,5)            20.0577         estimate D2E/DX2                !
 ! D7    D(11,1,2,3)           140.4405         estimate D2E/DX2                !
 ! D8    D(11,1,2,4)            26.048          estimate D2E/DX2                !
 ! D9    D(11,1,2,5)           -98.9366         estimate D2E/DX2                !
 ! D10   D(2,1,9,6)            -25.4306         estimate D2E/DX2                !
 ! D11   D(2,1,9,12)          -144.46           estimate D2E/DX2                !
 ! D12   D(2,1,9,13)            92.3936         estimate D2E/DX2                !
 ! D13   D(10,1,9,6)            91.6594         estimate D2E/DX2                !
 ! D14   D(10,1,9,12)          -27.3699         estimate D2E/DX2                !
 ! D15   D(10,1,9,13)         -150.5163         estimate D2E/DX2                !
 ! D16   D(11,1,9,6)          -149.2592         estimate D2E/DX2                !
 ! D17   D(11,1,9,12)           91.7114         estimate D2E/DX2                !
 ! D18   D(11,1,9,13)          -31.435          estimate D2E/DX2                !
 ! D19   D(2,1,11,17)          -63.1474         estimate D2E/DX2                !
 ! D20   D(9,1,11,17)           55.3496         estimate D2E/DX2                !
 ! D21   D(10,1,11,17)         176.112          estimate D2E/DX2                !
 ! D22   D(1,2,3,6)             -2.0971         estimate D2E/DX2                !
 ! D23   D(1,2,3,7)           -121.8184         estimate D2E/DX2                !
 ! D24   D(1,2,3,8)            120.4704         estimate D2E/DX2                !
 ! D25   D(4,2,3,6)            116.21           estimate D2E/DX2                !
 ! D26   D(4,2,3,7)             -3.5112         estimate D2E/DX2                !
 ! D27   D(4,2,3,8)           -121.2225         estimate D2E/DX2                !
 ! D28   D(5,2,3,6)           -122.8273         estimate D2E/DX2                !
 ! D29   D(5,2,3,7)            117.4514         estimate D2E/DX2                !
 ! D30   D(5,2,3,8)             -0.2598         estimate D2E/DX2                !
 ! D31   D(1,2,4,18)           -66.5761         estimate D2E/DX2                !
 ! D32   D(3,2,4,18)          -179.674          estimate D2E/DX2                !
 ! D33   D(5,2,4,18)            58.8977         estimate D2E/DX2                !
 ! D34   D(2,3,6,9)            -14.7485         estimate D2E/DX2                !
 ! D35   D(7,3,6,9)            102.856          estimate D2E/DX2                !
 ! D36   D(8,3,6,9)           -141.3973         estimate D2E/DX2                !
 ! D37   D(2,3,8,20)           125.1088         estimate D2E/DX2                !
 ! D38   D(2,3,8,24)           -58.5345         estimate D2E/DX2                !
 ! D39   D(6,3,8,20)          -112.469          estimate D2E/DX2                !
 ! D40   D(6,3,8,24)            63.8877         estimate D2E/DX2                !
 ! D41   D(7,3,8,20)             6.4726         estimate D2E/DX2                !
 ! D42   D(7,3,8,24)          -177.1706         estimate D2E/DX2                !
 ! D43   D(3,6,9,1)             25.5641         estimate D2E/DX2                !
 ! D44   D(3,6,9,12)           149.1779         estimate D2E/DX2                !
 ! D45   D(3,6,9,13)           -92.2926         estimate D2E/DX2                !
 ! D46   D(3,8,20,21)          178.1624         estimate D2E/DX2                !
 ! D47   D(3,8,20,25)           -2.2024         estimate D2E/DX2                !
 ! D48   D(24,8,20,21)           1.9021         estimate D2E/DX2                !
 ! D49   D(24,8,20,25)        -178.4626         estimate D2E/DX2                !
 ! D50   D(3,8,24,23)         -178.1022         estimate D2E/DX2                !
 ! D51   D(3,8,24,28)            2.5031         estimate D2E/DX2                !
 ! D52   D(20,8,24,23)          -1.7652         estimate D2E/DX2                !
 ! D53   D(20,8,24,28)         178.84           estimate D2E/DX2                !
 ! D54   D(1,9,12,14)           49.3825         estimate D2E/DX2                !
 ! D55   D(1,9,12,15)          -69.7113         estimate D2E/DX2                !
 ! D56   D(1,9,12,16)          173.3841         estimate D2E/DX2                !
 ! D57   D(6,9,12,14)          -68.6053         estimate D2E/DX2                !
 ! D58   D(6,9,12,15)          172.3009         estimate D2E/DX2                !
 ! D59   D(6,9,12,16)           55.3963         estimate D2E/DX2                !
 ! D60   D(13,9,12,14)         172.696          estimate D2E/DX2                !
 ! D61   D(13,9,12,15)          53.6022         estimate D2E/DX2                !
 ! D62   D(13,9,12,16)         -63.3024         estimate D2E/DX2                !
 ! D63   D(9,12,14,19)          36.9514         estimate D2E/DX2                !
 ! D64   D(15,12,14,19)        156.6731         estimate D2E/DX2                !
 ! D65   D(16,12,14,19)        -85.2549         estimate D2E/DX2                !
 ! D66   D(8,20,21,22)          -0.7783         estimate D2E/DX2                !
 ! D67   D(8,20,21,26)         179.6462         estimate D2E/DX2                !
 ! D68   D(25,20,21,22)        179.6123         estimate D2E/DX2                !
 ! D69   D(25,20,21,26)          0.0368         estimate D2E/DX2                !
 ! D70   D(20,21,22,23)         -0.2863         estimate D2E/DX2                !
 ! D71   D(20,21,22,27)        179.9256         estimate D2E/DX2                !
 ! D72   D(26,21,22,23)        179.3019         estimate D2E/DX2                !
 ! D73   D(26,21,22,27)         -0.4863         estimate D2E/DX2                !
 ! D74   D(21,22,23,24)          0.2965         estimate D2E/DX2                !
 ! D75   D(27,22,23,24)       -179.8999         estimate D2E/DX2                !
 ! D76   D(22,23,24,8)           0.7095         estimate D2E/DX2                !
 ! D77   D(22,23,24,28)       -179.8967         estimate D2E/DX2                !
 --------------------------------------------------------------------------------
 Trust Radius=3.00D-01 FncErr=1.00D-07 GrdErr=1.00D-06 EigMax=2.50D+02 EigMin=1.00D-04
 Number of steps in this run=    166 maximum allowed number of steps=    168.
 GradGradGradGradGradGradGradGradGradGradGradGradGradGradGradGradGradGrad

                          Input orientation:                          
 ---------------------------------------------------------------------
 Center     Atomic      Atomic             Coordinates (Angstroms)
 Number     Number       Type             X           Y           Z
 ---------------------------------------------------------------------
      1          6           0        2.358808   -0.226647   -0.606955
      2          6           0        1.208765   -1.255922   -0.620004
      3          6           0        0.356473   -0.883769    0.603393
      4          8           0        1.677126   -2.574293   -0.391705
      5          1           0        0.626478   -1.203359   -1.548907
      6          8           0        0.971247    0.190094    1.265065
      7          1           0        0.313124   -1.769445    1.255310
      8          7           0       -1.028691   -0.531898    0.324091
      9          6           0        2.316298    0.356832    0.810643
     10          1           0        2.152702    0.563981   -1.334218
     11          8           0        3.606436   -0.776506   -0.954903
     12          6           0        2.659937    1.829616    0.906644
     13          1           0        2.998881   -0.217797    1.465633
     14          8           0        1.953501    2.623534   -0.014263
     15          1           0        3.731448    1.952501    0.692891
     16          1           0        2.479688    2.158857    1.945322
     17          1           0        3.834634   -1.434734   -0.287976
     18          1           0        2.218975   -2.821504   -1.149374
     19          1           0        1.055603    2.274039   -0.106466
     20          6           0       -2.056454   -1.187971    0.958439
     21          6           0       -3.357248   -0.884148    0.769662
     22          6           0       -3.720383    0.195043   -0.129679
     23          7           0       -2.606911    0.820336   -0.713422
     24          6           0       -1.279873    0.528654   -0.535819
     25          1           0       -1.742186   -1.986093    1.629312
     26          1           0       -4.148111   -1.424027    1.280834
     27          8           0       -4.845030    0.575301   -0.394665
     28          8           0       -0.386946    1.145325   -1.098564
 ---------------------------------------------------------------------
                    Distance matrix (angstroms):
                    1          2          3          4          5
     1  C    0.000000
     2  C    1.543430   0.000000
     3  C    2.430246   1.536750   0.000000
     4  O    2.454071   1.417598   2.364787   0.000000
     5  H    2.200502   1.097580   2.192587   2.079047   0.000000
     6  O    2.367162   2.387648   1.403189   3.299240   3.158958
     7  H    3.167504   2.140720   1.100589   2.284938   2.877895
     8  N    3.526354   2.534114   1.456194   3.464850   2.588159
     9  C    1.533571   2.423707   2.328724   3.231977   3.295021
    10  H    1.093839   2.170983   3.012765   3.311082   2.344982
    11  O    1.407121   2.467959   3.605836   2.696566   3.068419
    12  C    2.570968   3.735920   3.572165   4.695321   4.400412
    13  H    2.169192   2.938044   2.858198   3.278691   3.960692
    14  O    2.939233   3.996465   3.902970   5.218836   4.331424
    15  H    2.884862   4.287377   4.409410   5.088070   4.962454
    16  H    3.495620   4.456103   3.945426   5.339336   5.191196
    17  H    1.933723   2.652811   3.632589   2.442170   3.454815
    18  H    2.654629   1.936957   3.208726   0.963730   2.305226
    19  H    2.863959   3.570407   3.311259   4.896323   3.789074
    20  C    4.782169   3.627362   2.457807   4.205282   3.672213
    21  C    5.916137   4.787260   3.717441   5.436017   4.620360
    22  C    6.112461   5.161610   4.280419   6.072148   4.781729
    23  N    5.076010   4.344992   3.663280   5.475398   3.904892
    24  C    3.716926   3.063514   2.443434   4.288694   2.767741
    25  H    4.991462   3.781625   2.583021   4.015244   4.040336
    26  H    6.880222   5.686613   4.587165   6.168783   5.554532
    27  O    7.251446   6.328711   5.493691   7.242822   5.867990
    28  O    3.108561   2.922550   2.750737   4.312262   2.597336
                    6          7          8          9         10
     6  O    0.000000
     7  H    2.067127   0.000000
     8  N    2.325179   2.049185   0.000000
     9  C    1.429498   2.954909   3.495072   0.000000
    10  H    2.879566   3.941393   3.751293   2.161042   0.000000
    11  O    3.578658   4.088627   4.814568   2.462938   2.013486
    12  C    2.380792   4.310724   4.418381   1.515387   2.623086
    13  H    2.077956   3.108880   4.197989   1.106856   3.027600
    14  O    2.919441   4.858077   4.354848   2.439268   2.454327
    15  H    3.324481   5.084696   5.382116   2.136042   2.920547
    16  H    2.571803   4.538907   4.709275   2.135764   3.661411
    17  H    3.640191   3.859378   4.984142   2.592685   2.813961
    18  H    4.056607   3.243702   4.238010   3.735366   3.391175
    19  H    2.496205   4.330759   3.521781   2.471057   2.373879
    20  C    3.340667   2.457874   1.374455   4.639959   5.103196
    21  C    4.487236   3.806736   2.396829   5.807825   6.073132
    22  C    4.894561   4.695379   2.824811   6.111620   6.006676
    23  N    4.137007   4.371439   2.322875   5.174514   4.806768
    24  C    2.902645   3.320699   1.388275   3.843817   3.524381
    25  H    3.497311   2.100265   2.080231   4.757185   5.518654
    26  H    5.367817   4.474660   3.382607   6.721690   7.105696
    27  O    6.060707   5.901424   4.038186   7.265337   7.060534
    28  O    2.888580   3.811391   2.291039   3.402105   2.615971
                   11         12         13         14         15
    11  O    0.000000
    12  C    3.339624   0.000000
    13  H    2.557396   2.149244   0.000000
    14  O    3.895802   1.406210   3.369877   0.000000
    15  H    3.190350   1.099512   2.417432   2.027670   0.000000
    16  H    4.277525   1.104419   2.479546   2.081531   1.782714
    17  H    0.964433   3.669198   2.292283   4.481419   3.527904
    18  H    2.478888   5.104368   3.771711   5.568428   5.335976
    19  H    4.066008   1.948792   3.529458   0.967920   2.811139
    20  C    5.991536   5.599362   5.172513   5.617247   6.590363
    21  C    7.174859   6.602257   6.428746   6.412677   7.635580
    22  C    7.436880   6.667404   6.918379   6.172832   7.700329
    23  N    6.419805   5.602049   6.103352   4.953555   6.590471
    24  C    5.074947   4.392642   4.782336   3.887834   5.352607
    25  H    6.062097   5.870313   5.062744   6.132545   6.808089
    26  H    8.096345   7.554848   7.250423   7.435704   8.592675
    27  O    8.577210   7.719536   8.100411   7.110555   8.754167
    28  O    4.434092   3.711147   4.460609   2.972962   4.563114
                   16         17         18         19         20
    16  H    0.000000
    17  H    4.442679   0.000000
    18  H    5.869336   2.296844   0.000000
    19  H    2.500224   4.637991   5.329695   0.000000
    20  C    5.722917   6.026555   5.038908   4.775399   0.000000
    21  C    6.686694   7.290056   6.207279   5.496817   1.349078
    22  C    6.826644   7.730428   6.739088   5.208916   2.421856
    23  N    5.893560   6.838117   6.061537   3.986936   2.670472
    24  C    4.790399   5.484022   4.882821   2.947060   2.404722
    25  H    5.924921   5.922914   4.910174   5.384169   1.088960
    26  H    7.563486   8.135447   6.956913   6.532912   2.129481
    27  O    7.850776   8.910005   7.874518   6.147051   3.565975
    28  O    4.302334   5.013531   4.746487   2.083075   3.530267
                   21         22         23         24         25
    21  C    0.000000
    22  C    1.450977   0.000000
    23  N    2.380716   1.404125   0.000000
    24  C    2.831215   2.496465   1.370274   0.000000
    25  H    2.135815   3.429966   3.756620   3.350444   0.000000
    26  H    1.085463   2.189494   3.374836   3.916629   2.495161
    27  O    2.387288   1.216406   2.273945   3.568255   4.503872
    28  O    4.053606   3.599108   2.276444   1.222409   4.368496
                   26         27         28
    26  H    0.000000
    27  O    2.700057   0.000000
    28  O    5.139014   4.549166   0.000000
 Stoichiometry    C9H11N2O6(1-)
 Framework group  C1[X(C9H11N2O6)]
 Deg. of freedom    78
 Full point group                 C1      NOp   1
 Largest Abelian subgroup         C1      NOp   1
 Largest concise Abelian subgroup C1      NOp   1
                         Standard orientation:                         
 ---------------------------------------------------------------------
 Center     Atomic      Atomic             Coordinates (Angstroms)
 Number     Number       Type             X           Y           Z
 ---------------------------------------------------------------------
      1          6           0        2.338264   -0.242099   -0.601270
      2          6           0        1.180245   -1.262471   -0.604266
      3          6           0        0.324385   -0.864275    0.608393
      4          8           0        1.636993   -2.580646   -0.352514
      5          1           0        0.603360   -1.220168   -1.537055
      6          8           0        0.944045    0.215166    1.256288
      7          1           0        0.270588   -1.739099    1.274039
      8          7           0       -1.056456   -0.506125    0.315975
      9          6           0        2.292774    0.364180    0.806635
     10          1           0        2.142272    0.538435   -1.342106
     11          8           0        3.583368   -0.807117   -0.933622
     12          6           0        2.647472    1.835586    0.881125
     13          1           0        2.967307   -0.205247    1.474384
     14          8           0        1.952233    2.620221   -0.056115
     15          1           0        3.721043    1.946713    0.671308
     16          1           0        2.464273    2.182708    1.913445
     17          1           0        3.802815   -1.456404   -0.255094
     18          1           0        2.180920   -2.844093   -1.103191
     19          1           0        1.052118    2.276301   -0.147665
     20          6           0       -2.092723   -1.144003    0.955029
     21          6           0       -3.390059   -0.833110    0.754346
     22          6           0       -3.739884    0.234425   -0.163982
     23          7           0       -2.618425    0.841666   -0.751481
     24          6           0       -1.294690    0.542530   -0.562020
     25          1           0       -1.788331   -1.933768    1.640193
     26          1           0       -4.187864   -1.358615    1.269693
     27          8           0       -4.860073    0.619158   -0.441113
     28          8           0       -0.393946    1.143200   -1.129593
 ---------------------------------------------------------------------
 Rotational constants (GHZ):           0.9264160           0.3075301           0.2658541
 Standard basis: Aug-CC-pVDZ (5D, 7F)
 There are   524 symmetry adapted cartesian basis functions of A   symmetry.
 There are   490 symmetry adapted basis functions of A   symmetry.
   490 basis functions,   852 primitive gaussians,   524 cartesian basis functions
    64 alpha electrons       64 beta electrons
       nuclear repulsion energy      1313.0802699216 Hartrees.
 NAtoms=   28 NActive=   28 NUniq=   28 SFac= 1.00D+00 NAtFMM=   60 NAOKFM=F Big=F
 Integral buffers will be    131072 words long.
 Raffenetti 2 integral format.
 Two-electron integral symmetry is turned on.
 Nuclear repulsion after empirical dispersion term =     1313.0604525775 Hartrees.
 One-electron integrals computed using PRISM.
 NBasis=   490 RedAO= T EigKep=  2.66D-06  NBF=   490
 NBsUse=   490 1.00D-06 EigRej= -1.00D+00 NBFU=   490
 ExpMin= 2.97D-02 ExpMax= 1.17D+04 ExpMxC= 4.01D+02 IAcc=3 IRadAn=         5 AccDes= 0.00D+00
 Harris functional with IExCor= 1009 and IRadAn=       5 diagonalized for initial guess.
 HarFok:  IExCor= 1009 AccDes= 0.00D+00 IRadAn=         5 IDoV= 1 UseB2=F ITyADJ=14
 ICtDFT=  3500011 ScaDFX=  1.000000  1.000000  1.000000  1.000000
 FoFCou: FMM=F IPFlag=           0 FMFlag=      100000 FMFlg1=           0
         NFxFlg=           0 DoJE=T BraDBF=F KetDBF=T FulRan=T
         wScrn=  0.000000 ICntrl=       500 IOpCl=  0 I1Cent=   200000004 NGrid=           0
         NMat0=    1 NMatS0=      1 NMatT0=    0 NMatD0=    1 NMtDS0=    0 NMtDT0=    0
 Petite list used in FoFCou.
 Requested convergence on RMS density matrix=1.00D-08 within 128 cycles.
 Requested convergence on MAX density matrix=1.00D-06.
 Requested convergence on             energy=1.00D-06.
 No special actions if energy rises.
 EnCoef did     3 forward-backward iterations
 SCF Done:  E(RPBE1PBE) =  -909.655203253     A.U. after   17 cycles
            NFock= 17  Conv=0.26D-08     -V/T= 2.0053

 **********************************************************************

            Population analysis using the SCF Density.

 **********************************************************************

 Orbital symmetries:
       Occupied  (A) (A) (A) (A) (A) (A) (A) (A) (A) (A) (A) (A)
                 (A) (A) (A) (A) (A) (A) (A) (A) (A) (A) (A) (A)
                 (A) (A) (A) (A) (A) (A) (A) (A) (A) (A) (A) (A)
                 (A) (A) (A) (A) (A) (A) (A) (A) (A) (A) (A) (A)
                 (A) (A) (A) (A) (A) (A) (A) (A) (A) (A) (A) (A)
                 (A) (A) (A) (A)
       Virtual   (A) (A) (A) (A) (A) (A) (A) (A) (A) (A) (A) (A)
                 (A) (A) (A) (A) (A) (A) (A) (A) (A) (A) (A) (A)
                 (A) (A) (A) (A) (A) (A) (A) (A) (A) (A) (A) (A)
                 (A) (A) (A) (A) (A) (A) (A) (A) (A) (A) (A) (A)
                 (A) (A) (A) (A) (A) (A) (A) (A) (A) (A) (A) (A)
                 (A) (A) (A) (A) (A) (A) (A) (A) (A) (A) (A) (A)
                 (A) (A) (A) (A) (A) (A) (A) (A) (A) (A) (A) (A)
                 (A) (A) (A) (A) (A) (A) (A) (A) (A) (A) (A) (A)
                 (A) (A) (A) (A) (A) (A) (A) (A) (A) (A) (A) (A)
                 (A) (A) (A) (A) (A) (A) (A) (A) (A) (A) (A) (A)
                 (A) (A) (A) (A) (A) (A) (A) (A) (A) (A) (A) (A)
                 (A) (A) (A) (A) (A) (A) (A) (A) (A) (A) (A) (A)
                 (A) (A) (A) (A) (A) (A) (A) (A) (A) (A) (A) (A)
                 (A) (A) (A) (A) (A) (A) (A) (A) (A) (A) (A) (A)
                 (A) (A) (A) (A) (A) (A) (A) (A) (A) (A) (A) (A)
                 (A) (A) (A) (A) (A) (A) (A) (A) (A) (A) (A) (A)
                 (A) (A) (A) (A) (A) (A) (A) (A) (A) (A) (A) (A)
                 (A) (A) (A) (A) (A) (A) (A) (A) (A) (A) (A) (A)
                 (A) (A) (A) (A) (A) (A) (A) (A) (A) (A) (A) (A)
                 (A) (A) (A) (A) (A) (A) (A) (A) (A) (A) (A) (A)
                 (A) (A) (A) (A) (A) (A) (A) (A) (A) (A) (A) (A)
                 (A) (A) (A) (A) (A) (A) (A) (A) (A) (A) (A) (A)
                 (A) (A) (A) (A) (A) (A) (A) (A) (A) (A) (A) (A)
                 (A) (A) (A) (A) (A) (A) (A) (A) (A) (A) (A) (A)
                 (A) (A) (A) (A) (A) (A) (A) (A) (A) (A) (A) (A)
                 (A) (A) (A) (A) (A) (A) (A) (A) (A) (A) (A) (A)
                 (A) (A) (A) (A) (A) (A) (A) (A) (A) (A) (A) (A)
                 (A) (A) (A) (A) (A) (A) (A) (A) (A) (A) (A) (A)
                 (A) (A) (A) (A) (A) (A) (A) (A) (A) (A) (A) (A)
                 (A) (A) (A) (A) (A) (A) (A) (A) (A) (A) (A) (A)
                 (A) (A) (A) (A) (A) (A) (A) (A) (A) (A) (A) (A)
                 (A) (A) (A) (A) (A) (A) (A) (A) (A) (A) (A) (A)
                 (A) (A) (A) (A) (A) (A) (A) (A) (A) (A) (A) (A)
                 (A) (A) (A) (A) (A) (A) (A) (A) (A) (A) (A) (A)
                 (A) (A) (A) (A) (A) (A) (A) (A) (A) (A) (A) (A)
                 (A) (A) (A) (A) (A) (A)
 The electronic state is 1-A.
 Alpha  occ. eigenvalues --  -19.15422 -19.15302 -19.14028 -19.10724 -19.03789
 Alpha  occ. eigenvalues --  -19.01889 -14.31944 -14.19552 -10.22165 -10.19743
 Alpha  occ. eigenvalues --  -10.19332 -10.19248 -10.18770 -10.18052 -10.16162
 Alpha  occ. eigenvalues --  -10.16108 -10.09786  -1.01122  -0.98786  -0.97164
 Alpha  occ. eigenvalues --   -0.94187  -0.93576  -0.89516  -0.85946  -0.73731
 Alpha  occ. eigenvalues --   -0.70220  -0.68577  -0.65933  -0.59829  -0.54703
 Alpha  occ. eigenvalues --   -0.54287  -0.52374  -0.48350  -0.46876  -0.45218
 Alpha  occ. eigenvalues --   -0.42293  -0.41305  -0.40343  -0.40086  -0.39652
 Alpha  occ. eigenvalues --   -0.35654  -0.34732  -0.33680  -0.33598  -0.33030
 Alpha  occ. eigenvalues --   -0.31631  -0.31105  -0.30766  -0.29193  -0.27063
 Alpha  occ. eigenvalues --   -0.26657  -0.25039  -0.24861  -0.24402  -0.23317
 Alpha  occ. eigenvalues --   -0.21546  -0.20301  -0.18927  -0.17744  -0.14471
 Alpha  occ. eigenvalues --   -0.11011  -0.10710  -0.08857  -0.08763
 Alpha virt. eigenvalues --    0.06243   0.07973   0.08798   0.09838   0.10378
 Alpha virt. eigenvalues --    0.11439   0.11657   0.11822   0.12296   0.13235
 Alpha virt. eigenvalues --    0.13793   0.14389   0.14992   0.15301   0.15943
 Alpha virt. eigenvalues --    0.16139   0.16731   0.16999   0.17514   0.17818
 Alpha virt. eigenvalues --    0.18315   0.18537   0.19204   0.19453   0.19721
 Alpha virt. eigenvalues --    0.20105   0.20527   0.20588   0.20883   0.21397
 Alpha virt. eigenvalues --    0.21709   0.21847   0.22318   0.22776   0.23072
 Alpha virt. eigenvalues --    0.23433   0.23968   0.24320   0.24670   0.24954
 Alpha virt. eigenvalues --    0.25712   0.25824   0.26151   0.27295   0.27661
 Alpha virt. eigenvalues --    0.27939   0.28664   0.28849   0.29236   0.29797
 Alpha virt. eigenvalues --    0.30296   0.30488   0.30941   0.31437   0.32083
 Alpha virt. eigenvalues --    0.32433   0.33123   0.33348   0.34081   0.34363
 Alpha virt. eigenvalues --    0.34758   0.34904   0.35068   0.35833   0.35898
 Alpha virt. eigenvalues --    0.36106   0.36322   0.37051   0.37221   0.37758
 Alpha virt. eigenvalues --    0.37896   0.38477   0.38673   0.38878   0.39137
 Alpha virt. eigenvalues --    0.39458   0.39758   0.39899   0.40666   0.40947
 Alpha virt. eigenvalues --    0.41488   0.41578   0.42016   0.42212   0.42546
 Alpha virt. eigenvalues --    0.43141   0.43223   0.43734   0.44309   0.44697
 Alpha virt. eigenvalues --    0.45356   0.45660   0.46166   0.46608   0.47410
 Alpha virt. eigenvalues --    0.47459   0.47976   0.48591   0.48921   0.49903
 Alpha virt. eigenvalues --    0.50098   0.50533   0.50870   0.51125   0.51639
 Alpha virt. eigenvalues --    0.52428   0.52674   0.53496   0.53973   0.54407
 Alpha virt. eigenvalues --    0.54844   0.55037   0.55567   0.56305   0.56582
 Alpha virt. eigenvalues --    0.57009   0.58167   0.58383   0.59455   0.59790
 Alpha virt. eigenvalues --    0.60212   0.60537   0.61664   0.62423   0.62815
 Alpha virt. eigenvalues --    0.62879   0.64116   0.64277   0.64835   0.65075
 Alpha virt. eigenvalues --    0.66218   0.66651   0.66951   0.67418   0.68267
 Alpha virt. eigenvalues --    0.68908   0.69075   0.69921   0.70099   0.71348
 Alpha virt. eigenvalues --    0.72066   0.72436   0.72733   0.73040   0.73723
 Alpha virt. eigenvalues --    0.74039   0.74860   0.75481   0.76282   0.76782
 Alpha virt. eigenvalues --    0.76913   0.77447   0.77656   0.78484   0.79010
 Alpha virt. eigenvalues --    0.79532   0.79631   0.80080   0.80392   0.80862
 Alpha virt. eigenvalues --    0.81312   0.81783   0.82785   0.82887   0.82986
 Alpha virt. eigenvalues --    0.83817   0.84847   0.84943   0.86107   0.86502
 Alpha virt. eigenvalues --    0.87271   0.88090   0.88362   0.88861   0.89764
 Alpha virt. eigenvalues --    0.90109   0.90687   0.91766   0.92583   0.93697
 Alpha virt. eigenvalues --    0.93787   0.94127   0.95008   0.95583   0.96095
 Alpha virt. eigenvalues --    0.97220   0.97499   0.98069   0.98805   0.99703
 Alpha virt. eigenvalues --    1.00765   1.01320   1.01677   1.02848   1.04414
 Alpha virt. eigenvalues --    1.04722   1.05455   1.06692   1.07408   1.08681
 Alpha virt. eigenvalues --    1.09058   1.09861   1.10152   1.11266   1.11851
 Alpha virt. eigenvalues --    1.13469   1.13905   1.14899   1.15707   1.16701
 Alpha virt. eigenvalues --    1.17251   1.18015   1.18527   1.19940   1.20204
 Alpha virt. eigenvalues --    1.21221   1.21672   1.23426   1.23976   1.24761
 Alpha virt. eigenvalues --    1.25558   1.26156   1.27912   1.28557   1.30118
 Alpha virt. eigenvalues --    1.30628   1.32373   1.32642   1.33576   1.34075
 Alpha virt. eigenvalues --    1.34636   1.35910   1.37104   1.38238   1.39075
 Alpha virt. eigenvalues --    1.39774   1.41079   1.41936   1.42799   1.43432
 Alpha virt. eigenvalues --    1.44504   1.45378   1.45906   1.47494   1.48784
 Alpha virt. eigenvalues --    1.49271   1.49921   1.50233   1.52234   1.52966
 Alpha virt. eigenvalues --    1.53334   1.55313   1.55621   1.56741   1.57230
 Alpha virt. eigenvalues --    1.58308   1.58590   1.59595   1.60141   1.61337
 Alpha virt. eigenvalues --    1.63671   1.64928   1.65344   1.65736   1.65815
 Alpha virt. eigenvalues --    1.67061   1.68113   1.69010   1.69635   1.70174
 Alpha virt. eigenvalues --    1.72109   1.73011   1.73889   1.75520   1.77601
 Alpha virt. eigenvalues --    1.78991   1.79546   1.80605   1.81942   1.82110
 Alpha virt. eigenvalues --    1.83069   1.84893   1.85317   1.86215   1.86702
 Alpha virt. eigenvalues --    1.87393   1.88593   1.89192   1.90295   1.91509
 Alpha virt. eigenvalues --    1.92060   1.92501   1.92656   1.93197   1.95025
 Alpha virt. eigenvalues --    1.95601   1.96194   1.97696   1.98443   1.99033
 Alpha virt. eigenvalues --    2.00200   2.00931   2.01561   2.04011   2.04552
 Alpha virt. eigenvalues --    2.05786   2.06174   2.08931   2.09761   2.10776
 Alpha virt. eigenvalues --    2.11466   2.12382   2.14259   2.14850   2.15535
 Alpha virt. eigenvalues --    2.16985   2.18015   2.18327   2.20214   2.21166
 Alpha virt. eigenvalues --    2.22770   2.24161   2.24407   2.25426   2.25669
 Alpha virt. eigenvalues --    2.27268   2.29013   2.30738   2.31735   2.32755
 Alpha virt. eigenvalues --    2.34265   2.36662   2.36790   2.38551   2.40230
 Alpha virt. eigenvalues --    2.40649   2.41159   2.42477   2.43343   2.44480
 Alpha virt. eigenvalues --    2.47428   2.48033   2.48893   2.51077   2.51907
 Alpha virt. eigenvalues --    2.53641   2.53977   2.56578   2.59019   2.60382
 Alpha virt. eigenvalues --    2.60979   2.61931   2.62503   2.64817   2.66441
 Alpha virt. eigenvalues --    2.67863   2.69095   2.70338   2.71239   2.72325
 Alpha virt. eigenvalues --    2.74318   2.75127   2.77200   2.78105   2.79074
 Alpha virt. eigenvalues --    2.80894   2.84046   2.84971   2.86416   2.87344
 Alpha virt. eigenvalues --    2.89187   2.90033   2.92492   2.94157   2.96625
 Alpha virt. eigenvalues --    2.98261   3.01334   3.04223   3.08016   3.10231
 Alpha virt. eigenvalues --    3.11160   3.15465   3.20356   3.24986   3.29120
 Alpha virt. eigenvalues --    3.30595   3.35270   3.39092   3.42792   3.47216
 Alpha virt. eigenvalues --    3.49900   3.51844   3.55868   3.57515   3.57901
 Alpha virt. eigenvalues --    3.58433   3.59040   3.59708   3.61448   3.62764
 Alpha virt. eigenvalues --    3.63521   3.65395   3.65976   3.66514   3.68990
 Alpha virt. eigenvalues --    3.71466   3.72185   3.73770   3.76518   3.77520
 Alpha virt. eigenvalues --    3.79257   3.82995   3.84780   3.88407   3.90413
 Alpha virt. eigenvalues --    3.91744   3.96744   4.01836   4.04567   4.06263
 Alpha virt. eigenvalues --    4.10631   4.13556   4.16456   4.23010   4.27070
 Alpha virt. eigenvalues --    5.23946
          Condensed to atoms (all electrons):
               1          2          3          4          5          6
     1  C    8.766847  -2.985952   1.302944   0.274259   0.648358   0.281130
     2  C   -2.985952  10.426614  -4.022353  -0.643422  -0.951772  -0.122910
     3  C    1.302944  -4.022353  14.474889   0.243928   0.019332  -0.341283
     4  O    0.274259  -0.643422   0.243928   8.718317  -0.081846   0.021152
     5  H    0.648358  -0.951772   0.019332  -0.081846   2.182772   0.070906
     6  O    0.281130  -0.122910  -0.341283   0.021152   0.070906   9.580223
     7  H   -0.041352   0.407953  -1.144206  -0.036914   0.056841  -0.176870
     8  N   -0.091434   0.245831  -0.520045   0.005727  -0.190872  -0.046005
     9  C   -2.034896   1.830409  -3.000677  -0.074029  -0.042027  -0.410369
    10  H   -0.566324   0.390119   0.042256  -0.025987  -0.226270   0.077557
    11  O   -0.460813   0.115199   0.016683  -0.026818   0.031040  -0.038378
    12  C    0.025496  -0.109700   0.069135   0.010570   0.006604   0.013083
    13  H    0.337002  -0.070453   0.123530  -0.003074  -0.021339  -0.110892
    14  O   -0.100406   0.040077  -0.031273  -0.000400  -0.005872  -0.038085
    15  H    0.024808   0.050566  -0.013051   0.000613   0.005317   0.117085
    16  H   -0.045759  -0.026909   0.036953   0.000198  -0.001693  -0.086829
    17  H   -0.091069  -0.023199   0.009058  -0.006170   0.006789   0.013734
    18  H   -0.163191   0.185321  -0.002082   0.291183  -0.098108  -0.003742
    19  H   -0.013933   0.014797  -0.041452  -0.000723   0.000301   0.029372
    20  C   -0.045070   0.047879  -1.418649   0.010236  -0.093000  -0.121385
    21  C    0.000699  -0.042137  -0.069821   0.007067   0.013311   0.022703
    22  C   -0.005440  -0.017580  -0.106412   0.001092  -0.009404  -0.023237
    23  N   -0.043621   0.036290   0.102890  -0.000084   0.002153  -0.009105
    24  C    0.127849   0.100388  -0.883147  -0.006314   0.078474   0.172161
    25  H   -0.043345   0.151800  -0.011968  -0.008546   0.007681   0.081196
    26  H    0.000927  -0.007820   0.118356   0.000390  -0.001257  -0.003463
    27  O    0.000291   0.001910  -0.005031  -0.000004   0.000153   0.000730
    28  O   -0.010701   0.105900  -0.170427  -0.002569   0.061215  -0.010434
               7          8          9         10         11         12
     1  C   -0.041352  -0.091434  -2.034896  -0.566324  -0.460813   0.025496
     2  C    0.407953   0.245831   1.830409   0.390119   0.115199  -0.109700
     3  C   -1.144206  -0.520045  -3.000677   0.042256   0.016683   0.069135
     4  O   -0.036914   0.005727  -0.074029  -0.025987  -0.026818   0.010570
     5  H    0.056841  -0.190872  -0.042027  -0.226270   0.031040   0.006604
     6  O   -0.176870  -0.046005  -0.410369   0.077557  -0.038378   0.013083
     7  H    2.197047   0.011437   0.135197  -0.006940   0.000081  -0.038157
     8  N    0.011437   7.772899   0.157807   0.000749   0.000895   0.015883
     9  C    0.135197   0.157807  10.222221  -0.362070   0.250617  -0.318973
    10  H   -0.006940   0.000749  -0.362070   2.321516  -0.262853  -0.043920
    11  O    0.000081   0.000895   0.250617  -0.262853   8.723525   0.009399
    12  C   -0.038157   0.015883  -0.318973  -0.043920   0.009399   4.968975
    13  H    0.012843   0.024713  -1.085703   0.084939  -0.062402   0.018810
    14  O   -0.000966   0.016331   0.059791   0.029208   0.004303   0.083909
    15  H   -0.000724  -0.002550  -0.185590  -0.023519   0.007818   0.136925
    16  H    0.000458   0.002439   0.312584   0.023158   0.000644   0.051908
    17  H   -0.004425  -0.004501  -0.008110   0.042541   0.273406   0.000556
    18  H   -0.007970  -0.004539  -0.001223   0.021574  -0.011809  -0.003672
    19  H    0.000247   0.003420  -0.001040  -0.008656  -0.000845  -0.038960
    20  C    0.236471   0.242789  -0.121143  -0.011112   0.006063  -0.031280
    21  C    0.013017  -0.526330  -0.024871   0.003968   0.000197  -0.002899
    22  C    0.032141  -0.067776  -0.008190  -0.001651  -0.000010  -0.001893
    23  N   -0.006138   0.006977   0.004537  -0.006326   0.000433   0.012237
    24  C    0.017135  -0.078557   0.065443   0.007612  -0.012896  -0.038269
    25  H   -0.275655  -0.111386   0.063440  -0.004116   0.000744   0.012683
    26  H    0.002423   0.098299   0.000549   0.000247  -0.000029   0.000131
    27  O   -0.000740  -0.013011   0.000164   0.000289  -0.000001  -0.000091
    28  O    0.014240  -0.105145   0.069159  -0.031104   0.005743   0.000104
              13         14         15         16         17         18
     1  C    0.337002  -0.100406   0.024808  -0.045759  -0.091069  -0.163191
     2  C   -0.070453   0.040077   0.050566  -0.026909  -0.023199   0.185321
     3  C    0.123530  -0.031273  -0.013051   0.036953   0.009058  -0.002082
     4  O   -0.003074  -0.000400   0.000613   0.000198  -0.006170   0.291183
     5  H   -0.021339  -0.005872   0.005317  -0.001693   0.006789  -0.098108
     6  O   -0.110892  -0.038085   0.117085  -0.086829   0.013734  -0.003742
     7  H    0.012843  -0.000966  -0.000724   0.000458  -0.004425  -0.007970
     8  N    0.024713   0.016331  -0.002550   0.002439  -0.004501  -0.004539
     9  C   -1.085703   0.059791  -0.185590   0.312584  -0.008110  -0.001223
    10  H    0.084939   0.029208  -0.023519   0.023158   0.042541   0.021574
    11  O   -0.062402   0.004303   0.007818   0.000644   0.273406  -0.011809
    12  C    0.018810   0.083909   0.136925   0.051908   0.000556  -0.003672
    13  H    2.394605   0.029363  -0.104391  -0.011244  -0.014798   0.008322
    14  O    0.029363   8.422391  -0.133563  -0.048924  -0.002917   0.001050
    15  H   -0.104391  -0.133563   1.691612  -0.329328   0.007319  -0.001092
    16  H   -0.011244  -0.048924  -0.329328   1.394146  -0.002112  -0.000217
    17  H   -0.014798  -0.002917   0.007319  -0.002112   0.735273   0.021748
    18  H    0.008322   0.001050  -0.001092  -0.000217   0.021748   0.683138
    19  H    0.000586   0.237082   0.021370  -0.037652   0.000542   0.000141
    20  C    0.013423   0.003247  -0.001183   0.001348  -0.002796   0.003001
    21  C   -0.004800   0.001513  -0.000014   0.000748   0.000598  -0.002124
    22  C   -0.000034  -0.001399  -0.000452  -0.000036  -0.000145   0.000016
    23  N    0.001324  -0.002353   0.000458  -0.000362  -0.000296   0.000342
    24  C    0.000965  -0.002336  -0.011271   0.009846   0.003575  -0.000015
    25  H    0.007141  -0.000186   0.000701  -0.000209  -0.000290   0.002288
    26  H   -0.000170   0.000051  -0.000025   0.000094   0.000006  -0.000145
    27  O    0.000023   0.000031   0.000001  -0.000025   0.000001   0.000012
    28  O    0.009305  -0.026975   0.004865  -0.004912  -0.001951  -0.000311
              19         20         21         22         23         24
     1  C   -0.013933  -0.045070   0.000699  -0.005440  -0.043621   0.127849
     2  C    0.014797   0.047879  -0.042137  -0.017580   0.036290   0.100388
     3  C   -0.041452  -1.418649  -0.069821  -0.106412   0.102890  -0.883147
     4  O   -0.000723   0.010236   0.007067   0.001092  -0.000084  -0.006314
     5  H    0.000301  -0.093000   0.013311  -0.009404   0.002153   0.078474
     6  O    0.029372  -0.121385   0.022703  -0.023237  -0.009105   0.172161
     7  H    0.000247   0.236471   0.013017   0.032141  -0.006138   0.017135
     8  N    0.003420   0.242789  -0.526330  -0.067776   0.006977  -0.078557
     9  C   -0.001040  -0.121143  -0.024871  -0.008190   0.004537   0.065443
    10  H   -0.008656  -0.011112   0.003968  -0.001651  -0.006326   0.007612
    11  O   -0.000845   0.006063   0.000197  -0.000010   0.000433  -0.012896
    12  C   -0.038960  -0.031280  -0.002899  -0.001893   0.012237  -0.038269
    13  H    0.000586   0.013423  -0.004800  -0.000034   0.001324   0.000965
    14  O    0.237082   0.003247   0.001513  -0.001399  -0.002353  -0.002336
    15  H    0.021370  -0.001183  -0.000014  -0.000452   0.000458  -0.011271
    16  H   -0.037652   0.001348   0.000748  -0.000036  -0.000362   0.009846
    17  H    0.000542  -0.002796   0.000598  -0.000145  -0.000296   0.003575
    18  H    0.000141   0.003001  -0.002124   0.000016   0.000342  -0.000015
    19  H    0.592755  -0.005059   0.003143  -0.001784   0.012547  -0.018683
    20  C   -0.005059   9.847755  -1.765729   0.099986   0.034573  -1.318416
    21  C    0.003143  -1.765729   9.440550  -2.331613   0.315087   0.886417
    22  C   -0.001784   0.099986  -2.331613   9.070923  -0.230709  -0.805305
    23  N    0.012547   0.034573   0.315087  -0.230709   8.191445  -0.364957
    24  C   -0.018683  -1.318416   0.886417  -0.805305  -0.364957   7.376144
    25  H    0.000585  -0.674688  -0.058287  -0.151161   0.021905   0.072616
    26  H    0.000162   0.533313  -0.900723   0.057588  -0.045672  -0.139316
    27  O   -0.000352   0.033563  -0.027661   0.033712  -0.130973   0.087797
    28  O    0.061364  -0.027784  -0.025712   0.022699  -0.243166   0.257893
              25         26         27         28
     1  C   -0.043345   0.000927   0.000291  -0.010701
     2  C    0.151800  -0.007820   0.001910   0.105900
     3  C   -0.011968   0.118356  -0.005031  -0.170427
     4  O   -0.008546   0.000390  -0.000004  -0.002569
     5  H    0.007681  -0.001257   0.000153   0.061215
     6  O    0.081196  -0.003463   0.000730  -0.010434
     7  H   -0.275655   0.002423  -0.000740   0.014240
     8  N   -0.111386   0.098299  -0.013011  -0.105145
     9  C    0.063440   0.000549   0.000164   0.069159
    10  H   -0.004116   0.000247   0.000289  -0.031104
    11  O    0.000744  -0.000029  -0.000001   0.005743
    12  C    0.012683   0.000131  -0.000091   0.000104
    13  H    0.007141  -0.000170   0.000023   0.009305
    14  O   -0.000186   0.000051   0.000031  -0.026975
    15  H    0.000701  -0.000025   0.000001   0.004865
    16  H   -0.000209   0.000094  -0.000025  -0.004912
    17  H   -0.000290   0.000006   0.000001  -0.001951
    18  H    0.002288  -0.000145   0.000012  -0.000311
    19  H    0.000585   0.000162  -0.000352   0.061364
    20  C   -0.674688   0.533313   0.033563  -0.027784
    21  C   -0.058287  -0.900723  -0.027661  -0.025712
    22  C   -0.151161   0.057588   0.033712   0.022699
    23  N    0.021905  -0.045672  -0.130973  -0.243166
    24  C    0.072616  -0.139316   0.087797   0.257893
    25  H    2.933407  -0.168567   0.001043   0.002879
    26  H   -0.168567   2.052429  -0.013362   0.002824
    27  O    0.001043  -0.013362   8.801520  -0.005921
    28  O    0.002879   0.002824  -0.005921   8.751403
 Mulliken charges:
               1
     1  C    0.952698
     2  C    0.873154
     3  C    1.221924
     4  O   -0.667833
     5  H   -0.467787
     6  O   -0.938046
     7  H   -0.396473
     8  N    0.155957
     9  C    0.506994
    10  H   -0.464882
    11  O   -0.569934
    12  C    1.191404
    13  H   -0.577596
    14  O   -0.532691
    15  H   -0.262704
    16  H   -0.238313
    17  H    0.047633
    18  H    0.082105
    19  H    0.190727
    20  C    0.523646
    21  C    1.073704
    22  C    0.446074
    23  N   -0.659436
    24  C    0.415168
    25  H   -0.851703
    26  H   -0.587243
    27  O   -0.764068
    28  O   -0.702481
 Sum of Mulliken charges =  -1.00000
 Mulliken charges with hydrogens summed into heavy atoms:
               1
     1  C    0.487817
     2  C    0.405368
     3  C    0.825451
     4  O   -0.585728
     6  O   -0.938046
     8  N    0.155957
     9  C   -0.070602
    11  O   -0.522301
    12  C    0.690387
    14  O   -0.341964
    20  C   -0.328057
    21  C    0.486461
    22  C    0.446074
    23  N   -0.659436
    24  C    0.415168
    27  O   -0.764068
    28  O   -0.702481
 Electronic spatial extent (au):  <R**2>=           4165.3695
 Charge=             -1.0000 electrons
 Dipole moment (field-independent basis, Debye):
    X=             11.4772    Y=             -7.2114    Z=              4.3066  Tot=             14.2224
 Quadrupole moment (field-independent basis, Debye-Ang):
   XX=           -164.8683   YY=           -115.0896   ZZ=           -106.5286
   XY=              6.2094   XZ=             -6.4106   YZ=              7.1936
 Traceless Quadrupole moment (field-independent basis, Debye-Ang):
   XX=            -36.0395   YY=             13.7393   ZZ=             22.3002
   XY=              6.2094   XZ=             -6.4106   YZ=              7.1936
 Octapole moment (field-independent basis, Debye-Ang**2):
  XXX=            296.6366  YYY=            -29.0339  ZZZ=             -3.6638  XYY=             13.6302
  XXY=            -67.7123  XXZ=             58.4972  XZZ=             16.9833  YZZ=            -13.9428
  YYZ=              4.0748  XYZ=             -2.4811
 Hexadecapole moment (field-independent basis, Debye-Ang**3):
 XXXX=          -5357.6138 YYYY=          -1214.6644 ZZZZ=           -503.2480 XXXY=            149.0580
 XXXZ=            -82.4557 YYYX=            -89.5393 YYYZ=             46.5544 ZZZX=            -12.5777
 ZZZY=             18.5071 XXYY=           -868.8012 XXZZ=           -778.6938 YYZZ=           -249.1106
 XXYZ=             40.2495 YYXZ=            -34.5923 ZZXY=              7.4826
 N-N= 1.313060452577D+03 E-N=-4.775485863201D+03  KE= 9.048869181618D+02
 Calling FoFJK, ICntrl=      2127 FMM=F ISym2X=0 I1Cent= 0 IOpClX= 0 NMat=1 NMatS=1 NMatT=0.
 ***** Axes restored to original set *****
 -------------------------------------------------------------------
 Center     Atomic                   Forces (Hartrees/Bohr)
 Number     Number              X              Y              Z
 -------------------------------------------------------------------
      1        6          -0.005007986    0.000778553   -0.000061326
      2        6          -0.002246931    0.006756185    0.000548153
      3        6          -0.019448247   -0.002966235   -0.003589122
      4        8           0.004862990   -0.005953513    0.000015594
      5        1          -0.000176543    0.000875638    0.001254218
      6        8           0.012312403    0.004110197    0.002522687
      7        1           0.002331568   -0.000887225    0.001185596
      8        7           0.025461917   -0.016971238    0.012176051
      9        6          -0.008195916   -0.000565585    0.001111506
     10        1          -0.001291719   -0.000302856    0.000510589
     11        8           0.007076091   -0.002029043   -0.001039625
     12        6          -0.002203031    0.001194461   -0.003222184
     13        1           0.001992729   -0.001019364    0.000647288
     14        8           0.006477351    0.001623122    0.003392534
     15        1           0.001254264    0.000159132   -0.000048779
     16        1          -0.000242912   -0.000026052    0.001034303
     17        1          -0.001542042    0.000211748    0.000051508
     18        1          -0.000886899    0.000875372    0.000101647
     19        1          -0.007395476   -0.004179166   -0.003629322
     20        6           0.002501531   -0.001198539    0.000808148
     21        6          -0.005692711   -0.006151088    0.005784156
     22        6           0.066669927    0.015127427   -0.016472280
     23        7           0.005287250    0.004214614   -0.003961148
     24        6          -0.090020226    0.004186588    0.001449869
     25        1           0.000601105   -0.000991380    0.000792351
     26        1          -0.000158452   -0.004399409    0.003820601
     27        8          -0.031472833   -0.000707173    0.002030279
     28        8           0.039152801    0.008234830   -0.007213291
 -------------------------------------------------------------------
 Cartesian Forces:  Max     0.090020226 RMS     0.014649504

 GradGradGradGradGradGradGradGradGradGradGradGradGradGradGradGradGradGrad
 Berny optimization.
 FormGI is forming the generalized inverse of G from B-inverse, IUseBI=4.
 Internal  Forces:  Max     0.036074537 RMS     0.007128201
 Search for a local minimum.
 Step number   1 out of a maximum of  166
 All quantities printed in internal units (Hartrees-Bohrs-Radians)
 Mixed Optimization -- RFO/linear search
 Second derivative matrix not updated -- first step.
 ITU=  0
     Eigenvalues ---    0.00343   0.00562   0.00917   0.00948   0.01459
     Eigenvalues ---    0.01478   0.01524   0.01598   0.01610   0.01736
     Eigenvalues ---    0.01924   0.01933   0.02088   0.02266   0.02471
     Eigenvalues ---    0.03003   0.03636   0.04299   0.04846   0.04934
     Eigenvalues ---    0.05046   0.05096   0.05473   0.06057   0.06122
     Eigenvalues ---    0.06179   0.06601   0.07999   0.08402   0.10574
     Eigenvalues ---    0.11662   0.13537   0.14026   0.16000   0.16000
     Eigenvalues ---    0.16000   0.16000   0.16000   0.16226   0.17611
     Eigenvalues ---    0.19361   0.19746   0.22090   0.22438   0.24470
     Eigenvalues ---    0.24949   0.24995   0.24999   0.25000   0.26618
     Eigenvalues ---    0.27451   0.28796   0.30815   0.32935   0.33198
     Eigenvalues ---    0.33617   0.33736   0.33951   0.34373   0.34933
     Eigenvalues ---    0.35342   0.37074   0.37445   0.39066   0.42824
     Eigenvalues ---    0.42910   0.43105   0.44461   0.44607   0.46166
     Eigenvalues ---    0.48341   0.50085   0.53804   0.54165   0.54531
     Eigenvalues ---    0.54679   0.94324   0.96993
 RFO step:  Lambda=-2.22008025D-02 EMin= 3.43149579D-03
 Linear search not attempted -- first point.
 Iteration  1 RMS(Cart)=  0.09940356 RMS(Int)=  0.00316877
 Iteration  2 RMS(Cart)=  0.00538918 RMS(Int)=  0.00014889
 Iteration  3 RMS(Cart)=  0.00001898 RMS(Int)=  0.00014847
 Iteration  4 RMS(Cart)=  0.00000001 RMS(Int)=  0.00014847
 Variable       Old X    -DE/DX   Delta X   Delta X   Delta X     New X
                                 (Linear)    (Quad)   (Total)
    R1        2.91666  -0.00224   0.00000  -0.00897  -0.00896   2.90770
    R2        2.89803  -0.00088   0.00000  -0.00400  -0.00397   2.89406
    R3        2.06706  -0.00031   0.00000  -0.00086  -0.00086   2.06620
    R4        2.65907   0.00586   0.00000   0.01256   0.01256   2.67163
    R5        2.90404  -0.00047   0.00000  -0.00019  -0.00018   2.90386
    R6        2.67887   0.00605   0.00000   0.01344   0.01344   2.69231
    R7        2.07413  -0.00093   0.00000  -0.00256  -0.00256   2.07157
    R8        2.65164   0.00463   0.00000   0.01121   0.01120   2.66284
    R9        2.07981   0.00132   0.00000   0.00370   0.00370   2.08351
   R10        2.75181  -0.01125   0.00000  -0.02837  -0.02837   2.72344
   R11        1.82119  -0.00080   0.00000  -0.00141  -0.00141   1.81978
   R12        2.70136  -0.00768   0.00000  -0.01815  -0.01819   2.68316
   R13        2.59734  -0.01011   0.00000  -0.01777  -0.01777   2.57957
   R14        2.62346   0.02294   0.00000   0.04630   0.04637   2.66983
   R15        2.86367  -0.00183   0.00000  -0.00554  -0.00554   2.85813
   R16        2.09165   0.00214   0.00000   0.00609   0.00609   2.09775
   R17        1.82251  -0.00047   0.00000  -0.00084  -0.00084   1.82168
   R18        2.65735  -0.00083   0.00000  -0.00177  -0.00177   2.65559
   R19        2.07778   0.00125   0.00000   0.00347   0.00347   2.08125
   R20        2.08705   0.00101   0.00000   0.00284   0.00284   2.08989
   R21        1.82910   0.00872   0.00000   0.01556   0.01556   1.84466
   R22        2.54939  -0.00551   0.00000  -0.00834  -0.00840   2.54098
   R23        2.05784   0.00139   0.00000   0.00374   0.00374   2.06157
   R24        2.74195   0.01642   0.00000   0.04052   0.04045   2.78240
   R25        2.05123   0.00410   0.00000   0.01092   0.01092   2.06215
   R26        2.65341  -0.01743   0.00000  -0.03872  -0.03872   2.61470
   R27        2.29868   0.02844   0.00000   0.02866   0.02866   2.32734
   R28        2.58944  -0.02504   0.00000  -0.04849  -0.04842   2.54102
   R29        2.31002   0.03607   0.00000   0.03737   0.03737   2.34738
    A1        1.81408  -0.00018   0.00000   0.00034   0.00032   1.81440
    A2        1.91346  -0.00100   0.00000  -0.01402  -0.01408   1.89938
    A3        1.98011   0.00096   0.00000   0.00931   0.00937   1.98948
    A4        1.91173  -0.00056   0.00000  -0.00517  -0.00511   1.90661
    A5        1.98431  -0.00006   0.00000  -0.00138  -0.00151   1.98280
    A6        1.85992   0.00071   0.00000   0.00938   0.00942   1.86934
    A7        1.81834  -0.00018   0.00000   0.00537   0.00533   1.82367
    A8        1.95266  -0.00073   0.00000  -0.00404  -0.00424   1.94842
    A9        1.95036  -0.00049   0.00000  -0.01076  -0.01072   1.93965
   A10        1.85485   0.00183   0.00000   0.01830   0.01841   1.87326
   A11        1.94757  -0.00066   0.00000  -0.01246  -0.01259   1.93498
   A12        1.93490   0.00029   0.00000   0.00467   0.00470   1.93960
   A13        1.89414  -0.00098   0.00000  -0.00806  -0.00846   1.88568
   A14        1.87394  -0.00033   0.00000  -0.00092  -0.00070   1.87323
   A15        2.01903  -0.00284   0.00000  -0.02110  -0.02136   1.99767
   A16        1.93243  -0.00005   0.00000   0.00358   0.00366   1.93609
   A17        1.89893   0.00044   0.00000  -0.01258  -0.01309   1.88584
   A18        1.84481   0.00391   0.00000   0.04104   0.04115   1.88596
   A19        1.87309  -0.00163   0.00000  -0.00893  -0.00893   1.86416
   A20        1.93009  -0.00070   0.00000   0.00836   0.00837   1.93846
   A21        2.10299   0.00350   0.00000   0.01065   0.01061   2.11360
   A22        2.06633  -0.00139   0.00000  -0.00745  -0.00749   2.05885
   A23        2.11208  -0.00212   0.00000  -0.00351  -0.00344   2.10863
   A24        1.84996   0.00223   0.00000   0.00765   0.00728   1.85724
   A25        2.00650  -0.00251   0.00000  -0.01828  -0.01832   1.98818
   A26        1.90963  -0.00003   0.00000   0.00531   0.00531   1.91494
   A27        1.88241  -0.00266   0.00000  -0.02166  -0.02171   1.86070
   A28        1.90878   0.00041   0.00000   0.00648   0.00651   1.91529
   A29        1.90416   0.00258   0.00000   0.02047   0.02061   1.92477
   A30        1.88126  -0.00252   0.00000  -0.01384  -0.01384   1.86741
   A31        1.97501  -0.00456   0.00000  -0.01973  -0.01975   1.95527
   A32        1.89367   0.00213   0.00000   0.01154   0.01157   1.90524
   A33        1.88841  -0.00014   0.00000  -0.00463  -0.00466   1.88375
   A34        1.87461   0.00088   0.00000   0.00315   0.00320   1.87780
   A35        1.94508   0.00224   0.00000   0.00880   0.00869   1.95377
   A36        1.88448  -0.00036   0.00000   0.00207   0.00205   1.88654
   A37        1.90133   0.00175   0.00000   0.00959   0.00959   1.91093
   A38        2.15186  -0.01140   0.00000  -0.03978  -0.03986   2.11201
   A39        2.00246   0.00548   0.00000   0.01869   0.01873   2.02119
   A40        2.12885   0.00591   0.00000   0.02107   0.02111   2.14995
   A41        2.08926  -0.00104   0.00000  -0.00048  -0.00063   2.08863
   A42        2.12305  -0.00373   0.00000  -0.02305  -0.02298   2.10007
   A43        2.07085   0.00477   0.00000   0.02356   0.02363   2.09448
   A44        1.97190   0.01843   0.00000   0.06520   0.06511   2.03701
   A45        2.21295  -0.02491   0.00000  -0.09028  -0.09024   2.12270
   A46        2.09833   0.00649   0.00000   0.02507   0.02511   2.12344
   A47        2.23865  -0.02367   0.00000  -0.09333  -0.09324   2.14541
   A48        2.00217   0.01979   0.00000   0.07161   0.07169   2.07386
   A49        2.13930  -0.03148   0.00000  -0.11503  -0.11513   2.02417
   A50        2.14167   0.01169   0.00000   0.04358   0.04348   2.18514
    D1        0.28720  -0.00013   0.00000   0.00224   0.00245   0.28966
    D2       -1.70932  -0.00184   0.00000  -0.02032  -0.02017  -1.72949
    D3        2.39247  -0.00129   0.00000  -0.01512  -0.01499   2.37748
    D4       -1.75520   0.00107   0.00000   0.01449   0.01456  -1.74064
    D5        2.53146  -0.00064   0.00000  -0.00806  -0.00806   2.52341
    D6        0.35007  -0.00009   0.00000  -0.00286  -0.00289   0.34718
    D7        2.45115   0.00024   0.00000   0.00628   0.00639   2.45754
    D8        0.45462  -0.00148   0.00000  -0.01628  -0.01623   0.43840
    D9       -1.72677  -0.00093   0.00000  -0.01108  -0.01105  -1.73782
   D10       -0.44385  -0.00045   0.00000   0.01785   0.01786  -0.42599
   D11       -2.52130   0.00280   0.00000   0.05033   0.05035  -2.47095
   D12        1.61257   0.00124   0.00000   0.03238   0.03240   1.64497
   D13        1.59976  -0.00196   0.00000  -0.00056  -0.00053   1.59923
   D14       -0.47770   0.00130   0.00000   0.03192   0.03196  -0.44573
   D15       -2.62701  -0.00026   0.00000   0.01398   0.01401  -2.61300
   D16       -2.60506  -0.00148   0.00000   0.00685   0.00688  -2.59818
   D17        1.60067   0.00178   0.00000   0.03934   0.03938   1.64004
   D18       -0.54864   0.00022   0.00000   0.02139   0.02142  -0.52723
   D19       -1.10213   0.00011   0.00000   0.00418   0.00421  -1.09792
   D20        0.96603   0.00053   0.00000   0.01046   0.01044   0.97647
   D21        3.07373   0.00029   0.00000   0.00962   0.00961   3.08335
   D22       -0.03660  -0.00082   0.00000  -0.02452  -0.02448  -0.06108
   D23       -2.12613  -0.00003   0.00000  -0.02381  -0.02380  -2.14993
   D24        2.10261  -0.00302   0.00000  -0.06226  -0.06217   2.04043
   D25        2.02825  -0.00092   0.00000  -0.01846  -0.01838   2.00987
   D26       -0.06128  -0.00013   0.00000  -0.01776  -0.01769  -0.07897
   D27       -2.11573  -0.00311   0.00000  -0.05620  -0.05606  -2.17179
   D28       -2.14374   0.00022   0.00000  -0.00831  -0.00830  -2.15205
   D29        2.04991   0.00102   0.00000  -0.00760  -0.00762   2.04230
   D30       -0.00453  -0.00197   0.00000  -0.04605  -0.04599  -0.05053
   D31       -1.16197   0.00027   0.00000   0.00391   0.00393  -1.15804
   D32       -3.13590  -0.00019   0.00000  -0.01073  -0.01071   3.13658
   D33        1.02796  -0.00070   0.00000  -0.00971  -0.00975   1.01821
   D34       -0.25741   0.00091   0.00000   0.03743   0.03738  -0.22003
   D35        1.79518  -0.00011   0.00000   0.03352   0.03353   1.82871
   D36       -2.46785   0.00483   0.00000   0.07771   0.07764  -2.39020
   D37        2.18356   0.00052   0.00000  -0.00650  -0.00670   2.17686
   D38       -1.02162   0.00024   0.00000  -0.01223  -0.01233  -1.03394
   D39       -1.96295  -0.00244   0.00000  -0.04196  -0.04194  -2.00490
   D40        1.11505  -0.00272   0.00000  -0.04770  -0.04756   1.06749
   D41        0.11297  -0.00015   0.00000  -0.02183  -0.02182   0.09115
   D42       -3.09221  -0.00044   0.00000  -0.02757  -0.02744  -3.11965
   D43        0.44618  -0.00055   0.00000  -0.03427  -0.03435   0.41183
   D44        2.60365  -0.00374   0.00000  -0.06369  -0.06377   2.53988
   D45       -1.61081  -0.00195   0.00000  -0.04802  -0.04808  -1.65889
   D46        3.10952  -0.00014   0.00000   0.00234   0.00238   3.11190
   D47       -0.03844  -0.00022   0.00000  -0.00082  -0.00095  -0.03939
   D48        0.03320   0.00011   0.00000   0.00836   0.00829   0.04149
   D49       -3.11476   0.00004   0.00000   0.00519   0.00496  -3.10980
   D50       -3.10847  -0.00052   0.00000  -0.00561  -0.00591  -3.11438
   D51        0.04369  -0.00117   0.00000  -0.02269  -0.02232   0.02137
   D52       -0.03081  -0.00060   0.00000  -0.01084  -0.01098  -0.04179
   D53        3.12135  -0.00124   0.00000  -0.02792  -0.02738   3.09396
   D54        0.86189  -0.00069   0.00000  -0.02347  -0.02335   0.83854
   D55       -1.21669  -0.00040   0.00000  -0.02295  -0.02276  -1.23946
   D56        3.02612  -0.00104   0.00000  -0.02910  -0.02889   2.99723
   D57       -1.19739  -0.00010   0.00000  -0.00680  -0.00703  -1.20442
   D58        3.00722   0.00019   0.00000  -0.00628  -0.00645   3.00077
   D59        0.96685  -0.00045   0.00000  -0.01243  -0.01258   0.95427
   D60        3.01411  -0.00051   0.00000  -0.01357  -0.01361   3.00051
   D61        0.93553  -0.00022   0.00000  -0.01305  -0.01302   0.92251
   D62       -1.10484  -0.00086   0.00000  -0.01920  -0.01915  -1.12399
   D63        0.64492  -0.00245   0.00000  -0.04995  -0.04999   0.59494
   D64        2.73446  -0.00197   0.00000  -0.04542  -0.04543   2.68903
   D65       -1.48798  -0.00061   0.00000  -0.03601  -0.03597  -1.52395
   D66       -0.01358  -0.00009   0.00000   0.00100   0.00058  -0.01300
   D67        3.13542  -0.00018   0.00000  -0.00318  -0.00350   3.13192
   D68        3.13483  -0.00000   0.00000   0.00442   0.00420   3.13902
   D69        0.00064  -0.00010   0.00000   0.00023   0.00011   0.00076
   D70       -0.00500  -0.00031   0.00000  -0.00896  -0.00928  -0.01428
   D71        3.14029  -0.00014   0.00000  -0.00408  -0.00421   3.13609
   D72        3.12941  -0.00025   0.00000  -0.00510  -0.00541   3.12400
   D73       -0.00849  -0.00008   0.00000  -0.00021  -0.00034  -0.00882
   D74        0.00517   0.00030   0.00000   0.00808   0.00837   0.01354
   D75       -3.13985   0.00006   0.00000   0.00327   0.00302  -3.13683
   D76        0.01238   0.00003   0.00000   0.00130   0.00115   0.01353
   D77       -3.13979   0.00039   0.00000   0.01733   0.01816  -3.12163
         Item               Value     Threshold  Converged?
 Maximum Force            0.036075     0.000450     NO 
 RMS     Force            0.007128     0.000300     NO 
 Maximum Displacement     0.385462     0.001800     NO 
 RMS     Displacement     0.102354     0.001200     NO 
 Predicted change in Energy=-1.238610D-02
 GradGradGradGradGradGradGradGradGradGradGradGradGradGradGradGradGradGrad

                          Input orientation:                          
 ---------------------------------------------------------------------
 Center     Atomic      Atomic             Coordinates (Angstroms)
 Number     Number       Type             X           Y           Z
 ---------------------------------------------------------------------
      1          6           0        2.321265   -0.233737   -0.605836
      2          6           0        1.202361   -1.289791   -0.586621
      3          6           0        0.369273   -0.944635    0.657621
      4          8           0        1.722418   -2.602758   -0.398313
      5          1           0        0.590230   -1.233612   -1.494283
      6          8           0        0.996932    0.129847    1.318785
      7          1           0        0.347461   -1.842188    1.297565
      8          7           0       -0.991801   -0.562687    0.377275
      9          6           0        2.304849    0.347639    0.810897
     10          1           0        2.054502    0.549998   -1.320040
     11          8           0        3.582543   -0.739713   -0.995576
     12          6           0        2.546421    1.839728    0.864154
     13          1           0        3.045939   -0.184939    1.442895
     14          8           0        1.749523    2.536021   -0.060469
     15          1           0        3.599811    2.044477    0.616322
     16          1           0        2.365941    2.177041    1.901799
     17          1           0        3.840395   -1.392914   -0.335183
     18          1           0        2.238840   -2.812984   -1.183458
     19          1           0        0.887829    2.086458   -0.151293
     20          6           0       -2.040842   -1.210133    0.963527
     21          6           0       -3.308843   -0.830366    0.726921
     22          6           0       -3.573481    0.311042   -0.164742
     23          7           0       -2.469843    0.948222   -0.703666
     24          6           0       -1.207224    0.557413   -0.456393
     25          1           0       -1.779324   -2.044998    1.615259
     26          1           0       -4.139479   -1.361622    1.194494
     27          8           0       -4.720546    0.685776   -0.410888
     28          8           0       -0.186862    1.109416   -0.900434
 ---------------------------------------------------------------------
                    Distance matrix (angstroms):
                    1          2          3          4          5
     1  C    0.000000
     2  C    1.538689   0.000000
     3  C    2.431455   1.536655   0.000000
     4  O    2.452334   1.424711   2.386498   0.000000
     5  H    2.187594   1.096226   2.182435   2.087477   0.000000
     6  O    2.364364   2.384983   1.409114   3.307852   3.152424
     7  H    3.178986   2.141530   1.102545   2.311920   2.867702
     8  N    3.471472   2.504421   1.441180   3.482874   2.540805
     9  C    1.531470   2.418618   2.332363   3.241335   3.279348
    10  H    1.093384   2.156124   2.997510   3.301474   2.314242
    11  O    1.413765   2.476912   3.619414   2.699578   3.073529
    12  C    2.551632   3.702045   3.540523   4.691321   4.339854
    13  H    2.173668   2.956080   2.891078   3.314755   3.969538
    14  O    2.880256   3.900393   3.812572   5.149944   4.196417
    15  H    2.884200   4.279273   4.401462   5.113793   4.925251
    16  H    3.478805   4.423243   3.908903   5.343325   5.130212
    17  H    1.929948   2.651994   3.638035   2.439986   3.454339
    18  H    2.644419   1.936651   3.221114   0.962984   2.304114
    19  H    2.764896   3.418698   3.179743   4.769308   3.593751
    20  C    4.737533   3.595507   2.443915   4.237468   3.600544
    21  C    5.816384   4.720957   3.680543   5.451708   4.505455
    22  C    5.936276   5.054633   4.218804   6.049077   4.635744
    23  N    4.935718   4.302033   3.673770   5.502522   3.840510
    24  C    3.619183   3.038952   2.445919   4.309624   2.741501
    25  H    5.002875   3.782731   2.596986   4.077715   3.992791
    26  H    6.801067   5.631411   4.559710   6.199942   5.442063
    27  O    7.104267   6.246165   5.450340   7.233699   5.749968
    28  O    2.860340   2.790092   2.637412   4.204487   2.538958
                    6          7          8          9         10
     6  O    0.000000
     7  H    2.076339   0.000000
     8  N    2.306751   2.068255   0.000000
     9  C    1.419869   2.977171   3.447407   0.000000
    10  H    2.873739   3.935530   3.660452   2.155114   0.000000
    11  O    3.577399   4.115786   4.779192   2.465397   2.025720
    12  C    2.351872   4.310426   4.304377   1.512457   2.583813
    13  H    2.076758   3.170075   4.193040   1.110079   3.026035
    14  O    2.873745   4.793615   4.160345   2.420059   2.371459
    15  H    3.306696   5.113515   5.285579   2.143373   2.893258
    16  H    2.530829   4.538013   4.593986   2.130848   3.622777
    17  H    3.624871   3.881790   4.954491   2.588615   2.816782
    18  H    4.057561   3.267297   4.235181   3.737826   3.370798
    19  H    2.449767   4.222019   3.290951   2.440747   2.255616
    20  C    3.339135   2.493003   1.365051   4.618980   5.008451
    21  C    4.451068   3.836402   2.358514   5.736574   5.904314
    22  C    4.808571   4.706222   2.778895   5.958856   5.750305
    23  N    4.096165   4.441679   2.374002   5.045025   4.583470
    24  C    2.862232   3.354326   1.412811   3.739610   3.374137
    25  H    3.539130   2.159925   2.085675   4.801268   5.481624
    26  H    5.350013   4.513778   3.348734   6.678179   6.952882
    27  O    5.999198   5.915582   4.010411   7.138856   6.837124
    28  O    2.699232   3.718691   2.253085   3.117303   2.347921
                   11         12         13         14         15
    11  O    0.000000
    12  C    3.344497   0.000000
    13  H    2.557705   2.164195   0.000000
    14  O    3.868439   1.405275   3.368148   0.000000
    15  H    3.217177   1.101351   2.441371   2.030573   0.000000
    16  H    4.287466   1.105921   2.500389   2.087902   1.786746
    17  H    0.963990   3.682765   2.291708   4.459119   3.574759
    18  H    2.477759   5.092647   3.802072   5.487475   5.355966
    19  H    3.995189   1.960341   3.515411   0.976152   2.818837
    20  C    5.973427   5.509492   5.211157   5.426703   6.521503
    21  C    7.103972   6.436797   6.427476   6.126958   7.483746
    22  C    7.280319   6.391299   6.829876   5.770249   7.420982
    23  N    6.290128   5.330642   6.026245   4.553884   6.307523
    24  C    4.991505   4.180673   4.716755   3.579664   5.144868
    25  H    6.104903   5.862365   5.174233   6.020511   6.830576
    26  H    8.050639   7.420177   7.285363   7.172649   8.475399
    27  O    8.444830   7.467673   8.031995   6.738545   8.492913
    28  O    4.199612   3.334361   4.197326   2.547613   4.184947
                   16         17         18         19         20
    16  H    0.000000
    17  H    4.463484   0.000000
    18  H    5.868161   2.302421   0.000000
    19  H    2.531444   4.567000   5.186050   0.000000
    20  C    5.636757   6.025695   5.049193   4.548346   0.000000
    21  C    6.529013   7.249560   6.193311   5.185671   1.344631
    22  C    6.559670   7.609078   6.676854   4.801622   2.436380
    23  N    5.628787   6.740608   6.045540   3.588128   2.760810
[...]
 027,0.00008180,0.00010426,-0.00001491,0.00001000,-0.00004158,-0.000027
 67,-0.00002047,-0.00092847,-0.00046552,-0.00045421,-0.04897424,0.05261
 885,-0.09679778,-0.03889589,-0.24888593,0.31809853,-0.00140899,0.00053
 282,-0.00009014,-0.00089088,0.00190149,0.00011678,-0.00462021,-0.00068
 001,-0.00051298,0.00124775,-0.00205111,0.00004588,-0.00009706,0.000484
 20,0.00036333,0.00249250,0.00046767,0.00101748,0.00104222,-0.00105044,
 0.00078980,0.00289465,-0.01807936,0.01457249,-0.00179734,-0.00024778,0
 .00014705,-0.00058076,-0.00005684,0.00018341,0.00166197,-0.00066988,-0
 .00019234,-0.00105814,0.00084367,-0.00146666,0.00053832,-0.00023995,0.
 00020276,0.00396716,0.00157253,0.00192826,0.00049814,-0.00003054,0.000
 09075,0.00002310,-0.00004203,0.00046968,-0.00022024,0.00003420,0.00002
 807,-0.00007664,0.00022965,0.00007419,-0.00539277,-0.00349159,-0.00222
 878,0.00783529,0.03130007,-0.02775367,-0.09665965,0.00954027,-0.006201
 79,0.85900836,-0.00014794,0.00082338,0.00000188,-0.00100364,-0.0000588
 5,-0.00088302,0.00632926,-0.00224300,0.00314471,-0.00033532,-0.0003897
 4,0.00045380,0.00000097,0.00036869,-0.00005776,-0.00361637,-0.00216942
 ,-0.00046303,0.00077560,-0.00026090,0.00015950,-0.01815316,-0.02604975
 ,0.01895311,0.00094691,0.00052122,-0.00101627,-0.00037142,0.00000824,0
 .00015359,-0.00041637,-0.00038591,0.00023376,-0.00100295,0.00104134,-0
 .00103673,-0.00033738,-0.00013318,0.00013314,0.00277516,0.00045348,0.0
 0141630,0.00014908,-0.00020988,0.00013692,0.00009604,-0.00005971,0.000
 22861,0.00021696,0.00001644,0.00002778,0.00000592,0.00009481,0.0000027
 7,-0.00319232,-0.00201784,-0.00147064,0.04843112,0.00458523,-0.0042511
 4,-0.00747232,-0.15690812,0.06679144,-0.09221760,0.43320600,0.00015494
 ,-0.00075080,0.00013716,0.00115196,-0.00029782,0.00108480,-0.00480899,
 0.00156544,-0.00281433,0.00013246,0.00042826,-0.00059165,-0.00003384,-
 0.00038847,-0.00004837,0.00240596,0.00162296,-0.00019882,-0.00068258,0
 .00036931,0.00007039,0.01431566,0.01725830,-0.02407895,-0.00080791,-0.
 00033829,0.00075980,0.00038794,0.00009928,-0.00014850,0.00025240,0.000
 32282,-0.00029618,0.00071585,-0.00063249,0.00075699,0.00023990,0.00008
 306,-0.00010791,-0.00157485,-0.00000145,-0.00097689,-0.00009050,0.0001
 6084,-0.00010169,-0.00007042,0.00000371,-0.00020381,-0.00017182,0.0000
 3318,-0.00000174,0.00006969,-0.00011205,0.00001571,0.00232067,0.000969
 61,0.00111632,-0.04089024,-0.00281016,0.00996468,0.00778011,0.06536355
 ,-0.13905213,0.04733630,-0.18265239,0.37198916,0.00190288,-0.00163549,
 0.00075037,0.00145984,-0.00264869,0.00044680,0.00305943,0.00008696,0.0
 0014894,-0.00121867,0.00296236,-0.00045919,-0.00005724,-0.00107994,-0.
 00043931,-0.00049068,0.00148459,-0.00170799,-0.00115813,0.00122822,-0.
 00110256,-0.00627409,0.04675160,-0.03758639,0.00153409,-0.00018653,0.0
 0083795,0.00131740,0.00022907,-0.00059744,-0.00185586,0.00138983,-0.00
 019486,0.00215764,-0.00184183,0.00285296,-0.00036157,0.00037019,-0.000
 37488,-0.00747741,-0.00329995,-0.00411657,-0.00072427,0.00022387,-0.00
 027148,-0.00018779,0.00009206,-0.00084550,-0.00002748,-0.00000245,-0.0
 0003306,0.00004131,-0.00040538,-0.00020066,0.00985599,0.00793734,0.005
 14388,-0.03730863,-0.01212019,0.01333965,0.01835149,-0.02110078,0.0169
 7383,-0.17994306,-0.07594143,0.07135688,0.73507464,0.00016859,-0.00064
 680,0.00026368,-0.00012130,0.00004550,0.00079663,-0.00490745,-0.004101
 78,0.00442816,0.00002539,0.00044885,-0.00041496,-0.00015751,-0.0001380
 2,-0.00027371,0.00177237,0.00207552,0.00013251,0.00171878,-0.00102385,
 0.00030385,0.03609254,-0.00628482,0.01966006,-0.00067623,-0.00036984,0
 .00071970,0.00021821,0.00006247,-0.00018207,0.00013419,0.00038988,-0.0
 0020481,0.00065003,-0.00055062,0.00058727,0.00018107,0.00004106,-0.000
 09004,-0.00125543,0.00010424,-0.00066351,-0.00007950,0.00011674,-0.000
 04920,-0.00001315,0.00002362,-0.00011151,-0.00017848,0.00001487,-0.000
 02404,-0.00004998,-0.00005870,-0.00009119,0.00124915,0.00051349,0.0006
 7557,0.00099875,0.00076066,-0.00145064,-0.02240684,-0.00748681,0.02375
 855,-0.05726195,-0.14036171,0.06995264,0.00173742,0.23602395,-0.000151
 89,0.00040347,-0.00017340,-0.00030844,0.00071523,-0.00103967,0.0036798
 1,0.00641677,-0.00026612,-0.00013666,-0.00027427,0.00051331,-0.0001959
 7,0.00030384,0.00008443,-0.00017551,-0.00173920,0.00091011,-0.00160062
 ,0.00021008,-0.00064226,-0.02706568,0.01858055,0.00739851,0.00050408,0
 .00018234,-0.00045484,-0.00026702,-0.00007796,0.00011310,0.00002906,-0
 .00025945,0.00022608,-0.00061316,0.00045203,-0.00063075,-0.00007560,-0
 .00004134,0.00005215,0.00146965,0.00066538,0.00095393,0.00009062,-0.00
 010493,0.00007779,0.00007654,-0.00000393,0.00018991,0.00012642,-0.0000
 1037,-0.00000172,-0.00009706,0.00010349,0.00005479,-0.00156538,-0.0018
 6139,-0.00103038,0.00137432,-0.00038616,-0.00027058,0.01896409,0.02391
 276,-0.00292434,0.05511633,0.06991870,-0.12475406,-0.04259775,-0.14553
 457,0.18460412,-0.00406493,0.00287927,-0.00011829,-0.00386295,0.004493
 65,-0.00344256,0.00388423,0.03450803,-0.02240818,0.00207843,-0.0050800
 3,0.00206461,-0.00066917,0.00348109,0.00198427,-0.00116136,-0.00851498
 ,0.00320997,-0.00568253,0.00097844,0.00089819,-0.14194062,0.00404062,0
 .00219677,-0.00187692,0.00086541,-0.00268677,-0.00231658,-0.00027400,0
 .00056470,0.00228162,-0.00213510,0.00033559,-0.00392760,0.00315123,-0.
 00489792,0.00036673,-0.00053076,0.00068939,0.01338973,0.00450055,0.006
 15225,0.00124973,-0.00051276,0.00057870,0.00029120,-0.00012439,0.00138
 053,0.00018011,0.00006791,0.00004817,-0.00026033,0.00070224,0.00063429
 ,-0.02114454,-0.01274170,-0.00655388,0.04084320,-0.00969652,0.00368882
 ,-0.01395173,0.01160996,-0.00868257,-0.08519138,-0.01771924,0.01781740
 ,-0.33192796,0.06678287,-0.03822222,0.88686964,-0.00077591,0.00327950,
 -0.00103549,-0.00288240,-0.00018246,-0.00278816,0.03307632,-0.00269544
 ,0.00544355,-0.00063759,-0.00161393,0.00184629,0.00130471,0.00102586,-
 0.00057150,-0.00995297,-0.00911567,0.00038421,-0.00212389,0.00303241,0
 .00028977,0.02156650,-0.11039392,0.03630068,0.00178386,0.00134650,-0.0
 0373667,-0.00175251,-0.00052355,0.00067692,-0.00067864,-0.00197044,0.0
 0125844,-0.00332806,0.00239794,-0.00326193,-0.00083132,-0.00030206,0.0
 0048547,0.00675886,0.00142584,0.00308758,0.00050390,-0.00057957,0.0003
 5729,0.00014857,-0.00011365,0.00069115,0.00087068,-0.00012150,0.000127
 95,0.00001010,0.00052559,0.00022313,-0.00980315,-0.00685927,-0.0019804
 2,-0.04060115,-0.02602955,0.02435971,0.01674393,-0.00839139,0.00613462
 ,0.00009940,0.01421050,-0.02895528,0.07960863,-0.11793658,0.03453757,0
 .06753140,0.41999146,0.00122774,-0.00255454,0.00083999,0.00354117,-0.0
 0134827,0.00421435,-0.02893418,-0.00215907,-0.00579935,0.00002992,0.00
 164661,-0.00212448,0.00082414,-0.00221415,-0.00049828,0.00836323,0.008
 60463,-0.00129806,0.00325906,-0.00089832,0.00151900,-0.01005294,0.0333
 6388,-0.09380857,-0.00270747,-0.00142191,0.00359233,0.00105067,0.00032
 533,-0.00081958,0.00022046,0.00137140,-0.00105174,0.00312465,-0.002881
 04,0.00350722,0.00093728,0.00035056,-0.00043031,-0.01091351,-0.0042912
 6,-0.00582752,-0.00064101,0.00073132,-0.00056754,-0.00033456,0.0000803
 8,-0.00091128,-0.00057283,0.00014403,0.00000437,0.00025934,-0.00045521
 ,-0.00030592,0.01242402,0.00960997,0.00706529,0.03070212,0.02412267,-0
 .02213624,-0.01272101,0.00657325,-0.00410551,0.00416201,-0.02610501,0.
 00286917,-0.05046163,0.03484970,-0.09633342,-0.09512297,-0.16239040,0.
 36031578,-0.00000874,-0.00007568,-0.00000136,-0.00010770,0.00015026,0.
 00004547,0.00035474,-0.00386369,0.00212820,0.00007007,-0.00004337,-0.0
 0011039,0.00003595,-0.00005616,-0.00009458,0.00037532,0.00076656,0.000
 21689,-0.00052208,0.00049049,-0.00010475,0.00545761,-0.02013555,0.0171
 4781,-0.00031669,-0.00009519,0.00013256,0.00002450,-0.00000068,-0.0000
 1302,0.00010965,0.00002333,-0.00004709,0.00007368,-0.00006806,0.000041
 45,0.00005194,-0.00001129,-0.00001035,-0.00011441,0.00003933,-0.000086
 60,-0.00000089,0.00002304,-0.00001501,-0.00001104,-0.00000106,-0.00000
 963,-0.00004338,0.00000553,0.00000439,0.00001866,0.00000503,-0.0000187
 1,0.00015814,0.00006558,0.00012585,-0.07441572,0.05800118,-0.04703930,
 0.00050191,0.02271694,-0.01889442,-0.00478807,-0.00190541,0.00319660,0
 .00117843,0.00016978,-0.00041820,-0.00455693,0.00121747,-0.00005639,0.
 07767155,0.00010979,-0.00008457,-0.00004160,0.00002816,0.00039063,-0.0
 0004252,0.00305779,-0.00112544,-0.00062841,-0.00008734,0.00006065,-0.0
 0001418,0.00006766,-0.00005430,-0.00011634,-0.00039522,-0.00006387,-0.
 00040599,-0.00072043,0.00103616,-0.00039403,0.00406591,-0.01275414,0.0
 1278569,-0.00013397,0.00001676,-0.00008374,0.00006463,0.00001698,-0.00
 001633,0.00002081,0.00004438,-0.00004680,0.00011285,-0.00008817,0.0001
 4867,-0.00004244,0.00000445,0.00000774,-0.00024727,-0.00002373,-0.0001
 7546,-0.00001515,0.00001702,-0.00001748,-0.00001212,-0.00000841,-0.000
 04837,-0.00002350,0.00000560,0.00000189,0.00001776,0.00002145,0.000008
 22,0.00031653,0.00018487,0.00019770,0.05187301,-0.20173445,0.13754480,
 -0.00019543,-0.00061154,0.00754311,0.00149917,0.00676730,0.00403546,0.
 00055860,-0.00096200,-0.00104649,-0.00331459,0.00473925,-0.00080315,-0
 .05643230,0.20932934,-0.00006297,0.00005950,-0.00003669,0.00019736,0.0
 0016760,0.00011510,-0.00216160,0.00023416,-0.00125517,-0.00003106,-0.0
 0028356,-0.00000864,-0.00006604,0.00006844,0.00002923,-0.00014131,-0.0
 0037983,0.00029455,0.00075887,-0.00070953,0.00063144,-0.00409225,0.014
 87718,-0.00952811,0.00006069,-0.00008921,-0.00003259,-0.00004981,-0.00
 000170,0.00001638,0.00000382,-0.00009317,0.00000755,-0.00012639,0.0000
 9398,-0.00007489,0.00001647,-0.00000339,0.00000495,0.00023682,0.000006
 76,0.00012396,0.00001985,-0.00002671,0.00001117,0.00000398,-0.00001431
 ,0.00001237,0.00003942,0.00002332,0.00001413,0.00003809,-0.00001851,0.
 00001343,-0.00029945,-0.00014567,-0.00016864,-0.04165158,0.13702997,-0
 .15303956,0.00039820,0.00578234,0.00331167,0.00000655,0.00436273,0.008
 02782,-0.00057187,-0.00103991,-0.00121566,0.00357773,-0.00164279,0.003
 88003,0.04410827,-0.15586243,0.15458768,0.00005125,0.00001558,0.000018
 08,-0.00011750,-0.00006132,-0.00025316,0.00032937,-0.00067900,0.001180
 00,-0.00010847,0.00012924,0.00007378,0.00001738,0.00001204,-0.00001840
 ,-0.00037581,-0.00017887,-0.00009287,-0.00003000,0.00001739,-0.0000555
 9,-0.00308575,0.00369300,-0.00231154,0.00012546,0.00005336,-0.00007722
 ,-0.00000477,-0.00000162,0.00000077,-0.00011011,0.00001106,0.00002885,
 -0.00000487,0.00001641,0.00002211,-0.00006150,0.00000326,-0.00000293,-
 0.00004110,-0.00004486,-0.00002442,-0.00001263,-0.00001258,0.00000235,
 0.00000311,-0.00000401,-0.00001379,0.00002177,-0.00000437,0.00000126,-
 0.00001001,0.00000580,-0.00000436,0.00005692,0.00006182,0.00002650,-0.
 01520323,-0.01611108,0.01515103,-0.22628256,-0.10129037,0.10415603,0.0
 0405915,0.00405262,-0.00383908,0.00116499,0.00121595,-0.00093059,0.000
 12573,0.00050518,-0.00046101,0.00055342,0.00000221,-0.00047989,0.23782
 226,0.00002753,-0.00000315,0.00005131,-0.00016020,0.00004837,-0.000046
 08,-0.00003177,0.00120164,0.00055089,-0.00007419,0.00003400,0.00000083
 ,0.00001765,-0.00002402,-0.00003152,0.00068281,0.00010102,0.00016218,0
 .00003514,0.00000280,-0.00006511,0.00332873,0.00388309,0.00382913,-0.0
 0001292,-0.00003458,0.00015807,0.00001721,-0.00000164,-0.00001161,-0.0
 0004221,0.00000022,-0.00002366,0.00007603,-0.00005434,0.00007518,0.000
 04676,0.00001449,-0.00001930,-0.00017457,-0.00003608,-0.00011521,-0.00
 001481,0.00001620,-0.00000862,-0.00000473,-0.00000384,-0.00002497,0.00
 000680,0.00001426,0.00001006,0.00000066,0.00000903,0.00000217,0.000206
 27,0.00011844,0.00011626,0.00942202,0.00452936,-0.00587708,-0.10419658
 ,-0.10257507,0.07473454,-0.02125945,-0.00336053,0.00606506,-0.00004783
 ,-0.00362639,0.00441670,0.00289906,-0.00120789,0.00077005,-0.00082808,
 -0.00181976,-0.00319010,0.10944760,0.10175882,-0.00003680,0.00007264,0
 .00005214,-0.00040244,0.00018316,-0.00021682,-0.00060714,0.00095075,0.
 00126412,-0.00006968,-0.00004675,0.00006985,0.00000214,0.00001866,-0.0
 0001858,0.00057729,-0.00003601,0.00018676,-0.00001837,-0.00005074,0.00
 002446,-0.00124730,0.00334773,0.00575650,-0.00003695,-0.00001997,0.000
 09579,-0.00002455,-0.00001458,0.00000683,-0.00000845,-0.00005554,-0.00
 001190,-0.00002786,0.00002837,-0.00003797,0.00004218,-0.00000223,-0.00
 000457,0.00008918,0.00001447,0.00003106,0.00001179,0.00000428,0.000001
 40,0.00000016,-0.00000798,0.00000651,0.00001189,0.00001481,0.00001437,
 -0.00000764,0.00004746,0.00000780,-0.00010401,-0.00006408,-0.00003871,
 -0.00691991,-0.00376257,0.00245370,0.10634953,0.07449273,-0.09988596,0
 .01824027,0.00374209,-0.00287499,0.00022144,0.00449544,-0.00229112,-0.
 00259979,0.00119284,-0.00083895,0.00017100,-0.00323569,-0.00279833,-0.
 11259457,-0.07854677,0.09875389,0.00107760,-0.00018213,0.00017860,0.00
 016568,-0.00171556,-0.00035396,0.00574456,-0.00044215,0.00166397,-0.00
 102895,0.00151791,0.00011806,0.00004263,-0.00020608,-0.00032221,-0.003
 27431,-0.00111728,-0.00095935,-0.00034224,0.00027455,-0.00021631,-0.00
 778269,0.00768412,-0.00508565,0.00171761,0.00033374,-0.00046378,0.0003
 2547,0.00005169,-0.00013596,-0.00147296,0.00043882,0.00021556,0.000526
 13,-0.00034354,0.00084915,-0.00053313,0.00014165,-0.00011140,-0.002248
 47,-0.00119435,-0.00111222,-0.00033717,-0.00005009,-0.00002556,0.00000
 388,0.00001671,-0.00029754,0.00022590,-0.00002568,-0.00001371,0.000028
 14,-0.00015053,-0.00007197,0.00306153,0.00236590,0.00137296,0.00542976
 ,0.00120705,-0.00132572,-0.03117531,0.02955803,-0.02288976,-0.52616541
 ,0.14200880,-0.10136563,-0.10201227,-0.00320208,0.00783500,0.02566564,
 -0.01209749,0.00852388,-0.00135094,0.00070215,-0.00058066,0.00116817,0
 .00164057,-0.00167768,0.64770265,-0.00018683,-0.00020358,-0.00004292,0
 .00029210,0.00034479,0.00032947,-0.00281932,0.00041301,-0.00171182,0.0
 0033882,-0.00015710,-0.00014811,-0.00000663,-0.00006218,0.00009231,0.0
 0165046,0.00091581,0.00032470,-0.00023497,0.00019219,-0.00006828,0.005
 09470,0.00444056,-0.00519294,-0.00067061,-0.00022054,0.00036346,0.0000
 3729,-0.00001007,-0.00001805,0.00045105,0.00004347,-0.00010811,0.00019
 573,-0.00023137,0.00010874,0.00020295,0.00001087,-0.00001041,-0.000231
 13,0.00025785,-0.00011941,0.00003229,0.00006880,-0.00002894,-0.0000245
 9,0.00001379,0.00000762,-0.00012210,-0.00001071,-0.00001248,-0.0000245
 1,-0.00000885,0.00000981,0.00007767,-0.00010655,0.00004803,-0.00979395
 ,-0.00551371,0.00815110,0.04685792,-0.00719064,0.02438678,0.14244342,-
 0.13392462,0.04384757,-0.01713648,0.02319025,-0.00618591,-0.00133493,0
 .00022333,0.00800986,0.00185833,-0.00186042,-0.00080813,-0.00063996,0.
 00104594,-0.00224408,-0.16506410,0.11833991,0.00011736,0.00017988,-0.0
 0003279,-0.00026338,-0.00020157,-0.00032790,0.00203838,-0.00089217,0.0
 0065393,-0.00017243,0.00011126,0.00019507,0.00001952,0.00005790,-0.000
 02072,-0.00128371,-0.00061846,-0.00003230,0.00024130,-0.00012011,0.000
 03300,-0.00396882,-0.00464550,0.00389221,0.00050320,0.00015057,-0.0003
 1113,-0.00004723,-0.00002019,0.00002159,-0.00030055,-0.00000880,0.0001
 4092,-0.00012227,0.00011925,-0.00010800,-0.00015209,-0.00000165,0.0000
 1594,0.00010551,-0.00014155,0.00016233,-0.00003271,-0.00005435,0.00002
 650,0.00002579,0.00000402,0.00002614,0.00008066,-0.00002185,-0.0000100
 4,-0.00002332,-0.00000505,-0.00003081,-0.00014524,0.00005020,-0.000158
 12,0.00812713,0.00731786,-0.00418130,-0.03788837,0.02529154,0.00395848
 ,-0.10144856,0.04426653,-0.10905588,0.01951170,-0.00770279,0.02034772,
 0.00053741,0.00894117,0.00265906,-0.00184881,-0.00052773,-0.00181769,0
 .00039146,-0.00251519,0.00043700,0.11422168,-0.06751756,0.08424128,0.0
 0008638,-0.00333879,0.00260782,0.00200555,-0.00177442,0.00213329,-0.01
 797852,-0.00413636,-0.00210626,-0.00067411,0.00415028,-0.00156209,-0.0
 0075759,-0.00088745,-0.00057109,0.00561013,0.00961720,-0.00419815,0.00
 121241,-0.00001564,-0.00101126,0.01076203,-0.02804852,0.02198302,0.000
 56246,-0.00115160,0.00387087,-0.00118280,0.00239958,-0.00138804,-0.001
 89041,0.00329937,-0.00155558,0.00473259,-0.00498122,0.00596377,0.00017
 837,0.00061781,-0.00065855,-0.02273870,-0.01267167,-0.01315905,-0.0014
 5002,0.00086505,-0.00083631,-0.00056416,0.00027905,-0.00169579,-0.0007
 8040,0.00008103,-0.00007463,-0.00000172,-0.00077647,-0.00048538,0.0131
 5809,0.01137458,0.00663649,-0.00815704,-0.00299377,0.00432914,0.002990
 33,-0.00741242,0.00592858,0.02362202,0.01804442,-0.01529882,-0.1060730
 2,-0.02280517,0.02515584,-0.35469045,-0.14626443,0.13432982,-0.0003989
 7,-0.00087726,0.00084878,-0.00005067,-0.00100747,0.00066624,-0.0151615
 1,-0.00124261,0.00177638,0.46762974,-0.00032792,-0.00184911,-0.0006181
 9,-0.00100982,-0.00167892,-0.00011538,-0.00994577,-0.00190973,-0.00601
 061,0.00262108,-0.00117139,0.00080469,0.00128630,-0.00139835,0.0011047
 2,0.00457687,0.00470676,0.00157600,0.00002505,0.00048629,0.00033643,-0
 .03720828,-0.03859124,0.04776904,-0.00201368,-0.00119824,0.00102384,0.
 00181943,-0.00115758,-0.00060375,0.00078767,0.00140127,0.00013985,0.00
 373375,-0.00594112,0.00566444,0.00027156,0.00063432,-0.00020362,-0.021
 50325,-0.00631336,-0.01076364,-0.00139849,0.00088211,-0.00092470,-0.00
 051263,0.00056120,-0.00132574,-0.00050150,-0.00028033,-0.00026919,-0.0
 0040943,-0.00028152,0.00002668,0.01545330,0.00630259,0.00450313,0.0083
 5636,-0.00200896,0.00364459,-0.00207953,-0.00121259,-0.00049147,0.0064
 2999,0.00643650,0.00475814,-0.00721377,0.01973677,-0.00329291,-0.14651
 272,-0.16416133,0.07696871,-0.00201632,-0.00144404,0.00160297,-0.00021
 448,-0.00003041,-0.00051843,-0.00215067,-0.00000025,-0.00149566,0.1896
 5691,0.18948067,0.00000161,0.00129539,-0.00155294,-0.00126439,-0.00008
 169,-0.00332825,0.00728905,-0.00404297,-0.00057943,0.00097730,-0.00164
 620,0.00214849,0.00055525,0.00157186,0.00088701,-0.00576768,0.00235691
 ,-0.00386797,-0.00014875,-0.00006738,0.00007314,0.03053377,0.04637131,
 -0.02036176,0.00360173,0.00002287,-0.00145728,-0.00126470,-0.00076328,
 0.00051940,0.00037287,-0.00072743,0.00121260,0.00012145,-0.00039344,0.
 00054025,-0.00043649,0.00010309,0.00031841,-0.00316233,-0.00184110,0.0
 0231288,-0.00030409,-0.00011824,-0.00013809,0.00005943,0.00019613,0.00
 020990,0.00028181,-0.00035343,-0.00011522,-0.00036995,0.00036733,0.000
 02442,-0.00196932,-0.00315148,-0.00923529,-0.00573941,0.00426652,0.001
 03834,0.00131772,-0.00042093,-0.00166348,-0.00499650,0.00380861,0.0085
 1391,0.00997674,-0.00279079,0.01650236,0.13837636,0.08002432,-0.153609
 84,0.00145014,0.00123343,-0.00110546,0.00010720,-0.00046722,-0.0001443
 1,0.00203021,-0.00146229,-0.00072449,-0.17162901,-0.12328992,0.1635826
 9\\0.00000175,0.00000464,-0.00000117,-0.00000329,-0.00001722,-0.000005
 11,0.00000803,0.00003708,0.00001773,-0.00000830,0.00000898,0.00000125,
 -0.00000035,0.00000077,0.00000015,-0.00002343,-0.00000999,-0.00000767,
 -0.00000248,-0.00000899,-0.00000346,-0.00000976,-0.00001522,-0.0000211
 6,0.00001195,0.00001126,-0.00000191,0.00000568,0.00000251,-0.00000287,
 -0.00000829,-0.00000141,0.00000328,-0.00000266,0.00000099,-0.00000237,
 0.00000104,-0.00000355,-0.00000395,0.00001267,-0.00000525,-0.00000192,
 -0.00000499,0.00000264,-0.00000142,0.00000442,-0.00000419,0.00000358,0
 .00000278,0.00000230,-0.00000156,0.00000134,-0.00000124,0.00000164,-0.
 00000401,-0.00000534,-0.00000092,-0.00001366,0.00001085,0.00000601,0.0
 0000901,0.,0.00000594,0.00001662,-0.00001944,0.00000999,-0.00000390,-0
 .00001094,0.00001335,0.00002083,-0.00001810,0.00002388,0.00000670,-0.0
 0000062,-0.00000309,-0.00000464,0.00001159,-0.00000786,-0.00002676,0.0
 0001469,-0.00000880,0.00001372,0.00001319,-0.00001156\\\@
 The archive entry for this job was punched.


 MOST BUREAUCRACIES FUNCTION LIKE A SEPTIC TANK.
 THE LARGE CHUNKS RISE TO THE TOP.
 Job cpu time:       0 days  9 hours 52 minutes 22.2 seconds.
 Elapsed time:       0 days  0 hours 14 minutes 56.4 seconds.
 File lengths (MBytes):  RWF=    600 Int=      0 D2E=      0 Chk=     20 Scr=      1
 Normal termination of Gaussian 16 at Thu Oct 24 06:43:03 2024.
