 Entering Gaussian System, Link 0=g16
 Input=UridineNallgPBE0aVDZ.gjf
 Output=UridineNallgPBE0aVDZ.log
 Initial command:
 /sw/contrib/chem-src/g16/c01/g16/l1.exe "/scr/Gau-50623.inp" -scrdir="/scr/"
 Entering Link 1 = /sw/contrib/chem-src/g16/c01/g16/l1.exe PID=     50624.
  
 Copyright (c) 1988-2019, Gaussian, Inc.  All Rights Reserved.
  
 This is part of the Gaussian(R) 16 program.  It is based on
 the Gaussian(R) 09 system (copyright 2009, Gaussian, Inc.),
 the Gaussian(R) 03 system (copyright 2003, Gaussian, Inc.),
 the Gaussian(R) 98 system (copyright 1998, Gaussian, Inc.),
 the Gaussian(R) 94 system (copyright 1995, Gaussian, Inc.),
 the Gaussian 92(TM) system (copyright 1992, Gaussian, Inc.),
 the Gaussian 90(TM) system (copyright 1990, Gaussian, Inc.),
 the Gaussian 88(TM) system (copyright 1988, Gaussian, Inc.),
 the Gaussian 86(TM) system (copyright 1986, Carnegie Mellon
 University), and the Gaussian 82(TM) system (copyright 1983,
 Carnegie Mellon University). Gaussian is a federally registered
 trademark of Gaussian, Inc.
  
 This software contains proprietary and confidential information,
 including trade secrets, belonging to Gaussian, Inc.
  
 This software is provided under written license and may be
 used, copied, transmitted, or stored only in accord with that
 written license.
  
 The following legend is applicable only to US Government
 contracts under FAR:
  
                    RESTRICTED RIGHTS LEGEND
  
 Use, reproduction and disclosure by the US Government is
 subject to restrictions as set forth in subparagraphs (a)
 and (c) of the Commercial Computer Software - Restricted
 Rights clause in FAR 52.227-19.
  
 Gaussian, Inc.
 340 Quinnipiac St., Bldg. 40, Wallingford CT 06492
  
  
 ---------------------------------------------------------------
 Warning -- This program may not be used in any manner that
 competes with the business of Gaussian, Inc. or will provide
 assistance to any competitor of Gaussian, Inc.  The licensee
 of this program is prohibited from giving any competitor of
 Gaussian, Inc. access to this program.  By using this program,
 the user acknowledges that Gaussian, Inc. is engaged in the
 business of creating and licensing software in the field of
 computational chemistry and represents and warrants to the
 licensee that it is not a competitor of Gaussian, Inc. and that
 it will not use this program in any manner prohibited above.
 ---------------------------------------------------------------
  

 Cite this work as:
 Gaussian 16, Revision C.01,
 M. J. Frisch, G. W. Trucks, H. B. Schlegel, G. E. Scuseria, 
 M. A. Robb, J. R. Cheeseman, G. Scalmani, V. Barone, 
 G. A. Petersson, H. Nakatsuji, X. Li, M. Caricato, A. V. Marenich, 
 J. Bloino, B. G. Janesko, R. Gomperts, B. Mennucci, H. P. Hratchian, 
 J. V. Ortiz, A. F. Izmaylov, J. L. Sonnenberg, D. Williams-Young, 
 F. Ding, F. Lipparini, F. Egidi, J. Goings, B. Peng, A. Petrone, 
 T. Henderson, D. Ranasinghe, V. G. Zakrzewski, J. Gao, N. Rega, 
 G. Zheng, W. Liang, M. Hada, M. Ehara, K. Toyota, R. Fukuda, 
 J. Hasegawa, M. Ishida, T. Nakajima, Y. Honda, O. Kitao, H. Nakai, 
 T. Vreven, K. Throssell, J. A. Montgomery, Jr., J. E. Peralta, 
 F. Ogliaro, M. J. Bearpark, J. J. Heyd, E. N. Brothers, K. N. Kudin, 
 V. N. Staroverov, T. A. Keith, R. Kobayashi, J. Normand, 
 K. Raghavachari, A. P. Rendell, J. C. Burant, S. S. Iyengar, 
 J. Tomasi, M. Cossi, J. M. Millam, M. Klene, C. Adamo, R. Cammi, 
 J. W. Ochterski, R. L. Martin, K. Morokuma, O. Farkas, 
 J. B. Foresman, and D. J. Fox, Gaussian, Inc., Wallingford CT, 2019.
 
 ******************************************
 Gaussian 16:  EM64L-G16RevC.01  3-Jul-2019
                17-Oct-2024 
 ******************************************
 %nprocshared=40
 Will use up to   40 processors via shared memory.
 %mem=50gb
 ------------------------------------------------------
 # PBE1PBE/aug-cc-pVDZ opt freq EmpiricalDispersion=GD3
 ------------------------------------------------------
 1/18=20,19=15,26=3,38=1/1,3;
 2/9=110,12=2,17=6,18=5,40=1/2;
 3/5=16,7=10,11=2,25=1,30=1,71=1,74=-13,124=31/1,2,3;
 4//1;
 5/5=2,38=5/2;
 6/7=2,8=2,9=2,10=2,28=1/1;
 7//1,2,3,16;
 1/18=20,19=15,26=3/3(2);
 2/9=110/2;
 99//99;
 2/9=110/2;
 3/5=16,7=10,11=2,25=1,30=1,71=1,74=-13,124=31/1,2,3;
 4/5=5,16=3,69=1/1;
 5/5=2,38=5/2;
 7//1,2,3,16;
 1/18=20,19=15,26=3/3(-5);
 2/9=110/2;
 6/7=2,8=2,9=2,10=2,19=2,28=1/1;
 99/9=1/99;
 ----
 blah
 ----
 Symbolic Z-matrix:
 Charge =  0 Multiplicity = 1
 C                    -3.30015  -1.82176   0.71562 
 C                    -2.17944  -1.64537  -0.30008 
 C                    -1.72367  -0.18543  -0.10428 
 O                    -2.7209   -1.84542  -1.62457 
 H                    -1.38235  -2.3837   -0.16656 
 O                    -2.61833   0.45952   0.8112 
 H                    -1.82971   0.35064  -1.05589 
 N                    -0.35115  -0.017     0.3707 
 C                    -3.7708   -0.39294   0.96488 
 H                    -2.91066  -2.28303   1.62752 
 O                    -4.34693  -2.64998   0.20967 
 C                    -4.36858  -0.17661   2.35605 
 H                    -4.51092  -0.09179   0.21285 
 O                    -3.46604  -0.54102   3.39977 
 H                    -5.28366  -0.76282   2.48237 
 H                    -4.61      0.88149   2.49926 
 H                    -4.25639  -2.61816  -0.76584 
 H                    -1.96421  -1.93747  -2.23238 
 H                    -2.55578  -0.3578    3.0883 
 C                     0.56397   0.65642  -0.41707 
 C                     1.82747   0.84626  -0.03095 
 C                     2.25923   0.32304   1.27371 
 N                     1.29895  -0.31816   1.9988 
 C                    -0.00154  -0.51749   1.61778 
 H                     0.22015   1.0426   -1.37277 
 H                     2.56038   1.37396  -0.62659 
 H                     1.56807  -0.677     2.90198 
 O                     3.41294   0.46115   1.65956 
 O                    -0.77649  -1.11529   2.36048 
 

 GradGradGradGradGradGradGradGradGradGradGradGradGradGradGradGradGradGrad
 Berny optimization.
 Initialization pass.
                           ----------------------------
                           !    Initial Parameters    !
                           ! (Angstroms and Degrees)  !
 --------------------------                            --------------------------
 ! Name  Definition              Value          Derivative Info.                !
 --------------------------------------------------------------------------------
 ! R1    R(1,2)                  1.5227         estimate D2E/DX2                !
 ! R2    R(1,9)                  1.5249         estimate D2E/DX2                !
 ! R3    R(1,10)                 1.0936         estimate D2E/DX2                !
 ! R4    R(1,11)                 1.4275         estimate D2E/DX2                !
 ! R5    R(2,3)                  1.5419         estimate D2E/DX2                !
 ! R6    R(2,4)                  1.4448         estimate D2E/DX2                !
 ! R7    R(2,5)                  1.0947         estimate D2E/DX2                !
 ! R8    R(3,6)                  1.4333         estimate D2E/DX2                !
 ! R9    R(3,7)                  1.0974         estimate D2E/DX2                !
 ! R10   R(3,8)                  1.4621         estimate D2E/DX2                !
 ! R11   R(4,18)                 0.9749         estimate D2E/DX2                !
 ! R12   R(6,9)                  1.4417         estimate D2E/DX2                !
 ! R13   R(8,20)                 1.3826         estimate D2E/DX2                !
 ! R14   R(8,24)                 1.3885         estimate D2E/DX2                !
 ! R15   R(9,12)                 1.5295         estimate D2E/DX2                !
 ! R16   R(9,13)                 1.0973         estimate D2E/DX2                !
 ! R17   R(11,17)                0.9802         estimate D2E/DX2                !
 ! R18   R(12,14)                1.4271         estimate D2E/DX2                !
 ! R19   R(12,15)                1.0941         estimate D2E/DX2                !
 ! R20   R(12,16)                1.0947         estimate D2E/DX2                !
 ! R21   R(14,19)                0.9794         estimate D2E/DX2                !
 ! R22   R(20,21)                1.3347         estimate D2E/DX2                !
 ! R23   R(20,25)                1.0866         estimate D2E/DX2                !
 ! R24   R(21,22)                1.4705         estimate D2E/DX2                !
 ! R25   R(21,26)                1.0819         estimate D2E/DX2                !
 ! R26   R(22,23)                1.3635         estimate D2E/DX2                !
 ! R27   R(22,28)                1.2243         estimate D2E/DX2                !
 ! R28   R(23,24)                1.3697         estimate D2E/DX2                !
 ! R29   R(23,27)                1.0084         estimate D2E/DX2                !
 ! R30   R(24,29)                1.2286         estimate D2E/DX2                !
 ! A1    A(2,1,9)              103.1592         estimate D2E/DX2                !
 ! A2    A(2,1,10)             110.0549         estimate D2E/DX2                !
 ! A3    A(2,1,11)             111.7462         estimate D2E/DX2                !
 ! A4    A(9,1,10)             111.6439         estimate D2E/DX2                !
 ! A5    A(9,1,11)             112.0406         estimate D2E/DX2                !
 ! A6    A(10,1,11)            108.1787         estimate D2E/DX2                !
 ! A7    A(1,2,3)              104.0356         estimate D2E/DX2                !
 ! A8    A(1,2,4)              108.6392         estimate D2E/DX2                !
 ! A9    A(1,2,5)              112.1117         estimate D2E/DX2                !
 ! A10   A(3,2,4)              110.9954         estimate D2E/DX2                !
 ! A11   A(3,2,5)              114.0731         estimate D2E/DX2                !
 ! A12   A(4,2,5)              106.9364         estimate D2E/DX2                !
 ! A13   A(2,3,6)              108.8229         estimate D2E/DX2                !
 ! A14   A(2,3,7)              108.896          estimate D2E/DX2                !
 ! A15   A(2,3,8)              115.328          estimate D2E/DX2                !
 ! A16   A(6,3,7)              105.8871         estimate D2E/DX2                !
 ! A17   A(6,3,8)              109.0632         estimate D2E/DX2                !
 ! A18   A(7,3,8)              108.4307         estimate D2E/DX2                !
 ! A19   A(2,4,18)             107.0811         estimate D2E/DX2                !
 ! A20   A(3,6,9)              107.5172         estimate D2E/DX2                !
 ! A21   A(3,8,20)             119.4948         estimate D2E/DX2                !
 ! A22   A(3,8,24)             119.1177         estimate D2E/DX2                !
 ! A23   A(20,8,24)            121.3769         estimate D2E/DX2                !
 ! A24   A(1,9,6)              106.8512         estimate D2E/DX2                !
 ! A25   A(1,9,12)             113.6931         estimate D2E/DX2                !
 ! A26   A(1,9,13)             110.6901         estimate D2E/DX2                !
 ! A27   A(6,9,12)             109.0108         estimate D2E/DX2                !
 ! A28   A(6,9,13)             107.689          estimate D2E/DX2                !
 ! A29   A(12,9,13)            108.7197         estimate D2E/DX2                !
 ! A30   A(1,11,17)            105.4363         estimate D2E/DX2                !
 ! A31   A(9,12,14)            112.4518         estimate D2E/DX2                !
 ! A32   A(9,12,15)            110.8618         estimate D2E/DX2                !
 ! A33   A(9,12,16)            109.9916         estimate D2E/DX2                !
 ! A34   A(14,12,15)           107.9204         estimate D2E/DX2                !
 ! A35   A(14,12,16)           106.8938         estimate D2E/DX2                !
 ! A36   A(15,12,16)           108.5626         estimate D2E/DX2                !
 ! A37   A(12,14,19)           107.904          estimate D2E/DX2                !
 ! A38   A(8,20,21)            122.0738         estimate D2E/DX2                !
 ! A39   A(8,20,25)            117.698          estimate D2E/DX2                !
 ! A40   A(21,20,25)           120.2259         estimate D2E/DX2                !
 ! A41   A(20,21,22)           118.9465         estimate D2E/DX2                !
 ! A42   A(20,21,26)           123.4629         estimate D2E/DX2                !
 ! A43   A(22,21,26)           117.5897         estimate D2E/DX2                !
 ! A44   A(21,22,23)           115.6186         estimate D2E/DX2                !
 ! A45   A(21,22,28)           121.0746         estimate D2E/DX2                !
 ! A46   A(23,22,28)           123.306          estimate D2E/DX2                !
 ! A47   A(22,23,24)           126.0994         estimate D2E/DX2                !
 ! A48   A(22,23,27)           117.1096         estimate D2E/DX2                !
 ! A49   A(24,23,27)           116.7905         estimate D2E/DX2                !
 ! A50   A(8,24,23)            115.877          estimate D2E/DX2                !
 ! A51   A(8,24,29)            124.0212         estimate D2E/DX2                !
 ! A52   A(23,24,29)           120.1002         estimate D2E/DX2                !
 ! D1    D(9,1,2,3)             22.6291         estimate D2E/DX2                !
 ! D2    D(9,1,2,4)            -95.6706         estimate D2E/DX2                !
 ! D3    D(9,1,2,5)            146.3675         estimate D2E/DX2                !
 ! D4    D(10,1,2,3)           -96.6183         estimate D2E/DX2                !
 ! D5    D(10,1,2,4)           145.082          estimate D2E/DX2                !
 ! D6    D(10,1,2,5)            27.1201         estimate D2E/DX2                !
 ! D7    D(11,1,2,3)           143.171          estimate D2E/DX2                !
 ! D8    D(11,1,2,4)            24.8713         estimate D2E/DX2                !
 ! D9    D(11,1,2,5)           -93.0906         estimate D2E/DX2                !
 ! D10   D(2,1,9,6)            -31.5791         estimate D2E/DX2                !
 ! D11   D(2,1,9,12)          -151.8845         estimate D2E/DX2                !
 ! D12   D(2,1,9,13)            85.4064         estimate D2E/DX2                !
 ! D13   D(10,1,9,6)            86.5627         estimate D2E/DX2                !
 ! D14   D(10,1,9,12)          -33.7427         estimate D2E/DX2                !
 ! D15   D(10,1,9,13)         -156.4519         estimate D2E/DX2                !
 ! D16   D(11,1,9,6)          -151.9197         estimate D2E/DX2                !
 ! D17   D(11,1,9,12)           87.7749         estimate D2E/DX2                !
 ! D18   D(11,1,9,13)          -34.9342         estimate D2E/DX2                !
 ! D19   D(2,1,11,17)          -21.3007         estimate D2E/DX2                !
 ! D20   D(9,1,11,17)           93.9078         estimate D2E/DX2                !
 ! D21   D(10,1,11,17)        -142.6042         estimate D2E/DX2                !
 ! D22   D(1,2,3,6)             -6.9393         estimate D2E/DX2                !
 ! D23   D(1,2,3,7)           -121.9233         estimate D2E/DX2                !
 ! D24   D(1,2,3,8)            115.9553         estimate D2E/DX2                !
 ! D25   D(4,2,3,6)            109.728          estimate D2E/DX2                !
 ! D26   D(4,2,3,7)             -5.256          estimate D2E/DX2                !
 ! D27   D(4,2,3,8)           -127.3774         estimate D2E/DX2                !
 ! D28   D(5,2,3,6)           -129.3947         estimate D2E/DX2                !
 ! D29   D(5,2,3,7)            115.6213         estimate D2E/DX2                !
 ! D30   D(5,2,3,8)             -6.5001         estimate D2E/DX2                !
 ! D31   D(1,2,4,18)          -166.9228         estimate D2E/DX2                !
 ! D32   D(3,2,4,18)            79.2739         estimate D2E/DX2                !
 ! D33   D(5,2,4,18)           -45.7264         estimate D2E/DX2                !
 ! D34   D(2,3,6,9)            -12.9365         estimate D2E/DX2                !
 ! D35   D(7,3,6,9)            103.9841         estimate D2E/DX2                !
 ! D36   D(8,3,6,9)           -139.5196         estimate D2E/DX2                !
 ! D37   D(2,3,8,20)           118.372          estimate D2E/DX2                !
 ! D38   D(2,3,8,24)           -62.7967         estimate D2E/DX2                !
 ! D39   D(6,3,8,20)          -118.8612         estimate D2E/DX2                !
 ! D40   D(6,3,8,24)            59.9701         estimate D2E/DX2                !
 ! D41   D(7,3,8,20)            -3.9985         estimate D2E/DX2                !
 ! D42   D(7,3,8,24)           174.8328         estimate D2E/DX2                !
 ! D43   D(3,6,9,1)             27.9877         estimate D2E/DX2                !
 ! D44   D(3,6,9,12)           151.2482         estimate D2E/DX2                !
 ! D45   D(3,6,9,13)           -90.965          estimate D2E/DX2                !
 ! D46   D(3,8,20,21)          179.6155         estimate D2E/DX2                !
 ! D47   D(3,8,20,25)            0.1682         estimate D2E/DX2                !
 ! D48   D(24,8,20,21)           0.8114         estimate D2E/DX2                !
 ! D49   D(24,8,20,25)        -178.636          estimate D2E/DX2                !
 ! D50   D(3,8,24,23)         -179.7397         estimate D2E/DX2                !
 ! D51   D(3,8,24,29)            0.7307         estimate D2E/DX2                !
 ! D52   D(20,8,24,23)          -0.9312         estimate D2E/DX2                !
 ! D53   D(20,8,24,29)         179.5393         estimate D2E/DX2                !
 ! D54   D(1,9,12,14)           56.3972         estimate D2E/DX2                !
 ! D55   D(1,9,12,15)          -64.518          estimate D2E/DX2                !
 ! D56   D(1,9,12,16)          175.405          estimate D2E/DX2                !
 ! D57   D(6,9,12,14)          -62.6825         estimate D2E/DX2                !
 ! D58   D(6,9,12,15)          176.4022         estimate D2E/DX2                !
 ! D59   D(6,9,12,16)           56.3252         estimate D2E/DX2                !
 ! D60   D(13,9,12,14)        -179.817          estimate D2E/DX2                !
 ! D61   D(13,9,12,15)          59.2677         estimate D2E/DX2                !
 ! D62   D(13,9,12,16)         -60.8093         estimate D2E/DX2                !
 ! D63   D(9,12,14,19)          32.2883         estimate D2E/DX2                !
 ! D64   D(15,12,14,19)        154.8767         estimate D2E/DX2                !
 ! D65   D(16,12,14,19)        -88.5158         estimate D2E/DX2                !
 ! D66   D(8,20,21,22)          -0.0268         estimate D2E/DX2                !
 ! D67   D(8,20,21,26)        -179.6672         estimate D2E/DX2                !
 ! D68   D(25,20,21,22)        179.407          estimate D2E/DX2                !
 ! D69   D(25,20,21,26)         -0.2334         estimate D2E/DX2                !
 ! D70   D(20,21,22,23)         -0.5571         estimate D2E/DX2                !
 ! D71   D(20,21,22,28)        179.1261         estimate D2E/DX2                !
 ! D72   D(26,21,22,23)        179.1044         estimate D2E/DX2                !
 ! D73   D(26,21,22,28)         -1.2124         estimate D2E/DX2                !
 ! D74   D(21,22,23,24)          0.4154         estimate D2E/DX2                !
 ! D75   D(21,22,23,27)       -179.3327         estimate D2E/DX2                !
 ! D76   D(28,22,23,24)       -179.26           estimate D2E/DX2                !
 ! D77   D(28,22,23,27)          0.992          estimate D2E/DX2                !
 ! D78   D(22,23,24,8)           0.3099         estimate D2E/DX2                !
 ! D79   D(22,23,24,29)        179.8591         estimate D2E/DX2                !
 ! D80   D(27,23,24,8)        -179.9414         estimate D2E/DX2                !
 ! D81   D(27,23,24,29)         -0.3921         estimate D2E/DX2                !
 --------------------------------------------------------------------------------
 Trust Radius=3.00D-01 FncErr=1.00D-07 GrdErr=1.00D-06 EigMax=2.50D+02 EigMin=1.00D-04
 Number of steps in this run=    173 maximum allowed number of steps=    174.
 GradGradGradGradGradGradGradGradGradGradGradGradGradGradGradGradGradGrad

                          Input orientation:                          
 ---------------------------------------------------------------------
 Center     Atomic      Atomic             Coordinates (Angstroms)
 Number     Number       Type             X           Y           Z
 ---------------------------------------------------------------------
      1          6           0       -3.300151   -1.821758    0.715616
      2          6           0       -2.179437   -1.645367   -0.300081
      3          6           0       -1.723667   -0.185428   -0.104279
      4          8           0       -2.720903   -1.845425   -1.624569
      5          1           0       -1.382350   -2.383704   -0.166557
      6          8           0       -2.618332    0.459518    0.811197
      7          1           0       -1.829715    0.350638   -1.055891
      8          7           0       -0.351146   -0.016998    0.370702
      9          6           0       -3.770803   -0.392936    0.964883
     10          1           0       -2.910661   -2.283033    1.627520
     11          8           0       -4.346929   -2.649982    0.209666
     12          6           0       -4.368580   -0.176607    2.356050
     13          1           0       -4.510920   -0.091792    0.212846
     14          8           0       -3.466044   -0.541017    3.399773
     15          1           0       -5.283659   -0.762822    2.482366
     16          1           0       -4.609998    0.881490    2.499260
     17          1           0       -4.256391   -2.618162   -0.765838
     18          1           0       -1.964212   -1.937475   -2.232385
     19          1           0       -2.555776   -0.357795    3.088296
     20          6           0        0.563973    0.656421   -0.417067
     21          6           0        1.827472    0.846261   -0.030950
     22          6           0        2.259225    0.323040    1.273708
     23          7           0        1.298955   -0.318162    1.998802
     24          6           0       -0.001542   -0.517490    1.617781
     25          1           0        0.220150    1.042600   -1.372771
     26          1           0        2.560381    1.373964   -0.626592
     27          1           0        1.568068   -0.676996    2.901977
     28          8           0        3.412940    0.461151    1.659565
     29          8           0       -0.776490   -1.115287    2.360476
 ---------------------------------------------------------------------
                    Distance matrix (angstroms):
                    1          2          3          4          5
     1  C    0.000000
     2  C    1.522745   0.000000
     3  C    2.415597   1.541910   0.000000
     4  O    2.410923   1.444810   2.461980   0.000000
     5  H    2.184484   1.094677   2.225487   2.051162   0.000000
     6  O    2.382904   2.420352   1.433345   3.355031   3.250779
     7  H    3.165395   2.162773   1.097350   2.437273   2.909927
     8  N    3.474587   2.538539   1.462118   3.597220   2.636916
     9  C    1.524854   2.387710   2.318822   3.149170   3.308779
    10  H    1.093638   2.157997   2.967832   3.286881   2.358936
    11  O    1.427475   2.442768   3.613045   2.579863   3.000196
    12  C    2.557164   3.742276   3.612321   4.620077   4.489141
    13  H    2.170604   2.848245   2.806798   3.107327   3.896762
    14  O    2.978677   4.069873   3.929466   5.244113   4.522829
    15  H    2.859556   4.261114   4.438205   4.960511   4.986408
    16  H    3.493514   4.486529   4.030836   5.292514   5.309028
    17  H    1.934777   2.340299   3.573590   1.921527   2.945203
    18  H    3.238646   1.966074   2.767013   0.974933   2.192106
    19  H    2.885636   3.644252   3.303733   4.944836   4.009402
    20  C    4.728192   3.583045   2.457609   4.302058   3.618465
    21  C    5.828225   4.726094   3.698696   5.520191   4.555658
    22  C    5.984838   5.104230   4.245093   6.156616   4.760451
    23  N    5.005911   4.375563   3.684672   5.623220   4.018040
    24  C    3.660032   3.113443   2.457940   4.435219   2.928011
    25  H    4.995841   3.759501   2.625938   4.129634   3.970204
    26  H    6.808817   5.629284   4.588853   6.265171   5.465970
    27  H    5.458041   5.023417   4.484945   6.344298   4.586254
    28  O    7.153202   6.289063   5.469364   7.330065   5.867089
    29  O    3.094112   3.054146   2.799428   4.493820   2.891685
                    6          7          8          9         10
     6  O    0.000000
     7  H    2.029726   0.000000
     8  N    2.358227   2.087220   0.000000
     9  C    1.441696   2.899009   3.491194   0.000000
    10  H    2.876356   3.912206   3.642200   2.179770   0.000000
    11  O    3.608168   4.116033   4.787987   2.448781   2.051298
    12  C    2.419627   4.285459   4.484066   1.529536   2.663327
    13  H    2.060061   2.999049   4.163439   1.097278   3.060011
    14  O    2.901795   4.829654   4.376352   2.458352   2.546361
    15  H    3.375040   5.068411   5.417108   2.174466   2.944983
    16  H    2.644683   4.544323   4.845189   2.163960   3.696198
    17  H    3.826537   3.845343   4.827910   2.860563   2.766128
    18  H    3.928974   2.576371   3.614730   3.983954   3.989240
    19  H    2.420144   4.266536   3.515943   2.446714   2.442611
    20  C    3.416792   2.496265   1.382576   4.669178   4.989369
    21  C    4.541361   3.830296   2.377587   5.819621   5.915481
    22  C    4.901338   4.706084   2.782999   6.080234   5.800390
    23  N    4.166573   4.423462   2.337572   5.174653   4.660412
    24  C    2.907355   3.353265   1.388496   3.827417   3.402970
    25  H    3.628592   2.186589   2.118685   4.842840   5.464756
    26  H    5.451836   4.528182   3.377330   6.763033   6.956072
    27  H    4.815493   5.316548   3.244431   5.686525   4.925709
    28  O    6.090647   5.905196   4.007261   7.267614   6.893439
    29  O    2.876223   3.863907   2.312219   3.381625   2.540776
                   11         12         13         14         15
    11  O    0.000000
    12  C    3.274907   0.000000
    13  H    2.563443   2.149599   0.000000
    14  O    3.924344   1.427138   3.383796   0.000000
    15  H    3.099033   1.094063   2.489605   2.048062   0.000000
    16  H    4.216959   1.094697   2.486923   2.035456   1.777039
    17  H    0.980213   3.964840   2.721241   4.721387   3.879226
    18  H    3.485487   5.471323   3.983895   5.993897   5.884507
    19  H    4.092537   1.963484   3.487343   0.979375   2.823569
    20  C    5.953323   5.719632   5.168283   5.678307   6.679504
    21  C    7.099637   6.718266   6.412066   6.458771   7.711945
    22  C    7.322043   6.734160   6.865302   6.168100   7.715897
    23  N    6.365092   5.680547   6.082395   4.971680   6.615313
    24  C    5.041101   4.442101   4.742314   3.896001   5.358027
    25  H    6.082556   6.037136   5.117035   6.234825   6.957985
    26  H    8.037562   7.701358   7.270239   7.496437   8.704047
    27  H    6.791790   5.982659   6.672929   5.060492   6.865101
    28  O    8.485100   7.838615   8.073803   7.166107   8.820768
    29  O    4.441769   3.712715   4.427846   2.940005   4.522573
                   16         17         18         19         20
    16  H    0.000000
    17  H    4.799320   0.000000
    18  H    6.110254   2.805028   0.000000
    19  H    2.470348   4.780763   5.581665   0.000000
    20  C    5.943534   5.837846   4.051592   4.800942   0.000000
    21  C    6.916952   7.039580   5.193493   5.512923   1.334749
    22  C    7.000005   7.433954   5.936332   5.190425   2.417384
    23  N    6.050235   6.617787   5.583312   4.005936   2.706739
    24  C    4.896122   5.310198   4.548869   2.951614   2.416296
    25  H    6.192649   5.814548   3.793576   5.437646   1.086609
    26  H    7.837589   7.900939   5.832335   6.555490   2.131762
    27  H    6.384321   7.151596   6.358261   4.140374   3.715140
    28  O    8.077704   8.612978   7.057935   6.191730   3.530884
    29  O    4.324600   4.913470   4.814670   2.066247   3.556759
                   21         22         23         24         25
    21  C    0.000000
    22  C    1.470477   0.000000
    23  N    2.398980   1.363459   0.000000
    24  C    2.814859   2.436380   1.369745   0.000000
    25  H    2.102979   3.417521   3.792493   3.380301   0.000000
    26  H    1.081857   2.192322   3.368557   3.895928   2.478561
    27  H    3.315067   2.032002   1.008419   2.034276   4.800768
    28  O    2.349438   1.224344   2.278452   3.552207   4.441515
    29  O    4.043168   3.530639   2.252485   1.228617   4.425709
                   26         27         28         29
    26  H    0.000000
    27  H    4.200229   0.000000
    28  O    2.605110   2.498503   0.000000
    29  O    5.123831   2.445869   4.530757   0.000000
 Stoichiometry    C9H12N2O6
 Framework group  C1[X(C9H12N2O6)]
 Deg. of freedom    81
 Full point group                 C1      NOp   1
 Largest Abelian subgroup         C1      NOp   1
 Largest concise Abelian subgroup C1      NOp   1
                         Standard orientation:                         
 ---------------------------------------------------------------------
 Center     Atomic      Atomic             Coordinates (Angstroms)
 Number     Number       Type             X           Y           Z
 ---------------------------------------------------------------------
      1          6           0        2.273880   -0.239244   -0.663258
      2          6           0        1.181549   -1.296807   -0.578843
      3          6           0        0.344432   -0.872945    0.644701
      4          8           0        1.800810   -2.583977   -0.361620
      5          1           0        0.607834   -1.371704   -1.508123
      6          8           0        1.002078    0.219758    1.298901
      7          1           0        0.334489   -1.695692    1.370764
      8          7           0       -1.038028   -0.494473    0.355993
      9          6           0        2.335230    0.310650    0.757669
     10          1           0        1.992199    0.534216   -1.383299
     11          8           0        3.520830   -0.798588   -1.075490
     12          6           0        2.806166    1.763850    0.834531
     13          1           0        2.992099   -0.306005    1.383991
     14          8           0        2.000154    2.640324    0.047854
     15          1           0        3.840240    1.857061    0.489601
     16          1           0        2.749854    2.121372    1.867667
     17          1           0        3.457742   -1.755294   -0.871645
     18          1           0        1.117338   -3.260950   -0.519950
     19          1           0        1.085049    2.291396    0.050490
     20          6           0       -2.073427   -1.218931    0.916911
     21          6           0       -3.353702   -0.914110    0.694345
     22          6           0       -3.672579    0.228652   -0.174400
     23          7           0       -2.600262    0.901622   -0.680629
     24          6           0       -1.281992    0.603200   -0.458572
     25          1           0       -1.814094   -2.053137    1.563103
     26          1           0       -4.180998   -1.461954    1.125460
     27          1           0       -2.793250    1.695904   -1.271206
     28          8           0       -4.833270    0.533025   -0.417653
     29          8           0       -0.400329    1.285565   -0.974856
 ---------------------------------------------------------------------
 Rotational constants (GHZ):           0.9053037           0.3074404           0.2630311
 Standard basis: Aug-CC-pVDZ (5D, 7F)
 There are   533 symmetry adapted cartesian basis functions of A   symmetry.
 There are   499 symmetry adapted basis functions of A   symmetry.
   499 basis functions,   863 primitive gaussians,   533 cartesian basis functions
    64 alpha electrons       64 beta electrons
       nuclear repulsion energy      1330.7530618653 Hartrees.
 NAtoms=   29 NActive=   29 NUniq=   29 SFac= 1.00D+00 NAtFMM=   60 NAOKFM=F Big=F
 Integral buffers will be    131072 words long.
 Raffenetti 2 integral format.
 Two-electron integral symmetry is turned on.
 Nuclear repulsion after empirical dispersion term =     1330.7327333920 Hartrees.
 One-electron integrals computed using PRISM.
 NBasis=   499 RedAO= T EigKep=  2.72D-06  NBF=   499
 NBsUse=   499 1.00D-06 EigRej= -1.00D+00 NBFU=   499
 ExpMin= 2.97D-02 ExpMax= 1.17D+04 ExpMxC= 4.01D+02 IAcc=3 IRadAn=         5 AccDes= 0.00D+00
 Harris functional with IExCor= 1009 and IRadAn=       5 diagonalized for initial guess.
 HarFok:  IExCor= 1009 AccDes= 0.00D+00 IRadAn=         5 IDoV= 1 UseB2=F ITyADJ=14
 ICtDFT=  3500011 ScaDFX=  1.000000  1.000000  1.000000  1.000000
 FoFCou: FMM=F IPFlag=           0 FMFlag=      100000 FMFlg1=           0
         NFxFlg=           0 DoJE=T BraDBF=F KetDBF=T FulRan=T
         wScrn=  0.000000 ICntrl=       500 IOpCl=  0 I1Cent=   200000004 NGrid=           0
         NMat0=    1 NMatS0=      1 NMatT0=    0 NMatD0=    1 NMtDS0=    0 NMtDT0=    0
 Petite list used in FoFCou.
 Requested convergence on RMS density matrix=1.00D-08 within 128 cycles.
 Requested convergence on MAX density matrix=1.00D-06.
 Requested convergence on             energy=1.00D-06.
 No special actions if energy rises.
 SCF Done:  E(RPBE1PBE) =  -910.204857658     A.U. after   14 cycles
            NFock= 14  Conv=0.37D-08     -V/T= 2.0055

 **********************************************************************

            Population analysis using the SCF Density.

 **********************************************************************

 Orbital symmetries:
       Occupied  (A) (A) (A) (A) (A) (A) (A) (A) (A) (A) (A) (A)
                 (A) (A) (A) (A) (A) (A) (A) (A) (A) (A) (A) (A)
                 (A) (A) (A) (A) (A) (A) (A) (A) (A) (A) (A) (A)
                 (A) (A) (A) (A) (A) (A) (A) (A) (A) (A) (A) (A)
                 (A) (A) (A) (A) (A) (A) (A) (A) (A) (A) (A) (A)
                 (A) (A) (A) (A)
       Virtual   (A) (A) (A) (A) (A) (A) (A) (A) (A) (A) (A) (A)
                 (A) (A) (A) (A) (A) (A) (A) (A) (A) (A) (A) (A)
                 (A) (A) (A) (A) (A) (A) (A) (A) (A) (A) (A) (A)
                 (A) (A) (A) (A) (A) (A) (A) (A) (A) (A) (A) (A)
                 (A) (A) (A) (A) (A) (A) (A) (A) (A) (A) (A) (A)
                 (A) (A) (A) (A) (A) (A) (A) (A) (A) (A) (A) (A)
                 (A) (A) (A) (A) (A) (A) (A) (A) (A) (A) (A) (A)
                 (A) (A) (A) (A) (A) (A) (A) (A) (A) (A) (A) (A)
                 (A) (A) (A) (A) (A) (A) (A) (A) (A) (A) (A) (A)
                 (A) (A) (A) (A) (A) (A) (A) (A) (A) (A) (A) (A)
                 (A) (A) (A) (A) (A) (A) (A) (A) (A) (A) (A) (A)
                 (A) (A) (A) (A) (A) (A) (A) (A) (A) (A) (A) (A)
                 (A) (A) (A) (A) (A) (A) (A) (A) (A) (A) (A) (A)
                 (A) (A) (A) (A) (A) (A) (A) (A) (A) (A) (A) (A)
                 (A) (A) (A) (A) (A) (A) (A) (A) (A) (A) (A) (A)
                 (A) (A) (A) (A) (A) (A) (A) (A) (A) (A) (A) (A)
                 (A) (A) (A) (A) (A) (A) (A) (A) (A) (A) (A) (A)
                 (A) (A) (A) (A) (A) (A) (A) (A) (A) (A) (A) (A)
                 (A) (A) (A) (A) (A) (A) (A) (A) (A) (A) (A) (A)
                 (A) (A) (A) (A) (A) (A) (A) (A) (A) (A) (A) (A)
                 (A) (A) (A) (A) (A) (A) (A) (A) (A) (A) (A) (A)
                 (A) (A) (A) (A) (A) (A) (A) (A) (A) (A) (A) (A)
                 (A) (A) (A) (A) (A) (A) (A) (A) (A) (A) (A) (A)
                 (A) (A) (A) (A) (A) (A) (A) (A) (A) (A) (A) (A)
                 (A) (A) (A) (A) (A) (A) (A) (A) (A) (A) (A) (A)
                 (A) (A) (A) (A) (A) (A) (A) (A) (A) (A) (A) (A)
                 (A) (A) (A) (A) (A) (A) (A) (A) (A) (A) (A) (A)
                 (A) (A) (A) (A) (A) (A) (A) (A) (A) (A) (A) (A)
                 (A) (A) (A) (A) (A) (A) (A) (A) (A) (A) (A) (A)
                 (A) (A) (A) (A) (A) (A) (A) (A) (A) (A) (A) (A)
                 (A) (A) (A) (A) (A) (A) (A) (A) (A) (A) (A) (A)
                 (A) (A) (A) (A) (A) (A) (A) (A) (A) (A) (A) (A)
                 (A) (A) (A) (A) (A) (A) (A) (A) (A) (A) (A) (A)
                 (A) (A) (A) (A) (A) (A) (A) (A) (A) (A) (A) (A)
                 (A) (A) (A) (A) (A) (A) (A) (A) (A) (A) (A) (A)
                 (A) (A) (A) (A) (A) (A) (A) (A) (A) (A) (A) (A)
                 (A) (A) (A)
 The electronic state is 1-A.
 Alpha  occ. eigenvalues --  -19.27764 -19.26337 -19.23354 -19.23122 -19.21493
 Alpha  occ. eigenvalues --  -19.20826 -14.49963 -14.47915 -10.41374 -10.36751
 Alpha  occ. eigenvalues --  -10.36512 -10.33149 -10.32415 -10.29577 -10.29505
 Alpha  occ. eigenvalues --  -10.27544 -10.27023  -1.14551  -1.11709  -1.09729
 Alpha  occ. eigenvalues --   -1.09259  -1.05438  -1.04108  -1.03127  -0.99318
 Alpha  occ. eigenvalues --   -0.85564  -0.81978  -0.80224  -0.74636  -0.72094
 Alpha  occ. eigenvalues --   -0.69300  -0.65743  -0.63164  -0.62461  -0.59755
 Alpha  occ. eigenvalues --   -0.58987  -0.56169  -0.54851  -0.53369  -0.51931
 Alpha  occ. eigenvalues --   -0.51405  -0.50097  -0.49408  -0.49019  -0.48286
 Alpha  occ. eigenvalues --   -0.45886  -0.44875  -0.44736  -0.43631  -0.42876
 Alpha  occ. eigenvalues --   -0.41686  -0.41055  -0.40518  -0.39437  -0.36226
 Alpha  occ. eigenvalues --   -0.34965  -0.34136  -0.33858  -0.32601  -0.31048
 Alpha  occ. eigenvalues --   -0.29871  -0.29168  -0.28003  -0.27373
 Alpha virt. eigenvalues --   -0.06079  -0.03138  -0.02393  -0.01180  -0.00311
 Alpha virt. eigenvalues --    0.00678   0.01852   0.02097   0.02721   0.03078
 Alpha virt. eigenvalues --    0.03325   0.04514   0.04646   0.05133   0.05474
 Alpha virt. eigenvalues --    0.05634   0.06006   0.06869   0.07072   0.07602
 Alpha virt. eigenvalues --    0.07953   0.08374   0.08608   0.09108   0.09206
 Alpha virt. eigenvalues --    0.09497   0.09951   0.10078   0.10719   0.11224
 Alpha virt. eigenvalues --    0.11461   0.11638   0.11842   0.12279   0.12446
 Alpha virt. eigenvalues --    0.12886   0.13046   0.13290   0.13760   0.14127
 Alpha virt. eigenvalues --    0.14335   0.14739   0.14967   0.15330   0.15660
 Alpha virt. eigenvalues --    0.16458   0.16757   0.17385   0.17406   0.17864
 Alpha virt. eigenvalues --    0.18373   0.18756   0.19142   0.19262   0.19783
 Alpha virt. eigenvalues --    0.20585   0.21161   0.21287   0.21567   0.21608
 Alpha virt. eigenvalues --    0.22421   0.22576   0.22960   0.23342   0.23597
 Alpha virt. eigenvalues --    0.23784   0.24243   0.24973   0.25288   0.25441
 Alpha virt. eigenvalues --    0.25846   0.26376   0.26453   0.26693   0.27131
 Alpha virt. eigenvalues --    0.27258   0.27414   0.27794   0.28136   0.28545
 Alpha virt. eigenvalues --    0.29031   0.29297   0.29449   0.29583   0.29827
 Alpha virt. eigenvalues --    0.30285   0.31080   0.31509   0.31681   0.32184
 Alpha virt. eigenvalues --    0.32600   0.32762   0.33292   0.33770   0.34172
 Alpha virt. eigenvalues --    0.34506   0.34659   0.35194   0.35671   0.35971
 Alpha virt. eigenvalues --    0.37279   0.37382   0.37899   0.38494   0.38853
 Alpha virt. eigenvalues --    0.39181   0.39786   0.39864   0.40440   0.40653
 Alpha virt. eigenvalues --    0.41065   0.42131   0.42134   0.42796   0.43060
 Alpha virt. eigenvalues --    0.43138   0.44158   0.44669   0.45023   0.45287
 Alpha virt. eigenvalues --    0.46246   0.46614   0.47008   0.47708   0.48464
 Alpha virt. eigenvalues --    0.48978   0.49433   0.50610   0.50763   0.51335
 Alpha virt. eigenvalues --    0.51570   0.52417   0.52778   0.53223   0.53523
 Alpha virt. eigenvalues --    0.53694   0.54389   0.55368   0.55933   0.56304
 Alpha virt. eigenvalues --    0.56875   0.57724   0.57920   0.58382   0.59488
 Alpha virt. eigenvalues --    0.59748   0.60456   0.60861   0.61275   0.61756
 Alpha virt. eigenvalues --    0.62180   0.62360   0.62651   0.63350   0.64092
 Alpha virt. eigenvalues --    0.65077   0.65132   0.65950   0.66274   0.67115
 Alpha virt. eigenvalues --    0.67341   0.67597   0.67837   0.68332   0.68949
 Alpha virt. eigenvalues --    0.69427   0.69965   0.70003   0.70916   0.71096
 Alpha virt. eigenvalues --    0.71647   0.73137   0.73363   0.73960   0.74375
 Alpha virt. eigenvalues --    0.74857   0.75543   0.75724   0.76516   0.76560
 Alpha virt. eigenvalues --    0.77312   0.77836   0.77979   0.79371   0.80027
 Alpha virt. eigenvalues --    0.80921   0.81330   0.81923   0.82307   0.83659
 Alpha virt. eigenvalues --    0.83829   0.84221   0.84674   0.85717   0.87494
 Alpha virt. eigenvalues --    0.87605   0.88364   0.88999   0.89104   0.90646
 Alpha virt. eigenvalues --    0.91242   0.92295   0.92903   0.93305   0.94010
 Alpha virt. eigenvalues --    0.95501   0.95765   0.96508   0.98560   0.99018
 Alpha virt. eigenvalues --    1.00282   1.00383   1.01314   1.02345   1.03043
 Alpha virt. eigenvalues --    1.03889   1.04414   1.05148   1.06288   1.06823
 Alpha virt. eigenvalues --    1.07512   1.09282   1.09425   1.10246   1.11065
 Alpha virt. eigenvalues --    1.12161   1.12549   1.13748   1.14849   1.15702
 Alpha virt. eigenvalues --    1.16830   1.17090   1.18214   1.18820   1.20477
 Alpha virt. eigenvalues --    1.21283   1.22347   1.23670   1.24097   1.24764
 Alpha virt. eigenvalues --    1.25025   1.26023   1.28469   1.28743   1.29409
 Alpha virt. eigenvalues --    1.30974   1.32125   1.32626   1.34092   1.34918
 Alpha virt. eigenvalues --    1.35143   1.36324   1.36966   1.37815   1.38965
 Alpha virt. eigenvalues --    1.39404   1.40726   1.41892   1.42575   1.42706
 Alpha virt. eigenvalues --    1.44068   1.44799   1.46587   1.47415   1.47916
 Alpha virt. eigenvalues --    1.49617   1.50848   1.51451   1.51630   1.52313
 Alpha virt. eigenvalues --    1.52923   1.53447   1.54068   1.56162   1.56935
 Alpha virt. eigenvalues --    1.57427   1.58742   1.59766   1.60750   1.61392
 Alpha virt. eigenvalues --    1.64057   1.64741   1.65959   1.66364   1.67807
 Alpha virt. eigenvalues --    1.68072   1.69892   1.70230   1.72055   1.72104
 Alpha virt. eigenvalues --    1.72832   1.73785   1.74298   1.74931   1.76956
 Alpha virt. eigenvalues --    1.77551   1.78573   1.79086   1.79951   1.81216
 Alpha virt. eigenvalues --    1.81887   1.82272   1.82776   1.83892   1.84548
 Alpha virt. eigenvalues --    1.85877   1.86445   1.87243   1.87686   1.89351
 Alpha virt. eigenvalues --    1.91944   1.93124   1.94806   1.95121   1.97225
 Alpha virt. eigenvalues --    1.97715   1.98922   1.99011   2.00892   2.00981
 Alpha virt. eigenvalues --    2.02095   2.03114   2.04423   2.05521   2.06189
 Alpha virt. eigenvalues --    2.07250   2.08242   2.08865   2.08925   2.09855
 Alpha virt. eigenvalues --    2.11591   2.12580   2.13973   2.14599   2.16540
 Alpha virt. eigenvalues --    2.17132   2.19447   2.19995   2.22707   2.23545
 Alpha virt. eigenvalues --    2.23797   2.24733   2.25222   2.26387   2.27660
 Alpha virt. eigenvalues --    2.28475   2.30537   2.30677   2.34626   2.35163
 Alpha virt. eigenvalues --    2.36142   2.36801   2.37774   2.40188   2.42443
 Alpha virt. eigenvalues --    2.44511   2.44719   2.45990   2.46750   2.48342
 Alpha virt. eigenvalues --    2.49866   2.50698   2.52928   2.55554   2.56137
 Alpha virt. eigenvalues --    2.57172   2.58111   2.59664   2.61153   2.62230
 Alpha virt. eigenvalues --    2.63039   2.65450   2.67036   2.68986   2.69251
 Alpha virt. eigenvalues --    2.71064   2.71636   2.74459   2.75543   2.77579
 Alpha virt. eigenvalues --    2.78571   2.79603   2.83644   2.85859   2.86689
 Alpha virt. eigenvalues --    2.89226   2.90841   2.93023   2.98344   3.00397
 Alpha virt. eigenvalues --    3.00717   3.11283   3.12361   3.16568   3.20710
 Alpha virt. eigenvalues --    3.24829   3.28812   3.33785   3.35665   3.38816
 Alpha virt. eigenvalues --    3.39944   3.41041   3.41858   3.42993   3.44964
 Alpha virt. eigenvalues --    3.46677   3.47645   3.50053   3.52360   3.53330
 Alpha virt. eigenvalues --    3.53987   3.54558   3.55351   3.58040   3.60076
 Alpha virt. eigenvalues --    3.60905   3.62445   3.62956   3.64672   3.68063
 Alpha virt. eigenvalues --    3.69247   3.71494   3.72631   3.76466   3.76885
 Alpha virt. eigenvalues --    3.80224   3.85893   3.91090   3.95354   4.01269
 Alpha virt. eigenvalues --    4.06356   4.09786   4.10597   4.20577   4.85118
          Condensed to atoms (all electrons):
               1          2          3          4          5          6
     1  C    9.810930  -3.309552   2.066400   0.159624   0.495123  -0.007021
     2  C   -3.309552  11.255500  -4.464841  -0.643575  -1.521956   0.011952
     3  C    2.066400  -4.464841  13.611015   0.383933   0.784439  -0.195939
     4  O    0.159624  -0.643575   0.383933   8.642305  -0.034662   0.010806
     5  H    0.495123  -1.521956   0.784439  -0.034662   2.276145   0.041352
     6  O   -0.007021   0.011952  -0.195939   0.010806   0.041352   9.389983
     7  H    0.022004   0.112037  -0.813092  -0.003837   0.106267  -0.215278
     8  N   -0.194713   0.652659  -0.863712  -0.036719  -0.309830  -0.056742
     9  C   -2.856467   1.651811  -2.530572  -0.035848  -0.027965  -0.140237
    10  H   -1.072952   0.660966  -0.418396   0.007243  -0.199777   0.043659
    11  O   -0.356925   0.064056   0.030576  -0.042828   0.010785  -0.013895
    12  C    0.180986  -0.353189   0.209429   0.028161   0.020793  -0.027451
    13  H    0.389373  -0.009298   0.051242  -0.002412  -0.020812  -0.031342
    14  O   -0.086463   0.046423  -0.059779  -0.000632  -0.004738  -0.024072
    15  H    0.015329   0.056098   0.012962  -0.000241   0.004309   0.093428
    16  H   -0.040452  -0.034585   0.010417   0.001047  -0.000075  -0.089193
    17  H   -0.124146  -0.010692  -0.006522   0.024984   0.003736   0.006607
    18  H   -0.069694   0.233230  -0.121863   0.313820  -0.121967  -0.000551
    19  H   -0.007178   0.012226  -0.009558  -0.001038  -0.001721   0.034847
    20  C   -0.117102   0.277277  -1.574403  -0.017701  -0.055768  -0.116654
    21  C    0.046886  -0.080671   0.255986  -0.002772   0.010841   0.002674
    22  C   -0.048656   0.049399  -0.277362   0.001050   0.003966  -0.007601
    23  N   -0.057327   0.068972   0.054342  -0.001375  -0.005615  -0.004027
    24  C    0.015981   0.130448  -1.185888  -0.008529  -0.024904   0.179982
    25  H   -0.012293   0.124992  -0.028427  -0.015749  -0.004201   0.060116
    26  H   -0.000171  -0.005973   0.060423   0.000587  -0.000593  -0.001896
    27  H   -0.002454  -0.002570   0.003670  -0.000049  -0.000801   0.000065
    28  O    0.000908   0.001141   0.004384  -0.000033  -0.000039   0.000352
    29  O    0.064723  -0.035506   0.055382  -0.000710   0.046447  -0.011628
               7          8          9         10         11         12
     1  C    0.022004  -0.194713  -2.856467  -1.072952  -0.356925   0.180986
     2  C    0.112037   0.652659   1.651811   0.660966   0.064056  -0.353189
     3  C   -0.813092  -0.863712  -2.530572  -0.418396   0.030576   0.209429
     4  O   -0.003837  -0.036719  -0.035848   0.007243  -0.042828   0.028161
     5  H    0.106267  -0.309830  -0.027965  -0.199777   0.010785   0.020793
     6  O   -0.215278  -0.056742  -0.140237   0.043659  -0.013895  -0.027451
     7  H    2.325290  -0.110117   0.118618  -0.029820   0.009781  -0.009074
     8  N   -0.110117   8.072338   0.070570   0.028589  -0.001840   0.035625
     9  C    0.118618   0.070570  10.359370   0.212861   0.149806  -0.439079
    10  H   -0.029820   0.028589   0.212861   2.289280  -0.173357  -0.111404
    11  O    0.009781  -0.001840   0.149806  -0.173357   8.638477   0.042957
    12  C   -0.009074   0.035625  -0.439079  -0.111404   0.042957   5.040609
    13  H   -0.013370   0.023723  -1.257988   0.122668  -0.038355  -0.036842
    14  O   -0.003177   0.018490   0.036599   0.031131   0.001680   0.120174
    15  H   -0.000491  -0.001931  -0.180918  -0.033768   0.013332   0.104527
    16  H    0.000984  -0.000232   0.386190   0.022210  -0.000690   0.001232
    17  H   -0.004774  -0.002455   0.046562   0.027753   0.326717  -0.011877
    18  H   -0.020074   0.022742  -0.011651   0.008012   0.002861  -0.005103
    19  H    0.000296  -0.008428  -0.038901   0.001574  -0.001268  -0.048926
    20  C    0.294341   0.027102  -0.016575  -0.014870   0.007213  -0.021668
    21  C    0.030249  -0.342458  -0.058275   0.005212  -0.001527   0.006306
    22  C    0.010018  -0.121807   0.028240  -0.004229   0.000951  -0.005829
    23  N    0.011580  -0.047692   0.006289  -0.000624   0.000895  -0.005938
    24  C   -0.092391   0.052544   0.075334   0.079899  -0.019262  -0.064401
    25  H   -0.256574  -0.070975   0.047058  -0.000354   0.000094   0.005751
    26  H   -0.005247   0.060671  -0.000284   0.000052  -0.000026   0.000361
    27  H   -0.001227   0.052092  -0.001592  -0.000655  -0.000141   0.000164
    28  O   -0.000004  -0.006297  -0.000084   0.000361  -0.000006  -0.000016
    29  O    0.023776  -0.128051  -0.026921  -0.016921   0.003727   0.002949
              13         14         15         16         17         18
     1  C    0.389373  -0.086463   0.015329  -0.040452  -0.124146  -0.069694
     2  C   -0.009298   0.046423   0.056098  -0.034585  -0.010692   0.233230
     3  C    0.051242  -0.059779   0.012962   0.010417  -0.006522  -0.121863
     4  O   -0.002412  -0.000632  -0.000241   0.001047   0.024984   0.313820
     5  H   -0.020812  -0.004738   0.004309  -0.000075   0.003736  -0.121967
     6  O   -0.031342  -0.024072   0.093428  -0.089193   0.006607  -0.000551
     7  H   -0.013370  -0.003177  -0.000491   0.000984  -0.004774  -0.020074
     8  N    0.023723   0.018490  -0.001931  -0.000232  -0.002455   0.022742
     9  C   -1.257988   0.036599  -0.180918   0.386190   0.046562  -0.011651
    10  H    0.122668   0.031131  -0.033768   0.022210   0.027753   0.008012
    11  O   -0.038355   0.001680   0.013332  -0.000690   0.326717   0.002861
    12  C   -0.036842   0.120174   0.104527   0.001232  -0.011877  -0.005103
    13  H    2.452681   0.025726  -0.067802  -0.037901  -0.002183   0.005630
    14  O    0.025726   8.380828  -0.130097  -0.045923  -0.000076   0.000475
    15  H   -0.067802  -0.130097   1.688561  -0.332547  -0.000588  -0.000296
    16  H   -0.037901  -0.045923  -0.332547   1.469628  -0.002021  -0.000459
    17  H   -0.002183  -0.000076  -0.000588  -0.002021   0.594780  -0.004097
    18  H    0.005630   0.000475  -0.000296  -0.000459  -0.004097   0.600417
    19  H    0.005980   0.258656   0.021456  -0.035027   0.000483   0.000278
    20  C    0.011744   0.000288  -0.000738   0.000319  -0.001450   0.009307
    21  C   -0.005568   0.001833   0.000469   0.000485   0.000741  -0.004612
    22  C    0.001611  -0.001615  -0.000876   0.000632  -0.000557   0.001565
    23  N    0.001161  -0.000810  -0.000307  -0.001142  -0.000461   0.001139
    24  C    0.022080   0.002633  -0.016794   0.014959   0.002415   0.003967
    25  H    0.007093  -0.000128   0.000554  -0.000425  -0.000313   0.005270
    26  H   -0.000113   0.000048  -0.000017   0.000093  -0.000016   0.000269
    27  H   -0.000028   0.000489   0.000022   0.000210  -0.000026   0.000071
    28  O    0.000011   0.000047   0.000006  -0.000026   0.000007   0.000019
    29  O    0.002403  -0.013023   0.004970  -0.003944  -0.001454  -0.001297
              19         20         21         22         23         24
     1  C   -0.007178  -0.117102   0.046886  -0.048656  -0.057327   0.015981
     2  C    0.012226   0.277277  -0.080671   0.049399   0.068972   0.130448
     3  C   -0.009558  -1.574403   0.255986  -0.277362   0.054342  -1.185888
     4  O   -0.001038  -0.017701  -0.002772   0.001050  -0.001375  -0.008529
     5  H   -0.001721  -0.055768   0.010841   0.003966  -0.005615  -0.024904
     6  O    0.034847  -0.116654   0.002674  -0.007601  -0.004027   0.179982
     7  H    0.000296   0.294341   0.030249   0.010018   0.011580  -0.092391
     8  N   -0.008428   0.027102  -0.342458  -0.121807  -0.047692   0.052544
     9  C   -0.038901  -0.016575  -0.058275   0.028240   0.006289   0.075334
    10  H    0.001574  -0.014870   0.005212  -0.004229  -0.000624   0.079899
    11  O   -0.001268   0.007213  -0.001527   0.000951   0.000895  -0.019262
    12  C   -0.048926  -0.021668   0.006306  -0.005829  -0.005938  -0.064401
    13  H    0.005980   0.011744  -0.005568   0.001611   0.001161   0.022080
    14  O    0.258656   0.000288   0.001833  -0.001615  -0.000810   0.002633
    15  H    0.021456  -0.000738   0.000469  -0.000876  -0.000307  -0.016794
    16  H   -0.035027   0.000319   0.000485   0.000632  -0.001142   0.014959
    17  H    0.000483  -0.001450   0.000741  -0.000557  -0.000461   0.002415
    18  H    0.000278   0.009307  -0.004612   0.001565   0.001139   0.003967
    19  H    0.579130  -0.002397   0.002612   0.000250   0.001898  -0.000738
    20  C   -0.002397   9.818643  -2.077643   0.416673   0.257372  -1.506620
    21  C    0.002612  -2.077643   9.117397  -1.811354  -0.114781   0.790556
    22  C    0.000250   0.416673  -1.811354   7.871830   0.343022  -0.782514
    23  N    0.001898   0.257372  -0.114781   0.343022   7.340079  -0.548126
    24  C   -0.000738  -1.506620   0.790556  -0.782514  -0.548126   8.022344
    25  H   -0.000455  -0.609447  -0.089803  -0.088491  -0.012822   0.073478
    26  H   -0.000056   0.526118  -0.874576   0.156948  -0.035938  -0.107733
    27  H   -0.000913  -0.018828   0.017923  -0.135804   0.449305  -0.321557
    28  O   -0.000104   0.010621  -0.039833   0.077182  -0.125917   0.114593
    29  O    0.032033  -0.041239   0.011350  -0.044911  -0.356335   0.415759
              25         26         27         28         29
     1  C   -0.012293  -0.000171  -0.002454   0.000908   0.064723
     2  C    0.124992  -0.005973  -0.002570   0.001141  -0.035506
     3  C   -0.028427   0.060423   0.003670   0.004384   0.055382
     4  O   -0.015749   0.000587  -0.000049  -0.000033  -0.000710
     5  H   -0.004201  -0.000593  -0.000801  -0.000039   0.046447
     6  O    0.060116  -0.001896   0.000065   0.000352  -0.011628
     7  H   -0.256574  -0.005247  -0.001227  -0.000004   0.023776
     8  N   -0.070975   0.060671   0.052092  -0.006297  -0.128051
     9  C    0.047058  -0.000284  -0.001592  -0.000084  -0.026921
    10  H   -0.000354   0.000052  -0.000655   0.000361  -0.016921
    11  O    0.000094  -0.000026  -0.000141  -0.000006   0.003727
    12  C    0.005751   0.000361   0.000164  -0.000016   0.002949
    13  H    0.007093  -0.000113  -0.000028   0.000011   0.002403
    14  O   -0.000128   0.000048   0.000489   0.000047  -0.013023
    15  H    0.000554  -0.000017   0.000022   0.000006   0.004970
    16  H   -0.000425   0.000093   0.000210  -0.000026  -0.003944
    17  H   -0.000313  -0.000016  -0.000026   0.000007  -0.001454
    18  H    0.005270   0.000269   0.000071   0.000019  -0.001297
    19  H   -0.000455  -0.000056  -0.000913  -0.000104   0.032033
    20  C   -0.609447   0.526118  -0.018828   0.010621  -0.041239
    21  C   -0.089803  -0.874576   0.017923  -0.039833   0.011350
    22  C   -0.088491   0.156948  -0.135804   0.077182  -0.044911
    23  N   -0.012822  -0.035938   0.449305  -0.125917  -0.356335
    24  C    0.073478  -0.107733  -0.321557   0.114593   0.415759
    25  H    2.778675  -0.159492   0.000704  -0.000084   0.000171
    26  H   -0.159492   1.969688   0.009125  -0.019147   0.001747
    27  H    0.000704   0.009125   1.093886  -0.049994  -0.005182
    28  O   -0.000084  -0.019147  -0.049994   8.694286  -0.000390
    29  O    0.000171   0.001747  -0.005182  -0.000390   8.673045
 Mulliken charges:
               1
     1  C    1.095297
     2  C    1.063220
     3  C    0.955753
     4  O   -0.724847
     5  H   -0.468779
     6  O   -0.932296
     7  H   -0.486694
     8  N    0.186851
     9  C    0.434049
    10  H   -0.464343
    11  O   -0.653790
    12  C    1.340775
    13  H   -0.599114
    14  O   -0.554989
    15  H   -0.248615
    16  H   -0.283765
    17  H    0.138923
    18  H    0.152595
    19  H    0.204990
    20  C    0.536083
    21  C    1.202353
    22  C    0.368270
    23  N   -0.216817
    24  C    0.682483
    25  H   -0.753924
    26  H   -0.574851
    27  H   -0.085906
    28  O   -0.661944
    29  O   -0.650967
 Sum of Mulliken charges =  -0.00000
 Mulliken charges with hydrogens summed into heavy atoms:
               1
     1  C    0.630954
     2  C    0.594441
     3  C    0.469059
     4  O   -0.572252
     6  O   -0.932296
     8  N    0.186851
     9  C   -0.165065
    11  O   -0.514867
    12  C    0.808395
    14  O   -0.349999
    20  C   -0.217841
    21  C    0.627502
    22  C    0.368270
    23  N   -0.302723
    24  C    0.682483
    28  O   -0.661944
    29  O   -0.650967
 Electronic spatial extent (au):  <R**2>=           4164.5284
 Charge=             -0.0000 electrons
 Dipole moment (field-independent basis, Debye):
    X=             -0.6507    Y=             -5.8047    Z=              1.8500  Tot=              6.1270
 Quadrupole moment (field-independent basis, Debye-Ang):
   XX=           -126.2445   YY=            -94.9184   ZZ=            -98.2394
   XY=              0.7984   XZ=              2.2334   YZ=             -0.7528
 Traceless Quadrupole moment (field-independent basis, Debye-Ang):
   XX=            -19.7771   YY=             11.5491   ZZ=              8.2280
   XY=              0.7984   XZ=              2.2334   YZ=             -0.7528
 Octapole moment (field-independent basis, Debye-Ang**2):
  XXX=            124.7086  YYY=            -52.6450  ZZZ=             -6.3667  XYY=            -20.3352
  XXY=            -17.6761  XXZ=             39.6509  XZZ=             -6.5697  YZZ=             -3.7281
  YYZ=             -0.4543  XYZ=             14.1295
 Hexadecapole moment (field-independent basis, Debye-Ang**3):
 XXXX=          -4633.6585 YYYY=          -1070.1618 ZZZZ=           -456.0333 XXXY=            123.8308
 XXXZ=            -19.7065 YYYX=           -102.7203 YYYZ=             14.8130 ZZZX=             17.1889
 ZZZY=             -8.1005 XXYY=           -788.8299 XXZZ=           -700.8174 YYZZ=           -236.8497
 XXYZ=            -20.1595 YYXZ=             -2.6660 ZZXY=             -0.8529
 N-N= 1.330732733392D+03 E-N=-4.792610882443D+03  KE= 9.052077093846D+02
 Calling FoFJK, ICntrl=      2127 FMM=F ISym2X=0 I1Cent= 0 IOpClX= 0 NMat=1 NMatS=1 NMatT=0.
 ***** Axes restored to original set *****
 -------------------------------------------------------------------
 Center     Atomic                   Forces (Hartrees/Bohr)
 Number     Number              X              Y              Z
 -------------------------------------------------------------------
      1        6          -0.016440115   -0.010035309   -0.014412967
      2        6           0.002980498   -0.004826422   -0.011618991
      3        6          -0.007932696    0.010440817    0.014750774
      4        8           0.014142745    0.006636470    0.002606554
      5        1           0.004399414    0.003022444    0.004943054
      6        8           0.007094426   -0.018549773   -0.005193051
      7        1           0.007795632   -0.002291941   -0.003513197
      8        7          -0.005487309    0.001214123   -0.005944891
      9        6          -0.006969414    0.007899341    0.014626781
     10        1          -0.000317307    0.002732316    0.001355545
     11        8           0.009827187    0.006030082   -0.004355503
     12        6           0.019851407    0.003756163    0.007006084
     13        1          -0.003869246   -0.003680150   -0.003252285
     14        8           0.004464443   -0.001599854   -0.010534582
     15        1          -0.000992792   -0.003084501   -0.002508530
     16        1          -0.004962229    0.005639014   -0.005561633
     17        1          -0.003262210   -0.000923971    0.012513478
     18        1          -0.012537070   -0.000285715    0.006717969
     19        1          -0.010507576   -0.003106585    0.003843849
     20        6          -0.003870540    0.000771597   -0.000356636
     21        6           0.004473032   -0.006781801    0.015796378
     22        6           0.032163365    0.021177850   -0.026142186
     23        7          -0.006776638   -0.000733195   -0.001619356
     24        6          -0.012150146   -0.009309304    0.012032157
     25        1          -0.006390058   -0.001749738   -0.000350431
     26        1           0.001062537    0.000932306   -0.001447766
     27        1          -0.001176144   -0.002490044    0.004396226
     28        8          -0.007510376   -0.005742548    0.008398197
     29        8           0.002897181    0.004938327   -0.012175039
 -------------------------------------------------------------------
 Cartesian Forces:  Max     0.032163365 RMS     0.009016662

 GradGradGradGradGradGradGradGradGradGradGradGradGradGradGradGradGradGrad
 Berny optimization.
 FormGI is forming the generalized inverse of G from B-inverse, IUseBI=4.
 Internal  Forces:  Max     0.020648451 RMS     0.004743242
 Search for a local minimum.
 Step number   1 out of a maximum of  173
 All quantities printed in internal units (Hartrees-Bohrs-Radians)
 Mixed Optimization -- RFO/linear search
 Second derivative matrix not updated -- first step.
 ITU=  0
     Eigenvalues ---    0.00375   0.00445   0.00849   0.00870   0.01099
     Eigenvalues ---    0.01328   0.01333   0.01471   0.01592   0.01787
     Eigenvalues ---    0.01961   0.01986   0.02091   0.02135   0.02336
     Eigenvalues ---    0.02534   0.03071   0.03631   0.04325   0.04744
     Eigenvalues ---    0.04792   0.04841   0.05288   0.05546   0.05683
     Eigenvalues ---    0.06115   0.06287   0.06534   0.07912   0.08511
     Eigenvalues ---    0.10276   0.11742   0.13506   0.13955   0.15999
     Eigenvalues ---    0.16000   0.16000   0.16000   0.16000   0.16000
     Eigenvalues ---    0.16146   0.17381   0.19308   0.19582   0.22069
     Eigenvalues ---    0.22359   0.23437   0.24610   0.24995   0.24999
     Eigenvalues ---    0.25000   0.26452   0.28810   0.29263   0.29466
     Eigenvalues ---    0.33977   0.33985   0.34275   0.34278   0.34347
     Eigenvalues ---    0.34396   0.34840   0.35207   0.35771   0.36700
     Eigenvalues ---    0.37499   0.38776   0.38933   0.41354   0.41403
     Eigenvalues ---    0.45356   0.46238   0.46239   0.49577   0.51343
     Eigenvalues ---    0.51484   0.51506   0.52382   0.56969   0.91665
     Eigenvalues ---    0.93484
 RFO step:  Lambda=-1.48070822D-02 EMin= 3.75246844D-03
 Linear search not attempted -- first point.
 Iteration  1 RMS(Cart)=  0.06050922 RMS(Int)=  0.00146132
 Iteration  2 RMS(Cart)=  0.00188576 RMS(Int)=  0.00023682
 Iteration  3 RMS(Cart)=  0.00000212 RMS(Int)=  0.00023682
 Iteration  4 RMS(Cart)=  0.00000000 RMS(Int)=  0.00023682
 Variable       Old X    -DE/DX   Delta X   Delta X   Delta X     New X
                                 (Linear)    (Quad)   (Total)
    R1        2.87757   0.00768   0.00000   0.02809   0.02805   2.90562
    R2        2.88156  -0.00025   0.00000   0.00150   0.00158   2.88313
    R3        2.06668  -0.00014   0.00000  -0.00038  -0.00038   2.06630
    R4        2.69754  -0.01067   0.00000  -0.02491  -0.02491   2.67263
    R5        2.91379  -0.00067   0.00000  -0.00369  -0.00378   2.91001
    R6        2.73030  -0.01003   0.00000  -0.02482  -0.02482   2.70548
    R7        2.06864   0.00177   0.00000   0.00494   0.00494   2.07358
    R8        2.70863  -0.01161   0.00000  -0.03082  -0.03083   2.67780
    R9        2.07369   0.00117   0.00000   0.00331   0.00331   2.07700
   R10        2.76300  -0.00475   0.00000  -0.01243  -0.01243   2.75057
   R11        1.84236  -0.01389   0.00000  -0.02579  -0.02579   1.81656
   R12        2.72441  -0.00245   0.00000  -0.00658  -0.00651   2.71790
   R13        2.61269  -0.00069   0.00000  -0.00242  -0.00244   2.61025
   R14        2.62388  -0.00600   0.00000  -0.01313  -0.01318   2.61070
   R15        2.89040  -0.00990   0.00000  -0.03198  -0.03198   2.85843
   R16        2.07356   0.00383   0.00000   0.01080   0.01080   2.08435
   R17        1.85233  -0.01279   0.00000  -0.02420  -0.02420   1.82813
   R18        2.69690  -0.00751   0.00000  -0.01752  -0.01752   2.67938
   R19        2.06748   0.00219   0.00000   0.00612   0.00612   2.07360
   R20        2.06868   0.00582   0.00000   0.01627   0.01627   2.08495
   R21        1.85075  -0.01157   0.00000  -0.02183  -0.02183   1.82892
   R22        2.52231   0.01428   0.00000   0.02367   0.02370   2.54601
   R23        2.05339   0.00171   0.00000   0.00466   0.00466   2.05805
   R24        2.77880  -0.00807   0.00000  -0.02057  -0.02051   2.75829
   R25        2.04441   0.00197   0.00000   0.00529   0.00529   2.04971
   R26        2.57656   0.02065   0.00000   0.03937   0.03939   2.61595
   R27        2.31367  -0.00508   0.00000  -0.00535  -0.00535   2.30833
   R28        2.58844   0.00761   0.00000   0.01470   0.01467   2.60311
   R29        1.90564   0.00451   0.00000   0.00945   0.00945   1.91509
   R30        2.32175  -0.01159   0.00000  -0.01244  -0.01244   2.30931
    A1        1.80047  -0.00285   0.00000   0.00124   0.00097   1.80144
    A2        1.92082  -0.00151   0.00000  -0.01228  -0.01274   1.90808
    A3        1.95034   0.00680   0.00000   0.04766   0.04750   1.99784
    A4        1.94855  -0.00084   0.00000  -0.03360  -0.03387   1.91469
    A5        1.95548   0.00008   0.00000   0.00885   0.00801   1.96349
    A6        1.88808  -0.00159   0.00000  -0.01119  -0.01105   1.87702
    A7        1.81576   0.00211   0.00000   0.00372   0.00346   1.81923
    A8        1.89611  -0.00220   0.00000  -0.01957  -0.01946   1.87665
    A9        1.95672   0.00012   0.00000   0.00807   0.00783   1.96455
   A10        1.93724  -0.00162   0.00000  -0.01876  -0.01887   1.91837
   A11        1.99095  -0.00310   0.00000  -0.02793  -0.02775   1.96320
   A12        1.86639   0.00443   0.00000   0.05152   0.05153   1.91793
   A13        1.89932  -0.00461   0.00000  -0.01650  -0.01659   1.88273
   A14        1.90059   0.00097   0.00000   0.00075   0.00060   1.90120
   A15        2.01285   0.00321   0.00000   0.01102   0.01085   2.02370
   A16        1.84808   0.00353   0.00000   0.04558   0.04565   1.89373
   A17        1.90351   0.00256   0.00000   0.01625   0.01659   1.92010
   A18        1.89247  -0.00554   0.00000  -0.05356  -0.05362   1.83885
   A19        1.86892   0.00513   0.00000   0.02933   0.02933   1.89825
   A20        1.87653   0.00976   0.00000   0.03560   0.03549   1.91202
   A21        2.08558   0.00145   0.00000   0.00779   0.00781   2.09339
   A22        2.07900  -0.00133   0.00000  -0.00273  -0.00270   2.07630
   A23        2.11843  -0.00012   0.00000  -0.00497  -0.00504   2.11339
   A24        1.86491  -0.00346   0.00000  -0.02297  -0.02269   1.84222
   A25        1.98432   0.00388   0.00000   0.01553   0.01508   1.99939
   A26        1.93191  -0.00185   0.00000  -0.01748  -0.01729   1.91461
   A27        1.90260  -0.00067   0.00000  -0.01276  -0.01259   1.89001
   A28        1.87953   0.00245   0.00000   0.03073   0.03042   1.90994
   A29        1.89752  -0.00039   0.00000   0.00772   0.00785   1.90537
   A30        1.84021   0.00364   0.00000   0.02084   0.02084   1.86105
   A31        1.96265   0.00052   0.00000   0.00522   0.00472   1.96737
   A32        1.93490  -0.00343   0.00000  -0.04212  -0.04280   1.89211
   A33        1.91972  -0.00409   0.00000  -0.01651  -0.01748   1.90223
   A34        1.88357  -0.00071   0.00000  -0.01797  -0.01841   1.86515
   A35        1.86565   0.00675   0.00000   0.07454   0.07443   1.94007
   A36        1.89477   0.00141   0.00000   0.00080   0.00003   1.89480
   A37        1.88328   0.00100   0.00000   0.00574   0.00574   1.88902
   A38        2.13059   0.00397   0.00000   0.01326   0.01329   2.14388
   A39        2.05422  -0.00857   0.00000  -0.04427  -0.04429   2.00993
   A40        2.09834   0.00460   0.00000   0.03103   0.03102   2.12935
   A41        2.07601   0.00208   0.00000   0.00912   0.00922   2.08523
   A42        2.15483  -0.00149   0.00000  -0.00715  -0.00720   2.14764
   A43        2.05233  -0.00059   0.00000  -0.00199  -0.00204   2.05029
   A44        2.01793  -0.00968   0.00000  -0.03379  -0.03370   1.98422
   A45        2.11315   0.01822   0.00000   0.06745   0.06740   2.18055
   A46        2.15209  -0.00854   0.00000  -0.03363  -0.03368   2.11841
   A47        2.20085   0.00658   0.00000   0.02948   0.02947   2.23032
   A48        2.04395  -0.00085   0.00000  -0.00074  -0.00075   2.04320
   A49        2.03838  -0.00574   0.00000  -0.02871  -0.02872   2.00966
   A50        2.02243  -0.00283   0.00000  -0.01303  -0.01319   2.00925
   A51        2.16458  -0.00628   0.00000  -0.02263  -0.02265   2.14193
   A52        2.09614   0.00911   0.00000   0.03550   0.03546   2.13160
    D1        0.39495  -0.00120   0.00000  -0.01847  -0.01863   0.37633
    D2       -1.66977   0.00060   0.00000   0.01035   0.01010  -1.65967
    D3        2.55459  -0.00353   0.00000  -0.04553  -0.04580   2.50879
    D4       -1.68631   0.00206   0.00000   0.02578   0.02580  -1.66051
    D5        2.53216   0.00386   0.00000   0.05460   0.05452   2.58668
    D6        0.47333  -0.00028   0.00000  -0.00128  -0.00138   0.47196
    D7        2.49880   0.00063   0.00000   0.01696   0.01724   2.51605
    D8        0.43409   0.00243   0.00000   0.04578   0.04596   0.48005
    D9       -1.62474  -0.00170   0.00000  -0.01010  -0.00993  -1.63467
   D10       -0.55116   0.00381   0.00000   0.01297   0.01311  -0.53805
   D11       -2.65088   0.00467   0.00000   0.03523   0.03534  -2.61554
   D12        1.49062   0.00376   0.00000   0.02709   0.02738   1.51800
   D13        1.51080  -0.00001   0.00000  -0.01681  -0.01670   1.49411
   D14       -0.58892   0.00084   0.00000   0.00544   0.00553  -0.58339
   D15       -2.73060  -0.00007   0.00000  -0.00269  -0.00243  -2.73303
   D16       -2.65150  -0.00261   0.00000  -0.04910  -0.04903  -2.70053
   D17        1.53196  -0.00176   0.00000  -0.02685  -0.02681   1.50516
   D18       -0.60972  -0.00267   0.00000  -0.03499  -0.03477  -0.64448
   D19       -0.37177  -0.00035   0.00000  -0.02866  -0.02917  -0.40093
   D20        1.63900   0.00045   0.00000   0.00875   0.00924   1.64824
   D21       -2.48891  -0.00167   0.00000  -0.03578  -0.03575  -2.52466
   D22       -0.12111   0.00055   0.00000   0.02992   0.02949  -0.09163
   D23       -2.12796  -0.00168   0.00000  -0.01563  -0.01595  -2.14392
   D24        2.02380   0.00259   0.00000   0.04622   0.04595   2.06975
   D25        1.91511  -0.00163   0.00000   0.00022   0.00003   1.91515
   D26       -0.09173  -0.00385   0.00000  -0.04533  -0.04541  -0.13714
   D27       -2.22315   0.00042   0.00000   0.01651   0.01650  -2.20666
   D28       -2.25836   0.00074   0.00000   0.03356   0.03338  -2.22498
   D29        2.01797  -0.00148   0.00000  -0.01199  -0.01206   2.00592
   D30       -0.11345   0.00279   0.00000   0.04985   0.04985  -0.06360
   D31       -2.91335   0.00040   0.00000   0.01427   0.01445  -2.89890
   D32        1.38359  -0.00000   0.00000   0.03102   0.03074   1.41433
   D33       -0.79808   0.00188   0.00000   0.04277   0.04288  -0.75520
   D34       -0.22578  -0.00066   0.00000  -0.03159  -0.03174  -0.25752
   D35        1.81487   0.00005   0.00000  -0.01483  -0.01529   1.79958
   D36       -2.43508  -0.00329   0.00000  -0.04525  -0.04524  -2.48032
   D37        2.06598   0.00161   0.00000   0.04479   0.04485   2.11083
   D38       -1.09601   0.00176   0.00000   0.04993   0.04996  -1.04604
   D39       -2.07452  -0.00015   0.00000   0.04370   0.04400  -2.03052
   D40        1.04668  -0.00001   0.00000   0.04884   0.04912   1.09579
   D41       -0.06979   0.00240   0.00000   0.07748   0.07716   0.00738
   D42        3.05141   0.00255   0.00000   0.08263   0.08228   3.13369
   D43        0.48848   0.00047   0.00000   0.01757   0.01782   0.50630
   D44        2.63978   0.00266   0.00000   0.01483   0.01528   2.65506
   D45       -1.58764   0.00320   0.00000   0.03422   0.03475  -1.55289
   D46        3.13488   0.00016   0.00000   0.00424   0.00407   3.13895
   D47        0.00293   0.00006   0.00000   0.00220   0.00216   0.00510
   D48        0.01416   0.00002   0.00000  -0.00105  -0.00119   0.01297
   D49       -3.11779  -0.00008   0.00000  -0.00309  -0.00310  -3.12088
   D50       -3.13705  -0.00000   0.00000  -0.00061  -0.00055  -3.13760
   D51        0.01275   0.00073   0.00000   0.02178   0.02146   0.03421
   D52       -0.01625   0.00017   0.00000   0.00479   0.00478  -0.01148
   D53        3.13355   0.00090   0.00000   0.02717   0.02679  -3.12284
   D54        0.98432  -0.00439   0.00000  -0.08300  -0.08280   0.90152
   D55       -1.12605  -0.00140   0.00000  -0.03363  -0.03351  -1.15956
   D56        3.06139   0.00169   0.00000   0.00313   0.00283   3.06422
   D57       -1.09402  -0.00202   0.00000  -0.05500  -0.05491  -1.14893
   D58        3.07880   0.00097   0.00000  -0.00563  -0.00563   3.07317
   D59        0.98306   0.00406   0.00000   0.03113   0.03071   1.01377
   D60       -3.13840  -0.00436   0.00000  -0.08896  -0.08866   3.05613
   D61        1.03442  -0.00137   0.00000  -0.03959  -0.03938   0.99504
   D62       -1.06132   0.00172   0.00000  -0.00283  -0.00304  -1.06436
   D63        0.56354   0.00092   0.00000   0.01424   0.01478   0.57832
   D64        2.70311  -0.00357   0.00000  -0.04803  -0.04795   2.65516
   D65       -1.54489   0.00119   0.00000  -0.01782  -0.01844  -1.56333
   D66       -0.00047  -0.00007   0.00000  -0.00294  -0.00292  -0.00339
   D67       -3.13578  -0.00000   0.00000  -0.00082  -0.00077  -3.13656
   D68        3.13124  -0.00004   0.00000  -0.00126  -0.00130   3.12995
   D69       -0.00407   0.00003   0.00000   0.00086   0.00085  -0.00322
   D70       -0.00972   0.00014   0.00000   0.00353   0.00355  -0.00618
   D71        3.12634   0.00024   0.00000   0.00844   0.00853   3.13487
   D72        3.12596   0.00007   0.00000   0.00152   0.00150   3.12746
   D73       -0.02116   0.00017   0.00000   0.00642   0.00648  -0.01468
   D74        0.00725   0.00002   0.00000   0.00028   0.00018   0.00743
   D75       -3.12995  -0.00021   0.00000  -0.00604  -0.00627  -3.13622
   D76       -3.12868  -0.00018   0.00000  -0.00510  -0.00496  -3.13363
   D77        0.01731  -0.00041   0.00000  -0.01143  -0.01141   0.00590
   D78        0.00541  -0.00015   0.00000  -0.00428  -0.00421   0.00120
   D79        3.13913  -0.00093   0.00000  -0.02600  -0.02637   3.11276
   D80       -3.14057   0.00009   0.00000   0.00209   0.00220  -3.13837
   D81       -0.00684  -0.00069   0.00000  -0.01963  -0.01996  -0.02681
         Item               Value     Threshold  Converged?
 Maximum Force            0.020648     0.000450     NO 
 RMS     Force            0.004743     0.000300     NO 
 Maximum Displacement     0.205622     0.001800     NO 
 RMS     Displacement     0.060571     0.001200     NO 
 Predicted change in Energy=-8.392545D-03
 GradGradGradGradGradGradGradGradGradGradGradGradGradGradGradGradGradGrad

                          Input orientation:                          
 ---------------------------------------------------------------------
 Center     Atomic      Atomic             Coordinates (Angstroms)
 Number     Number       Type             X           Y           Z
 ---------------------------------------------------------------------
      1          6           0       -3.333785   -1.819747    0.720014
      2          6           0       -2.167086   -1.660639   -0.268758
      3          6           0       -1.707280   -0.203091   -0.080464
      4          8           0       -2.692890   -1.839502   -1.588318
      5          1           0       -1.360269   -2.381910   -0.087466
      6          8           0       -2.606117    0.423874    0.817854
      7          1           0       -1.762129    0.315894   -1.047764
      8          7           0       -0.337623   -0.021412    0.377385
      9          6           0       -3.788685   -0.382840    0.956843
     10          1           0       -2.960284   -2.246984    1.654665
     11          8           0       -4.382023   -2.650503    0.260370
     12          6           0       -4.378999   -0.127905    2.325982
     13          1           0       -4.522911   -0.093506    0.186266
     14          8           0       -3.539606   -0.577267    3.376619
     15          1           0       -5.319032   -0.688003    2.407824
     16          1           0       -4.601343    0.948091    2.426404
     17          1           0       -4.327103   -2.656775   -0.705455
     18          1           0       -1.960632   -1.961992   -2.198943
     19          1           0       -2.619533   -0.466606    3.097522
     20          6           0        0.556178    0.699207   -0.390584
     21          6           0        1.835468    0.905714   -0.021853
     22          6           0        2.316285    0.356120    1.241975
     23          7           0        1.350753   -0.339664    1.949033
     24          6           0        0.039496   -0.563168    1.591009
     25          1           0        0.151402    1.099209   -1.319149
     26          1           0        2.538985    1.474783   -0.619938
     27          1           0        1.628578   -0.739415    2.837871
     28          8           0        3.454283    0.476473    1.669260
     29          8           0       -0.720642   -1.221586    2.285300
 ---------------------------------------------------------------------
                    Distance matrix (angstroms):
                    1          2          3          4          5
     1  C    0.000000
     2  C    1.537586   0.000000
     3  C    2.428962   1.539909   0.000000
     4  O    2.395732   1.431678   2.433699   0.000000
     5  H    2.205179   1.097293   2.206290   2.079096   0.000000
     6  O    2.360701   2.391373   1.417028   3.304552   3.200651
     7  H    3.186865   2.162758   1.099102   2.409200   2.891679
     8  N    3.511181   2.539980   1.455539   3.566051   2.614162
     9  C    1.525688   2.400926   2.332500   3.130570   3.314221
    10  H    1.093439   2.161601   2.959424   3.279403   2.369235
    11  O    1.414295   2.483094   3.641462   2.632212   3.053544
    12  C    2.556156   3.738249   3.596486   4.592850   4.474148
    13  H    2.163057   2.865809   2.830359   3.089761   3.913314
    14  O    2.940012   4.043053   3.930502   5.192376   4.472822
    15  H    2.840908   4.247926   4.412649   4.918508   4.976706
    16  H    3.489900   4.471574   3.998150   5.246986   5.283276
    17  H    1.928538   2.418402   3.643439   2.029294   3.042953
    18  H    3.228946   1.964447   2.765117   0.961284   2.234972
    19  H    2.827312   3.600314   3.316811   4.883372   3.924065
    20  C    4.765540   3.605535   2.456330   4.293722   3.641144
    21  C    5.890644   4.761047   3.712675   5.522323   4.585359
    22  C    6.077016   5.142980   4.272076   6.158177   4.772973
    23  N    5.064191   4.363343   3.672748   5.577940   3.958250
    24  C    3.703599   3.087423   2.444321   4.382132   2.843316
    25  H    4.982472   3.754394   2.585542   4.098594   3.990036
    26  H    6.865772   5.665801   4.597506   6.268553   5.510153
    27  H    5.502498   4.990678   4.464557   6.283027   4.493172
    28  O    7.228524   6.318461   5.492274   7.332345   5.868249
    29  O    3.104261   2.967858   2.758193   4.390501   2.717627
                    6          7          8          9         10
     6  O    0.000000
     7  H    2.050490   0.000000
     8  N    2.353372   2.043047   0.000000
     9  C    1.438252   2.934895   3.517986   0.000000
    10  H    2.821200   3.912422   3.669191   2.155977   0.000000
[...]
 79,-0.00170611,-0.02792174,-0.01714656,0.00995430,0.02723304,-0.002998
 46,0.01661997,-0.13759048,-0.03493148,0.00174245,0.66013277,0.00039841
 ,-0.00013818,0.00059757,0.00053040,-0.00043923,0.00119894,-0.00183574,
 0.00003602,0.00504982,-0.00011163,0.00030691,-0.00075657,-0.00000372,0
 .00024184,0.00033541,-0.00095687,0.00088622,-0.00171692,0.00095102,0.0
 0015543,-0.00011697,0.01639252,0.01773119,-0.00302242,0.00028698,-0.00
 014181,0.00014292,0.00038050,0.00032949,-0.00014685,-0.00036333,0.0000
 1664,-0.00047485,0.00078464,-0.00049257,0.00080195,-0.00011333,0.00002
 222,-0.00012548,-0.00176173,0.00074107,0.00007830,-0.00014384,0.000022
 36,-0.00012402,-0.00013776,0.00019003,-0.00008973,-0.00004485,-0.00001
 750,0.00002461,0.00004869,0.00010475,0.00014614,0.00221128,-0.00126760
 ,-0.00122936,-0.00931788,-0.00604818,0.00433385,-0.00674200,-0.0073162
 7,0.02473608,-0.05232516,-0.11483464,0.06896889,0.14885128,0.29320284,
 -0.00006869,0.00017977,-0.00052259,0.00011104,0.00077347,0.00001280,0.
 00441971,0.00463702,-0.00543677,0.00004663,-0.00034625,0.00035533,0.00
 017089,-0.00034000,-0.00008114,-0.00132429,-0.00013471,0.00195157,-0.0
 0195327,-0.00040243,-0.00055444,-0.04423516,-0.00048194,-0.01864872,0.
 00045035,0.00064276,-0.00027234,-0.00015300,-0.00021593,0.00012251,-0.
 00007535,-0.00017719,0.00030328,-0.00042792,0.00014520,-0.00044889,-0.
 00007630,-0.00009230,-0.00000243,0.00064775,-0.00019644,0.00028252,0.0
 0003600,-0.00000805,0.00009230,0.00003461,-0.00006045,0.00003150,0.000
 11586,0.00003845,0.00001817,0.00005190,-0.00006179,-0.00002986,-0.0005
 1003,0.00028416,0.00003688,-0.00325935,-0.00119678,-0.00055200,0.02334
 466,0.02718199,-0.02006830,0.03262859,0.08189869,-0.17022969,0.1495443
 0,-0.29051919,0.66505501,-0.00189354,-0.00085498,-0.00204434,-0.002421
 06,0.00147950,-0.00302104,-0.00347351,0.01676556,-0.03881129,0.0011454
 7,-0.00046888,0.00319036,0.00062975,-0.00204422,-0.00168062,0.00070643
 ,-0.00127453,0.00618720,-0.00568786,-0.00207496,-0.00126954,-0.1546816
 5,-0.01129926,-0.03895511,-0.00227142,0.00062234,-0.00061055,-0.001116
 94,-0.00073053,0.00048352,0.00116152,0.00050071,0.00147885,-0.00216692
 ,0.00150050,-0.00192729,0.00059400,-0.00011026,0.00037573,0.00433608,-
 0.00092279,0.00011891,0.00047280,-0.00003080,0.00027951,0.00020581,-0.
 00050747,0.00020514,0.00004120,-0.00003463,-0.00015251,0.00003385,-0.0
 0050985,-0.00035896,-0.00756063,0.00074317,0.00319274,0.04348591,0.010
 93414,0.01328031,-0.01759794,0.00281050,-0.01692032,-0.04540655,-0.039
 05896,0.04564611,-0.26026896,-0.02803873,-0.08915003,0.76005548,-0.001
 22908,-0.00012563,-0.00276170,-0.00522235,0.00349079,-0.00274650,0.022
 21877,0.00687399,-0.00859312,0.00084773,-0.00192327,0.00245662,-0.0001
 1015,-0.00198907,-0.00241788,-0.00536788,-0.00307877,0.00832869,-0.003
 94287,-0.00044353,-0.00045107,-0.00636051,-0.10144304,0.05164226,0.001
 19546,0.00308057,-0.00113134,-0.00103883,-0.00101497,0.00063361,0.0001
 7945,-0.00074383,0.00135626,-0.00284974,0.00147655,-0.00298038,-0.0003
 9069,-0.00048860,0.00026236,0.00621794,-0.00200343,0.00054025,0.000452
 12,-0.00018331,0.00071317,0.00045288,-0.00058712,0.00022133,0.00028854
 ,0.00016733,0.00008719,-0.00021008,-0.00039724,-0.00044234,-0.00854290
 ,0.00329832,0.00263896,-0.00672624,-0.01933368,0.02571666,0.00678233,0
 .00172223,0.00310174,-0.01145068,-0.00639399,-0.02017167,-0.04958634,-
 0.09034901,0.02138053,0.24794974,0.46289870,0.00037873,-0.00034589,0.0
 0360571,0.00384808,-0.00303603,-0.00041829,-0.03786928,-0.00117734,-0.
 00989260,0.00046580,0.00196928,-0.00145389,-0.00108935,-0.00029848,0.0
 0121373,0.01074327,0.00242535,-0.00926293,0.00141790,0.00120224,0.0017
 9044,-0.05142905,0.05075310,-0.18731033,-0.00143025,-0.00363325,0.0012
 1247,0.00145378,0.00118010,-0.00060150,0.00103952,0.00130878,-0.001852
 71,0.00341438,-0.00156278,0.00370857,0.00055203,0.00057172,-0.00025216
 ,-0.00604683,0.00151347,-0.00144149,-0.00043711,0.00014998,-0.00079301
 ,-0.00035672,0.00052842,-0.00035607,-0.00073591,-0.00014662,-0.0000986
 1,-0.00015110,0.00014588,0.00047938,0.00814554,-0.00191166,-0.00243604
 ,0.04277450,0.03570212,-0.03436522,-0.02430141,0.00049595,-0.01602184,
 -0.00211966,-0.04018701,0.05181444,-0.05033223,0.03645888,-0.15487302,
 -0.05329644,-0.25955695,0.62519872,-0.00004948,0.00000360,0.00006923,-
 0.00009587,-0.00013625,-0.00018601,0.00010129,-0.00102765,0.00432644,-
 0.00000787,0.00016597,0.00004728,-0.00000221,0.00013152,0.00001724,0.0
 0039168,-0.00027122,-0.00084027,-0.00048284,-0.00024864,-0.00046976,0.
 00714526,-0.01061369,0.02007337,-0.00031393,-0.00019543,0.00011445,0.0
 0001476,0.00001834,-0.00000711,0.00009488,0.00008363,-0.00000392,0.000
 04579,-0.00001262,0.00008473,0.00002841,0.00002255,0.00001732,-0.00007
 135,0.00003285,-0.00009405,-0.00000110,0.00000881,-0.00001977,-0.00001
 867,0.00000784,0.00000076,-0.00003528,-0.00002428,-0.00001167,0.000025
 34,0.00000601,-0.00001893,0.00010634,-0.00005433,0.00002963,-0.0941566
 2,0.03889151,-0.09851198,-0.00312234,0.01014313,-0.02448295,-0.0033389
 4,-0.00570075,-0.00089374,0.00042583,0.00037961,0.00017718,-0.00312014
 ,-0.00232522,-0.00083037,0.09742950,0.00000162,-0.00005805,0.00004281,
 -0.00031135,0.00005628,0.00016590,0.00165942,-0.00122476,0.00123153,0.
 00011993,0.00002822,-0.00020010,0.00003881,0.00006122,0.00004645,0.000
 39656,0.00013818,-0.00066008,-0.00081713,0.00030934,-0.00058713,0.0055
 1087,-0.00629089,0.01932068,-0.00011686,-0.00011499,-0.00005633,0.0000
 1923,0.00001781,-0.00000014,0.00004895,0.00001231,-0.00006048,0.000076
 15,0.00001882,0.00008327,0.00001904,0.00001722,0.00000329,-0.00007634,
 0.00000624,-0.00006496,-0.00000169,0.00000213,-0.00002498,0.00000294,-
 0.00000712,-0.00001672,-0.00004677,0.00000154,0.00001371,-0.00004224,0
 .00000502,-0.00002702,0.00011191,-0.00003154,0.00000620,0.03484271,-0.
 08633979,0.09661537,-0.00373561,0.00931306,-0.00423190,-0.00459725,0.0
 0731213,0.00466708,0.00070974,-0.00019760,-0.00055127,-0.00453979,0.00
 178839,-0.00038179,-0.03160197,0.08127037,0.00000032,-0.00007164,-0.00
 010468,-0.00004859,0.00002056,0.00051262,-0.00268133,-0.00158300,-0.00
 075717,0.00002700,0.00000342,-0.00006540,-0.00002850,-0.00010995,-0.00
 003633,0.00023587,-0.00022482,0.00004843,0.00067399,-0.00008706,0.0011
 8495,-0.00586587,0.00849723,-0.01489745,0.00015959,-0.00003019,0.00007
 810,-0.00003401,-0.00001606,0.00001866,-0.00007718,-0.00006035,0.00001
 850,-0.00006871,0.00004231,-0.00006895,0.00002088,0.00001850,-0.000005
 39,0.00009059,-0.00004827,0.00004885,0.00000365,-0.00000918,0.00001800
 ,0.00001533,-0.00001808,-0.00000021,0.00002197,0.00000556,0.00001323,-
 0.00002359,0.00001080,0.00002860,-0.00012419,0.00006378,0.00000870,-0.
 09169371,0.09949812,-0.26505126,-0.00149193,0.00494878,-0.00115078,-0.
 00259016,0.00390861,0.00372595,-0.00027329,-0.00070015,0.00022320,0.00
 277086,0.00147661,0.00323896,0.09971885,-0.11263007,0.27609783,0.00001
 885,-0.00003248,-0.00003228,-0.00026948,0.00021749,-0.00006336,0.00049
 829,-0.00117570,0.00047036,-0.00004956,-0.00010354,-0.00005633,0.00000
 930,0.00001111,-0.00001551,-0.00009415,0.00000471,0.00010920,-0.000038
 64,0.00004314,-0.00002343,-0.00267097,-0.00149498,-0.00441033,0.000052
 60,0.00003570,-0.00002119,-0.00001276,-0.00000732,0.00000565,-0.000056
 01,-0.00002950,0.00001122,-0.00001886,-0.00000367,-0.00003271,-0.00002
 188,-0.00000702,-0.00000258,0.00002061,0.00000522,0.00002452,0.0000013
 8,-0.00000090,0.00000821,-0.00000143,0.00000352,0.00000581,0.00001417,
 -0.00000173,0.00000211,-0.00000706,-0.00000092,-0.00001920,-0.00002295
 ,-0.00000077,-0.00001232,-0.01205224,-0.01531222,0.01773064,-0.1675041
 3,-0.11587411,0.09734010,0.00961467,0.00730636,-0.00640806,-0.00008480
 ,0.00074122,-0.00315260,-0.00087051,0.00027158,-0.00082965,0.00005299,
 0.00163221,0.00096816,0.17283009,-0.00001816,0.00005960,0.00003972,0.0
 0028445,-0.00004980,0.00013813,-0.00002560,0.00120260,0.00089591,0.000
 06611,0.00005280,-0.00001221,0.00000208,-0.00002198,-0.00000047,-0.000
 60164,-0.00007241,-0.00001928,0.00000011,-0.00003420,0.00000678,-0.001
 85522,0.00635244,0.00145593,-0.00001174,0.00013183,-0.00003987,0.00000
 565,0.00000213,-0.00000690,0.00004505,-0.00000918,-0.00002745,-0.00001
 987,-0.00000150,-0.00000123,-0.00003382,-0.00002059,0.00000317,0.00000
 829,-0.00001980,-0.00000115,-0.00000046,0.00000129,0.00000787,0.000004
 62,-0.00000606,-0.00000644,-0.00001703,0.00001102,0.00001052,-0.000008
 43,0.00000658,0.00002579,-0.00001644,0.00001496,0.00000257,0.00040785,
 -0.00196064,0.00178349,-0.11637633,-0.13845793,0.10572480,-0.00903733,
 -0.00369908,0.00224157,0.00029292,0.00101147,0.00290895,0.00105412,-0.
 00022982,0.00067169,0.00152984,-0.00339640,-0.00243087,0.12352971,0.13
 979054,0.00000849,0.00004152,-0.00000709,0.00005883,0.00004559,0.00007
 225,0.00012198,0.00034097,0.00101994,0.00001121,-0.00002507,-0.0000385
 7,-0.00000093,-0.00001409,-0.00001187,-0.00063844,-0.00007102,0.000075
 41,-0.00004472,-0.00002978,-0.00002300,-0.00472532,0.00161602,0.002149
 20,0.00004028,0.00014970,-0.00003120,-0.00000586,-0.00000703,0.0000005
 0,-0.00001713,-0.00003771,-0.00001070,-0.00004540,0.00000088,-0.000040
 92,-0.00004628,-0.00002195,0.00000201,0.00004465,-0.00002418,0.0000337
 8,-0.00000087,-0.00000110,0.00001617,0.00000780,-0.00000497,-0.0000004
 4,0.00000231,0.00000985,0.00001149,-0.00000380,0.00000529,0.00000861,-
 0.00005006,0.00002893,-0.00001149,-0.00794115,-0.00846033,0.00753665,0
 .09833424,0.10589990,-0.13607688,0.02035503,0.01338161,-0.00710635,-0.
 00237531,0.00319249,-0.00431008,-0.00204856,-0.00003578,-0.00166528,0.
 00122683,-0.00235437,-0.00078492,-0.10302878,-0.11141949,0.13721492,-0
 .00006133,0.00000517,-0.00013477,-0.00004222,0.00015933,-0.00012304,0.
 00106949,0.00060276,-0.00162179,0.00001030,-0.00007350,0.00011590,0.00
 002173,-0.00006279,-0.00005164,-0.00004836,-0.00006414,0.00046754,-0.0
 0050275,-0.00005864,-0.00013572,-0.00614322,-0.00329621,-0.00153244,0.
 00003176,0.00009316,-0.00005345,-0.00005986,-0.00005522,0.00002063,0.0
 0002677,-0.00000158,0.00009361,-0.00016373,0.00008377,-0.00017307,-0.0
 0000019,-0.00001367,0.00002151,0.00026422,-0.00005960,0.00015506,0.000
 03086,0.00000006,0.00002904,0.00001045,-0.00002990,0.00001699,0.000016
 01,-0.00000172,-0.00000560,0.00000856,-0.00002877,-0.00002341,-0.00028
 365,0.00006628,-0.00007190,-0.00097102,-0.00050681,0.00065229,-0.00352
 315,-0.00379900,0.00143700,0.01774482,-0.00727093,0.02370866,-0.092663
 72,0.02511541,-0.09392429,-0.00260816,0.01837992,-0.03288617,-0.000030
 13,0.00013786,0.00000484,0.00062322,-0.00048443,0.00103733,0.08676258,
 0.00003228,0.00003262,-0.00002821,-0.00000563,0.00012921,0.00006208,0.
 00011338,0.00092652,-0.00010895,-0.00000045,-0.00008146,-0.00004181,0.
 00001051,0.00000862,0.00000987,-0.00023524,-0.00015268,0.00004596,-0.0
 0015356,-0.00006754,-0.00014191,-0.00363993,0.00304209,0.00032223,0.00
 011298,0.00010851,-0.00002198,-0.00001303,0.00001775,-0.00000073,-0.00
 004871,-0.00007667,-0.00002095,-0.00000477,0.00000374,0.00000748,-0.00
 002387,-0.00001163,-0.00001060,0.00000048,-0.00010986,-0.00004316,-0.0
 0001483,-0.00000648,0.00000552,0.00002008,-0.00001306,0.00000179,0.000
 00654,0.00001173,0.00001226,-0.00002299,0.00001986,0.00000514,0.000047
 11,0.00017359,0.00006486,-0.00058253,-0.00075569,-0.00032833,-0.004141
 35,0.00093035,0.00220127,0.00838929,-0.00526493,0.01708800,0.02792031,
 -0.09697137,0.15465439,0.00151990,0.00561231,-0.00987126,0.00012562,-0
 .00023559,-0.00014793,0.00037353,-0.00002300,0.00070371,-0.03200312,0.
 09754497,-0.00010012,-0.00002376,-0.00001127,-0.00004503,-0.00002468,-
 0.00014623,-0.00018482,0.00044511,0.00013525,0.00011600,0.00002911,0.0
 0012118,0.00000839,-0.00007275,-0.00002180,0.00022157,-0.00000550,0.00
 001191,0.00002429,-0.00006031,-0.00004675,-0.00099656,0.00046129,0.003
 26260,-0.00019930,-0.00003459,-0.00000856,-0.00003866,-0.00002426,0.00
 003187,0.00014332,0.00005070,0.00002806,0.00000437,0.00001918,0.000027
 43,0.00003684,-0.00000027,0.00000680,0.00013268,-0.00006551,-0.0002202
 4,0.00001256,0.00000100,-0.00000192,0.00000540,-0.00001455,-0.00000013
 ,-0.00003266,0.00000228,0.00000245,-0.00003468,-0.00001418,-0.00001006
 ,-0.00026657,0.00015144,0.00032950,0.00087528,-0.00020696,0.00026404,0
 .00204995,0.00236534,0.00119472,-0.00354441,0.00609897,-0.01142059,-0.
 09858428,0.15325635,-0.34946691,-0.00430840,0.00130394,-0.00602151,0.0
 0002267,-0.00013290,-0.00012319,-0.00039377,0.00012384,-0.00023281,0.1
 0261478,-0.16012094,0.36296306,0.00080685,0.00009829,-0.00001290,-0.00
 029693,0.00072660,0.00122247,0.00513723,0.00002379,0.00110028,-0.00060
 078,-0.00062901,-0.00107948,-0.00009888,0.00029892,0.00003298,-0.00308
 634,-0.00018133,0.00061218,-0.00031901,-0.00002794,-0.00008756,-0.0075
 4850,-0.00234080,-0.00205490,0.00141621,0.00088063,-0.00016860,0.00013
 361,0.00014759,-0.00007733,-0.00105056,-0.00058086,-0.00033091,0.00020
 987,-0.00034515,0.00007368,-0.00036734,-0.00009532,-0.00013529,-0.0008
 4623,0.00028731,0.00037851,-0.00013565,-0.00003680,0.00005876,-0.00000
 323,0.00013315,-0.00002932,0.00022633,0.00006797,0.00007533,0.00000441
 ,0.00015554,0.00012763,0.00114559,-0.00040901,-0.00073714,0.01068379,0
 .00412077,-0.00185975,-0.03141790,0.00120335,-0.03797287,-0.57947081,-
 0.06124886,-0.23312395,-0.08780290,-0.03869749,-0.00647172,0.01609662,
 -0.00163098,0.00904866,-0.00107386,0.00049070,0.00020527,-0.00025579,0
 .00128870,-0.00083089,-0.00146234,0.00173868,-0.00103631,0.68950648,0.
 00014972,-0.00001626,0.00014209,0.00014312,-0.00004541,0.00025651,0.00
 032782,-0.00007180,-0.00030258,-0.00012089,0.00001648,-0.00025490,-0.0
 0005087,0.00010521,0.00003745,-0.00008974,0.00021483,-0.00015748,-0.00
 022001,-0.00003668,-0.00014661,-0.00040029,0.00323219,-0.00584489,0.00
 009951,-0.00002733,0.00002800,0.00006280,0.00006380,-0.00004168,-0.000
 13782,-0.00001054,-0.00009830,0.00016171,-0.00012641,0.00013271,-0.000
 03032,0.00001124,-0.00003296,-0.00031350,0.00016010,-0.00001857,-0.000
 02710,0.00000109,-0.00001976,-0.00002656,0.00005292,-0.00000968,0.0000
 1812,-0.00000951,-0.00000089,0.00002859,0.00001336,0.00003129,0.000398
 63,-0.00020375,-0.00013804,-0.00355539,-0.00182150,0.00661912,0.012216
 22,0.02252566,0.00831463,-0.06328355,-0.09098730,-0.01561788,-0.051382
 88,0.00470591,-0.01015404,0.00737286,0.00266479,0.01263035,0.00152270,
 -0.00150746,-0.00095216,-0.00025229,-0.00048299,-0.00269319,0.00333569
 ,-0.00092413,-0.00308026,0.09817202,0.06489237,0.00032133,0.00004230,-
 0.00023895,-0.00040089,0.00046622,0.00040504,0.00308519,-0.00052479,0.
 00075284,-0.00031607,-0.00036784,-0.00024321,-0.00000985,0.00009604,-0
 .00006579,-0.00195870,-0.00022601,0.00084447,0.00012714,-0.00002714,0.
 00026856,-0.00426726,-0.00717076,0.00843127,0.00073813,0.00058308,-0.0
 0016903,-0.00003096,-0.00001709,-0.00001280,-0.00051901,-0.00030777,-0
 .00000234,-0.00017993,-0.00002872,-0.00029998,-0.00018708,-0.00007498,
 -0.00002000,0.00010085,0.00001153,0.00039481,-0.00002437,-0.00002299,0
 .00007754,0.00002608,0.00001756,0.00001580,0.00015256,0.00003169,0.000
 01842,0.00002210,0.00006493,0.00001733,0.00000104,-0.00001172,-0.00027
 903,0.01081144,0.01186968,-0.00881513,-0.05643421,0.00084034,-0.016500
 25,-0.22971001,-0.01422460,-0.20441766,0.01542806,-0.00143282,0.031917
 08,-0.00649959,0.00627492,-0.00817044,-0.00140169,-0.00164308,-0.00094
 630,0.00156955,-0.00165117,0.00186100,-0.00396670,-0.00421452,0.000499
 23,0.27181594,0.01278506,0.19319596,0.00052018,-0.00103113,0.00269535,
 0.00173870,-0.00108968,0.00107854,-0.01264432,-0.00073143,0.00427420,-
 0.00017584,0.00046205,-0.00226174,-0.00056838,0.00047959,0.00044816,0.
 00095781,0.00456378,-0.00949191,0.00094101,0.00085944,0.00003390,0.025
 13896,-0.00851017,0.01972221,0.00187302,-0.00138028,0.00116322,-0.0004
 3823,0.00072848,-0.00164719,-0.00074327,0.00030101,-0.00206538,0.00272
 264,-0.00191579,0.00320913,-0.00016796,0.00018622,-0.00043821,-0.00853
 432,0.00272355,0.00113924,-0.00067083,0.00017576,-0.00058969,-0.000396
 78,0.00060230,-0.00037683,-0.00038505,-0.00004535,0.00003747,-0.000168
 80,0.00034463,0.00042027,0.00499265,-0.00188620,-0.00290223,-0.0062010
 2,-0.00400279,-0.00149160,0.00273129,-0.00223856,0.00622432,0.01231385
 ,0.01249074,-0.01827119,-0.07319180,-0.05647790,0.03300252,-0.31781912
 ,-0.19825190,0.18085932,0.00005858,0.00006836,0.00008389,0.00029506,-0
 .00001298,0.00055453,0.00194306,0.00047931,0.00349746,-0.00952996,-0.0
 0411830,0.00170690,0.37540885,0.00058035,-0.00096168,0.00201575,0.0026
 8385,-0.00287049,0.00038789,-0.00903968,-0.00396888,-0.00312651,-0.001
 27272,0.00138912,-0.00229909,-0.00131997,0.00113961,0.00078200,0.00603
 736,-0.00022049,0.00046549,0.00045741,0.00051742,-0.00005564,-0.014327
 57,-0.01320097,0.04780016,-0.00184133,-0.00235412,0.00011717,0.0006069
 5,0.00060501,-0.00115484,-0.00054414,0.00082849,-0.00110370,0.00098886
 ,-0.00016578,0.00055945,0.00027010,0.00043638,0.00000304,-0.00165384,0
 .00157058,-0.00013885,0.00002742,-0.00001510,-0.00024977,-0.00021422,0
 .00028742,0.00006241,-0.00014395,-0.00022001,-0.00020425,0.00025890,0.
 00022708,0.00037881,0.00269557,-0.00284440,-0.00070876,0.00275537,0.00
 396741,0.00240145,-0.00097427,-0.00201935,0.00092757,0.00321257,0.0089
 9298,-0.00041887,-0.04119816,-0.00149042,0.01021336,-0.20075241,-0.262
 34567,0.17440177,-0.00086148,-0.00095405,0.00062550,0.00012162,-0.0001
 5188,-0.00021643,-0.00016939,-0.00386779,-0.00042713,-0.00361047,-0.00
 238887,-0.00113734,0.25722727,0.28007845,0.00047521,-0.00035508,-0.001
 32000,0.00004351,0.00033374,-0.00119055,0.01200169,-0.00210171,0.00142
 177,-0.00141324,-0.00036275,-0.00033220,-0.00102675,0.00012654,-0.0015
 3628,-0.00527392,0.00116501,0.00273109,-0.00017464,-0.00005735,0.00047
 752,0.02835602,0.05189902,-0.05163030,0.00170561,0.00123742,-0.0005208
 6,-0.00111904,-0.00082610,-0.00062577,-0.00074065,-0.00023478,0.000842
 76,-0.00234014,0.00168946,-0.00384310,-0.00024037,-0.00018669,0.000321
 13,0.00745483,-0.00200475,0.00165615,0.00056413,-0.00020935,0.00066463
 ,0.00037249,-0.00048738,0.00047431,0.00038037,-0.00003165,-0.00009388,
 0.00024032,0.00010565,-0.00018540,-0.00706836,0.00206690,0.00073400,-0
 .01252705,-0.00178405,-0.00104609,0.00439208,0.00025321,0.00142980,-0.
 00288258,0.00587238,-0.00355450,0.00790104,0.00113311,0.02509503,0.183
 84535,0.17315364,-0.25497550,0.00184623,0.00142704,-0.00127255,0.00025
 655,-0.00042421,0.00034968,0.00432879,-0.00008328,-0.00114610,0.001257
 21,-0.00141333,0.00148156,-0.22061467,-0.22990065,0.28559365\\-0.00000
 644,0.00001705,0.00000267,0.00000968,-0.00000451,-0.00000009,-0.000011
 34,-0.00002763,-0.00002715,0.00000647,-0.00000221,-0.00001247,-0.00000
 944,0.00000616,0.00000085,0.00000334,0.00000697,-0.00000693,0.00000100
 ,0.00000246,0.00000708,0.00001108,0.00001796,-0.00000566,0.00000227,-0
 .00002296,0.00001335,-0.00001338,-0.00000299,-0.00000280,-0.00000828,-
 0.00000040,0.00000807,0.00001405,0.00001478,-0.00001674,-0.00000659,0.
 00000156,0.00001502,0.00000382,-0.00001005,-0.00000960,0.00000883,-0.0
 0000870,0.00000550,0.00000705,0.00000291,-0.00000123,0.00001432,-0.000
 00646,0.00001268,0.00000898,0.00002896,0.00001462,-0.00002934,0.000000
 32,-0.00001646,-0.00003558,-0.00001991,0.00000666,0.00001795,0.0000021
 8,0.00001711,0.00000332,0.00000394,-0.00003796,-0.00003616,0.00000613,
 0.00000739,0.00003730,-0.00000366,-0.00000579,-0.00000033,-0.00000083,
 -0.00000230,0.00000308,0.00000007,0.00000194,0.00001036,0.00000044,0.0
 0000304,0.00000497,-0.00000346,0.00001455,-0.00001097,0.00000187,0.000
 01465\\\@
 The archive entry for this job was punched.


 ALL MEN WHO EXPLORE
 DEPLORE
 THAT FRUSTRATING HURDLE
 THE GIRDLE.

         -- COLIN FLETCHER
 Job cpu time:       0 days 10 hours 48 minutes  9.5 seconds.
 Elapsed time:       0 days  0 hours 16 minutes 21.0 seconds.
 File lengths (MBytes):  RWF=    632 Int=      0 D2E=      0 Chk=     21 Scr=      1
 Normal termination of Gaussian 16 at Thu Oct 17 06:48:22 2024.
