 Entering Gaussian System, Link 0=g16
 Input=PseudoUridineNsrraPBE0aVDZ.gjf
 Output=PseudoUridineNsrraPBE0aVDZ.log
 Initial command:
 /sw/contrib/chem-src/g16/c01/g16/l1.exe "/scr/Gau-97757.inp" -scrdir="/scr/"
 Entering Link 1 = /sw/contrib/chem-src/g16/c01/g16/l1.exe PID=     97758.
  
 Copyright (c) 1988-2019, Gaussian, Inc.  All Rights Reserved.
  
 This is part of the Gaussian(R) 16 program.  It is based on
 the Gaussian(R) 09 system (copyright 2009, Gaussian, Inc.),
 the Gaussian(R) 03 system (copyright 2003, Gaussian, Inc.),
 the Gaussian(R) 98 system (copyright 1998, Gaussian, Inc.),
 the Gaussian(R) 94 system (copyright 1995, Gaussian, Inc.),
 the Gaussian 92(TM) system (copyright 1992, Gaussian, Inc.),
 the Gaussian 90(TM) system (copyright 1990, Gaussian, Inc.),
 the Gaussian 88(TM) system (copyright 1988, Gaussian, Inc.),
 the Gaussian 86(TM) system (copyright 1986, Carnegie Mellon
 University), and the Gaussian 82(TM) system (copyright 1983,
 Carnegie Mellon University). Gaussian is a federally registered
 trademark of Gaussian, Inc.
  
 This software contains proprietary and confidential information,
 including trade secrets, belonging to Gaussian, Inc.
  
 This software is provided under written license and may be
 used, copied, transmitted, or stored only in accord with that
 written license.
  
 The following legend is applicable only to US Government
 contracts under FAR:
  
                    RESTRICTED RIGHTS LEGEND
  
 Use, reproduction and disclosure by the US Government is
 subject to restrictions as set forth in subparagraphs (a)
 and (c) of the Commercial Computer Software - Restricted
 Rights clause in FAR 52.227-19.
  
 Gaussian, Inc.
 340 Quinnipiac St., Bldg. 40, Wallingford CT 06492
  
  
 ---------------------------------------------------------------
 Warning -- This program may not be used in any manner that
 competes with the business of Gaussian, Inc. or will provide
 assistance to any competitor of Gaussian, Inc.  The licensee
 of this program is prohibited from giving any competitor of
 Gaussian, Inc. access to this program.  By using this program,
 the user acknowledges that Gaussian, Inc. is engaged in the
 business of creating and licensing software in the field of
 computational chemistry and represents and warrants to the
 licensee that it is not a competitor of Gaussian, Inc. and that
 it will not use this program in any manner prohibited above.
 ---------------------------------------------------------------
  

 Cite this work as:
 Gaussian 16, Revision C.01,
 M. J. Frisch, G. W. Trucks, H. B. Schlegel, G. E. Scuseria, 
 M. A. Robb, J. R. Cheeseman, G. Scalmani, V. Barone, 
 G. A. Petersson, H. Nakatsuji, X. Li, M. Caricato, A. V. Marenich, 
 J. Bloino, B. G. Janesko, R. Gomperts, B. Mennucci, H. P. Hratchian, 
 J. V. Ortiz, A. F. Izmaylov, J. L. Sonnenberg, D. Williams-Young, 
 F. Ding, F. Lipparini, F. Egidi, J. Goings, B. Peng, A. Petrone, 
 T. Henderson, D. Ranasinghe, V. G. Zakrzewski, J. Gao, N. Rega, 
 G. Zheng, W. Liang, M. Hada, M. Ehara, K. Toyota, R. Fukuda, 
 J. Hasegawa, M. Ishida, T. Nakajima, Y. Honda, O. Kitao, H. Nakai, 
 T. Vreven, K. Throssell, J. A. Montgomery, Jr., J. E. Peralta, 
 F. Ogliaro, M. J. Bearpark, J. J. Heyd, E. N. Brothers, K. N. Kudin, 
 V. N. Staroverov, T. A. Keith, R. Kobayashi, J. Normand, 
 K. Raghavachari, A. P. Rendell, J. C. Burant, S. S. Iyengar, 
 J. Tomasi, M. Cossi, J. M. Millam, M. Klene, C. Adamo, R. Cammi, 
 J. W. Ochterski, R. L. Martin, K. Morokuma, O. Farkas, 
 J. B. Foresman, and D. J. Fox, Gaussian, Inc., Wallingford CT, 2019.
 
 ******************************************
 Gaussian 16:  EM64L-G16RevC.01  3-Jul-2019
                26-Oct-2024 
 ******************************************
 %nprocshared=40
 Will use up to   40 processors via shared memory.
 %mem=50gb
 ------------------------------------------------------
 # PBE1PBE/aug-cc-pVDZ opt freq EmpiricalDispersion=GD3
 ------------------------------------------------------
 1/18=20,19=15,26=3,38=1/1,3;
 2/9=110,12=2,17=6,18=5,40=1/2;
 3/5=16,7=10,11=2,25=1,30=1,71=1,74=-13,124=31/1,2,3;
 4//1;
 5/5=2,38=5/2;
 6/7=2,8=2,9=2,10=2,28=1/1;
 7//1,2,3,16;
 1/18=20,19=15,26=3/3(2);
 2/9=110/2;
 99//99;
 2/9=110/2;
 3/5=16,7=10,11=2,25=1,30=1,71=1,74=-13,124=31/1,2,3;
 4/5=5,16=3,69=1/1;
 5/5=2,38=5/2;
 7//1,2,3,16;
 1/18=20,19=15,26=3/3(-5);
 2/9=110/2;
 6/7=2,8=2,9=2,10=2,19=2,28=1/1;
 99/9=1/99;
 ----
 blah
 ----
 Symbolic Z-matrix:
 Charge =  0 Multiplicity = 1
 C                    -2.0384   -0.16703   0.81986 
 C                    -1.17422  -1.37168   0.43055 
 C                    -0.40915  -0.82028  -0.77492 
 O                    -1.98957  -2.42771  -0.01303 
 H                    -0.48546  -1.70039   1.22386 
 O                    -1.2041    0.19675  -1.33635 
 H                    -0.22266  -1.61806  -1.50153 
 C                     0.90048  -0.26055  -0.39821 
 C                    -2.37759   0.4098   -0.55058 
 H                    -1.45644   0.5624    1.40075 
 O                    -3.23043  -0.53183   1.49013 
 C                    -2.76655   1.86663  -0.57189 
 H                    -3.21361  -0.17205  -0.97317 
 O                    -1.7839    2.62821   0.11379 
 H                    -3.75219   1.95689  -0.0855 
 H                    -2.85995   2.1891   -1.62089 
 H                    -3.06687  -0.54154   2.43736 
 H                    -2.79232  -2.40539   0.52495 
 H                    -1.99475   3.56104   0.02665 
 C                     1.08661   1.07676  -0.15911 
 N                     2.28398   1.59256   0.20077 
 C                     3.43663   0.72676   0.34295 
 N                     3.1467   -0.61895   0.0775 
 C                     1.9382   -1.1756   -0.26961 
 H                     0.19923   1.69423  -0.28647 
 H                     2.40857   2.65594   0.38056 
 H                     3.91344  -1.27413   0.17048 
 O                     4.56683   1.05909   0.65804 
 O                     1.78061  -2.37188  -0.4451 
 

 GradGradGradGradGradGradGradGradGradGradGradGradGradGradGradGradGradGrad
 Berny optimization.
 Initialization pass.
                           ----------------------------
                           !    Initial Parameters    !
                           ! (Angstroms and Degrees)  !
 --------------------------                            --------------------------
 ! Name  Definition              Value          Derivative Info.                !
 --------------------------------------------------------------------------------
 ! R1    R(1,2)                  1.5328         estimate D2E/DX2                !
 ! R2    R(1,9)                  1.5251         estimate D2E/DX2                !
 ! R3    R(1,10)                 1.0992         estimate D2E/DX2                !
 ! R4    R(1,11)                 1.4154         estimate D2E/DX2                !
 ! R5    R(2,3)                  1.5305         estimate D2E/DX2                !
 ! R6    R(2,4)                  1.406          estimate D2E/DX2                !
 ! R7    R(2,5)                  1.1008         estimate D2E/DX2                !
 ! R8    R(3,6)                  1.4077         estimate D2E/DX2                !
 ! R9    R(3,7)                  1.0951         estimate D2E/DX2                !
 ! R10   R(3,8)                  1.4732         estimate D2E/DX2                !
 ! R11   R(4,18)                 0.9666         estimate D2E/DX2                !
 ! R12   R(6,9)                  1.4282         estimate D2E/DX2                !
 ! R13   R(8,20)                 1.3712         estimate D2E/DX2                !
 ! R14   R(8,24)                 1.3895         estimate D2E/DX2                !
 ! R15   R(9,12)                 1.508          estimate D2E/DX2                !
 ! R16   R(9,13)                 1.1028         estimate D2E/DX2                !
 ! R17   R(11,17)                0.9613         estimate D2E/DX2                !
 ! R18   R(12,14)                1.4198         estimate D2E/DX2                !
 ! R19   R(12,15)                1.1028         estimate D2E/DX2                !
 ! R20   R(12,16)                1.1014         estimate D2E/DX2                !
 ! R21   R(14,19)                0.9603         estimate D2E/DX2                !
 ! R22   R(20,21)                1.3525         estimate D2E/DX2                !
 ! R23   R(20,25)                1.0886         estimate D2E/DX2                !
 ! R24   R(21,22)                1.4486         estimate D2E/DX2                !
 ! R25   R(21,26)                1.0856         estimate D2E/DX2                !
 ! R26   R(22,23)                1.4019         estimate D2E/DX2                !
 ! R27   R(22,28)                1.2195         estimate D2E/DX2                !
 ! R28   R(23,24)                1.3751         estimate D2E/DX2                !
 ! R29   R(23,27)                1.0128         estimate D2E/DX2                !
 ! R30   R(24,29)                1.2193         estimate D2E/DX2                !
 ! A1    A(2,1,9)              101.2102         estimate D2E/DX2                !
 ! A2    A(2,1,10)             110.9322         estimate D2E/DX2                !
 ! A3    A(2,1,11)             113.1129         estimate D2E/DX2                !
 ! A4    A(9,1,10)             109.9768         estimate D2E/DX2                !
 ! A5    A(9,1,11)             109.6166         estimate D2E/DX2                !
 ! A6    A(10,1,11)            111.5109         estimate D2E/DX2                !
 ! A7    A(1,2,3)              101.4626         estimate D2E/DX2                !
 ! A8    A(1,2,4)              110.0884         estimate D2E/DX2                !
 ! A9    A(1,2,5)              113.8529         estimate D2E/DX2                !
 ! A10   A(3,2,4)              108.1798         estimate D2E/DX2                !
 ! A11   A(3,2,5)              111.2489         estimate D2E/DX2                !
 ! A12   A(4,2,5)              111.4644         estimate D2E/DX2                !
 ! A13   A(2,3,6)              106.9855         estimate D2E/DX2                !
 ! A14   A(2,3,7)              110.198          estimate D2E/DX2                !
 ! A15   A(2,3,8)              112.3245         estimate D2E/DX2                !
 ! A16   A(6,3,7)              110.9697         estimate D2E/DX2                !
 ! A17   A(6,3,8)              109.2393         estimate D2E/DX2                !
 ! A18   A(7,3,8)              107.162          estimate D2E/DX2                !
 ! A19   A(2,4,18)             106.7787         estimate D2E/DX2                !
 ! A20   A(3,6,9)              110.6308         estimate D2E/DX2                !
 ! A21   A(3,8,20)             122.3985         estimate D2E/DX2                !
 ! A22   A(3,8,24)             115.9355         estimate D2E/DX2                !
 ! A23   A(20,8,24)            121.6517         estimate D2E/DX2                !
 ! A24   A(1,9,6)              104.787          estimate D2E/DX2                !
 ! A25   A(1,9,12)             115.8143         estimate D2E/DX2                !
 ! A26   A(1,9,13)             108.2639         estimate D2E/DX2                !
 ! A27   A(6,9,12)             110.3805         estimate D2E/DX2                !
 ! A28   A(6,9,13)             109.4729         estimate D2E/DX2                !
 ! A29   A(12,9,13)            107.9849         estimate D2E/DX2                !
 ! A30   A(1,11,17)            109.0226         estimate D2E/DX2                !
 ! A31   A(9,12,14)            109.4424         estimate D2E/DX2                !
 ! A32   A(9,12,15)            107.6591         estimate D2E/DX2                !
 ! A33   A(9,12,16)            108.5523         estimate D2E/DX2                !
 ! A34   A(14,12,15)           111.2033         estimate D2E/DX2                !
 ! A35   A(14,12,16)           111.1994         estimate D2E/DX2                !
 ! A36   A(15,12,16)           108.6811         estimate D2E/DX2                !
 ! A37   A(12,14,19)           108.9815         estimate D2E/DX2                !
 ! A38   A(8,20,21)            122.5824         estimate D2E/DX2                !
 ! A39   A(8,20,25)            114.9716         estimate D2E/DX2                !
 ! A40   A(21,20,25)           122.445          estimate D2E/DX2                !
 ! A41   A(20,21,22)           120.173          estimate D2E/DX2                !
 ! A42   A(20,21,26)           121.2795         estimate D2E/DX2                !
 ! A43   A(22,21,26)           118.5454         estimate D2E/DX2                !
 ! A44   A(21,22,23)           112.9899         estimate D2E/DX2                !
 ! A45   A(21,22,28)           126.8652         estimate D2E/DX2                !
 ! A46   A(23,22,28)           120.1449         estimate D2E/DX2                !
 ! A47   A(22,23,24)           128.1795         estimate D2E/DX2                !
 ! A48   A(22,23,27)           116.5513         estimate D2E/DX2                !
 ! A49   A(24,23,27)           115.2542         estimate D2E/DX2                !
 ! A50   A(8,24,23)            114.4017         estimate D2E/DX2                !
 ! A51   A(8,24,29)            122.4299         estimate D2E/DX2                !
 ! A52   A(23,24,29)           123.1674         estimate D2E/DX2                !
 ! D1    D(9,1,2,3)             36.6319         estimate D2E/DX2                !
 ! D2    D(9,1,2,4)            -77.7696         estimate D2E/DX2                !
 ! D3    D(9,1,2,5)            156.235          estimate D2E/DX2                !
 ! D4    D(10,1,2,3)           -80.0286         estimate D2E/DX2                !
 ! D5    D(10,1,2,4)           165.5698         estimate D2E/DX2                !
 ! D6    D(10,1,2,5)            39.5745         estimate D2E/DX2                !
 ! D7    D(11,1,2,3)           153.807          estimate D2E/DX2                !
 ! D8    D(11,1,2,4)            39.4054         estimate D2E/DX2                !
 ! D9    D(11,1,2,5)           -86.5899         estimate D2E/DX2                !
 ! D10   D(2,1,9,6)            -35.7417         estimate D2E/DX2                !
 ! D11   D(2,1,9,12)          -157.5984         estimate D2E/DX2                !
 ! D12   D(2,1,9,13)            81.0138         estimate D2E/DX2                !
 ! D13   D(10,1,9,6)            81.6179         estimate D2E/DX2                !
 ! D14   D(10,1,9,12)          -40.2388         estimate D2E/DX2                !
 ! D15   D(10,1,9,13)         -161.6266         estimate D2E/DX2                !
 ! D16   D(11,1,9,6)          -155.4426         estimate D2E/DX2                !
 ! D17   D(11,1,9,12)           82.7007         estimate D2E/DX2                !
 ! D18   D(11,1,9,13)          -38.6872         estimate D2E/DX2                !
 ! D19   D(2,1,11,17)           91.2159         estimate D2E/DX2                !
 ! D20   D(9,1,11,17)         -156.6661         estimate D2E/DX2                !
 ! D21   D(10,1,11,17)         -34.6393         estimate D2E/DX2                !
 ! D22   D(1,2,3,6)            -25.9289         estimate D2E/DX2                !
 ! D23   D(1,2,3,7)           -146.6654         estimate D2E/DX2                !
 ! D24   D(1,2,3,8)             93.9316         estimate D2E/DX2                !
 ! D25   D(4,2,3,6)             89.8858         estimate D2E/DX2                !
 ! D26   D(4,2,3,7)            -30.8507         estimate D2E/DX2                !
 ! D27   D(4,2,3,8)           -150.2537         estimate D2E/DX2                !
 ! D28   D(5,2,3,6)           -147.3664         estimate D2E/DX2                !
 ! D29   D(5,2,3,7)             91.8971         estimate D2E/DX2                !
 ! D30   D(5,2,3,8)            -27.5059         estimate D2E/DX2                !
 ! D31   D(1,2,4,18)           -36.0629         estimate D2E/DX2                !
 ! D32   D(3,2,4,18)          -146.1115         estimate D2E/DX2                !
 ! D33   D(5,2,4,18)            91.272          estimate D2E/DX2                !
 ! D34   D(2,3,6,9)              3.6666         estimate D2E/DX2                !
 ! D35   D(7,3,6,9)            123.9109         estimate D2E/DX2                !
 ! D36   D(8,3,6,9)           -118.1551         estimate D2E/DX2                !
 ! D37   D(2,3,8,20)           -95.7575         estimate D2E/DX2                !
 ! D38   D(2,3,8,24)            82.8905         estimate D2E/DX2                !
 ! D39   D(6,3,8,20)            22.7838         estimate D2E/DX2                !
 ! D40   D(6,3,8,24)          -158.5681         estimate D2E/DX2                !
 ! D41   D(7,3,8,20)           143.0813         estimate D2E/DX2                !
 ! D42   D(7,3,8,24)           -38.2707         estimate D2E/DX2                !
 ! D43   D(3,6,9,1)             20.5679         estimate D2E/DX2                !
 ! D44   D(3,6,9,12)           145.9139         estimate D2E/DX2                !
 ! D45   D(3,6,9,13)           -95.3529         estimate D2E/DX2                !
 ! D46   D(3,8,20,21)          179.2782         estimate D2E/DX2                !
 ! D47   D(3,8,20,25)           -1.0738         estimate D2E/DX2                !
 ! D48   D(24,8,20,21)           0.7065         estimate D2E/DX2                !
 ! D49   D(24,8,20,25)        -179.6456         estimate D2E/DX2                !
 ! D50   D(3,8,24,23)          179.7555         estimate D2E/DX2                !
 ! D51   D(3,8,24,29)           -0.5933         estimate D2E/DX2                !
 ! D52   D(20,8,24,23)          -1.5855         estimate D2E/DX2                !
 ! D53   D(20,8,24,29)         178.0657         estimate D2E/DX2                !
 ! D54   D(1,9,12,14)           51.368          estimate D2E/DX2                !
 ! D55   D(1,9,12,15)          -69.6223         estimate D2E/DX2                !
 ! D56   D(1,9,12,16)          172.8996         estimate D2E/DX2                !
 ! D57   D(6,9,12,14)          -67.4586         estimate D2E/DX2                !
 ! D58   D(6,9,12,15)          171.5511         estimate D2E/DX2                !
 ! D59   D(6,9,12,16)           54.073          estimate D2E/DX2                !
 ! D60   D(13,9,12,14)         172.905          estimate D2E/DX2                !
 ! D61   D(13,9,12,15)          51.9147         estimate D2E/DX2                !
 ! D62   D(13,9,12,16)         -65.5633         estimate D2E/DX2                !
 ! D63   D(9,12,14,19)         174.813          estimate D2E/DX2                !
 ! D64   D(15,12,14,19)        -66.3712         estimate D2E/DX2                !
 ! D65   D(16,12,14,19)         54.8916         estimate D2E/DX2                !
 ! D66   D(8,20,21,22)           0.2547         estimate D2E/DX2                !
 ! D67   D(8,20,21,26)         179.717          estimate D2E/DX2                !
 ! D68   D(25,20,21,22)       -179.3672         estimate D2E/DX2                !
 ! D69   D(25,20,21,26)          0.0952         estimate D2E/DX2                !
 ! D70   D(20,21,22,23)         -0.2022         estimate D2E/DX2                !
 ! D71   D(20,21,22,28)        179.9185         estimate D2E/DX2                !
 ! D72   D(26,21,22,23)       -179.6791         estimate D2E/DX2                !
 ! D73   D(26,21,22,28)          0.4416         estimate D2E/DX2                !
 ! D74   D(21,22,23,24)         -0.8733         estimate D2E/DX2                !
 ! D75   D(21,22,23,27)       -179.3879         estimate D2E/DX2                !
 ! D76   D(28,22,23,24)        179.015          estimate D2E/DX2                !
 ! D77   D(28,22,23,27)          0.5004         estimate D2E/DX2                !
 ! D78   D(22,23,24,8)           1.7465         estimate D2E/DX2                !
 ! D79   D(22,23,24,29)       -177.9017         estimate D2E/DX2                !
 ! D80   D(27,23,24,8)        -179.7226         estimate D2E/DX2                !
 ! D81   D(27,23,24,29)          0.6292         estimate D2E/DX2                !
 --------------------------------------------------------------------------------
 Trust Radius=3.00D-01 FncErr=1.00D-07 GrdErr=1.00D-06 EigMax=2.50D+02 EigMin=1.00D-04
 Number of steps in this run=    173 maximum allowed number of steps=    174.
 GradGradGradGradGradGradGradGradGradGradGradGradGradGradGradGradGradGrad

                          Input orientation:                          
 ---------------------------------------------------------------------
 Center     Atomic      Atomic             Coordinates (Angstroms)
 Number     Number       Type             X           Y           Z
 ---------------------------------------------------------------------
      1          6           0       -2.038404   -0.167034    0.819857
      2          6           0       -1.174217   -1.371677    0.430546
      3          6           0       -0.409147   -0.820276   -0.774917
      4          8           0       -1.989571   -2.427713   -0.013028
      5          1           0       -0.485461   -1.700386    1.223858
      6          8           0       -1.204100    0.196745   -1.336353
      7          1           0       -0.222661   -1.618057   -1.501529
      8          6           0        0.900479   -0.260547   -0.398208
      9          6           0       -2.377585    0.409797   -0.550580
     10          1           0       -1.456440    0.562403    1.400749
     11          8           0       -3.230430   -0.531830    1.490128
     12          6           0       -2.766545    1.866631   -0.571891
     13          1           0       -3.213614   -0.172053   -0.973166
     14          8           0       -1.783896    2.628206    0.113789
     15          1           0       -3.752188    1.956886   -0.085504
     16          1           0       -2.859946    2.189097   -1.620892
     17          1           0       -3.066866   -0.541544    2.437357
     18          1           0       -2.792317   -2.405393    0.524954
     19          1           0       -1.994752    3.561044    0.026654
     20          6           0        1.086608    1.076755   -0.159114
     21          7           0        2.283982    1.592561    0.200770
     22          6           0        3.436634    0.726757    0.342953
     23          7           0        3.146704   -0.618951    0.077502
     24          6           0        1.938199   -1.175602   -0.269612
     25          1           0        0.199227    1.694234   -0.286467
     26          1           0        2.408572    2.655939    0.380564
     27          1           0        3.913441   -1.274130    0.170479
     28          8           0        4.566831    1.059094    0.658036
     29          8           0        1.780612   -2.371880   -0.445096
 ---------------------------------------------------------------------
                    Distance matrix (angstroms):
                    1          2          3          4          5
     1  C    0.000000
     2  C    1.532823   0.000000
     3  C    2.371604   1.530528   0.000000
     4  O    2.409720   1.405977   2.379510   0.000000
     5  H    2.219463   1.100808   2.185296   2.078759   0.000000
     6  O    2.340436   2.362789   1.407655   3.042357   3.266532
     7  H    3.285000   2.167735   1.095078   2.448091   2.739266
     8  C    3.182681   2.495157   1.473203   3.632817   2.573920
     9  C    1.525082   2.363123   2.331985   2.913929   3.343895
    10  H    1.099180   2.182111   2.782471   3.350192   2.468665
    11  O    1.415368   2.460908   3.629500   2.719114   2.995209
    12  C    2.569620   3.745267   3.580225   4.399705   4.599094
    13  H    2.143846   2.751117   2.885226   2.740100   3.821719
    14  O    2.894248   4.058461   3.817298   5.061690   4.653482
    15  H    2.875373   4.241648   4.400437   4.726180   5.075586
    16  H    3.490493   4.441755   3.972205   4.965653   5.372044
    17  H    1.953023   2.880717   4.178500   3.274536   3.078822
    18  H    2.380253   1.922428   3.143527   0.966604   2.511391
    19  H    3.811777   5.016786   4.727856   5.988891   5.603026
    20  C    3.503012   3.384353   2.493035   4.665353   3.478006
    21  N    4.707703   4.560553   3.745222   5.871249   4.422672
    22  C    5.567975   5.066660   4.293364   6.286581   4.695726
    23  N    5.257439   4.400181   3.662134   5.446204   3.959325
    24  C    4.244705   3.196217   2.427267   4.130496   2.894819
    25  H    3.113722   3.435152   2.632767   4.675046   3.778005
    26  H    5.285617   5.390785   4.621552   6.733654   5.297560
    27  H    6.088663   5.095234   4.447980   6.017473   4.543307
    28  O    6.720023   6.238592   5.508697   7.456176   5.784509
    29  O    4.587628   3.240088   2.703942   3.795271   2.893337
                    6          7          8          9         10
     6  O    0.000000
     7  H    2.069785   0.000000
     8  C    2.349146   2.078844   0.000000
     9  C    1.428250   3.108085   3.349370   0.000000
    10  H    2.772924   3.834036   3.077103   2.163211   0.000000
    11  O    3.553284   4.379107   4.550145   2.403850   2.086235
    12  C    2.411256   4.413459   4.242890   1.508015   2.703460
    13  H    2.075106   3.363911   4.155017   1.102757   3.043445
    14  O    2.889823   4.803900   3.976544   2.390647   2.455817
    15  H    3.339981   5.219474   5.163536   2.121159   3.069852
    16  H    2.606195   4.632919   4.651506   2.131701   3.707597
    17  H    4.272687   4.976264   4.884589   3.210596   2.210594
    18  H    3.571837   3.365957   4.369134   3.042050   3.370371
    19  H    3.715027   5.683198   4.813255   3.226471   3.342120
    20  C    2.721700   3.283028   1.371199   3.549466   3.027346
    21  N    4.059281   4.414652   2.388904   4.867614   4.061026
    22  C    4.963607   4.721303   2.820669   5.891011   5.008804
    23  N    4.646917   3.852814   2.323850   5.654253   4.933104
    24  C    3.591005   2.526401   1.389505   4.606346   4.163453
    25  H    2.305225   3.553257   2.079762   2.891279   2.620872
    26  H    4.695406   5.360289   3.374422   5.368378   4.512426
    27  H    5.533827   4.474510   3.229349   6.552293   5.807068
    28  O    6.166432   5.896617   4.037232   7.078648   6.089180
    29  O    4.037410   2.386923   2.287916   5.003944   4.742960
                   11         12         13         14         15
    11  O    0.000000
    12  C    3.196831   0.000000
    13  H    2.489486   2.125353   0.000000
    14  O    3.737994   1.419772   3.326712   0.000000
    15  H    2.991414   1.102819   2.368626   2.089153   0.000000
    16  H    4.149596   1.101413   2.473795   2.088018   1.790931
    17  H    0.961296   3.865886   3.433617   4.134283   3.616165
    18  H    2.152613   4.410660   2.722069   5.150057   4.508158
    19  H    4.518880   1.955749   4.052318   0.960333   2.382117
    20  C    4.893298   3.954880   4.551276   3.274335   4.918739
    21  N    6.048489   5.116634   5.891990   4.198542   6.053927
    22  C    6.881119   6.373043   6.838554   5.560752   7.305885
    23  N    6.532300   6.447197   6.461986   5.903911   7.365882
    24  C    5.497804   5.610808   5.295590   5.335723   6.498221
    25  H    4.458049   2.984458   3.949945   2.228292   3.965230
    26  H    6.572012   5.320903   6.437321   4.201039   6.217786
    27  H    7.302560   7.418740   7.301877   6.905874   8.322671
    28  O    8.001293   7.479521   8.044369   6.564301   8.400295
    29  O    5.678153   6.217531   5.482736   6.165949   7.034159
                   16         17         18         19         20
    16  H    0.000000
    17  H    4.895774   0.000000
    18  H    5.071348   2.684510   0.000000
    19  H    2.311970   4.877719   6.040098   0.000000
    20  C    4.353089   5.158672   5.257315   3.962446   0.000000
    21  N    5.489472   6.179668   6.469741   4.713046   1.352508
    22  C    6.755890   6.949146   6.974476   6.134589   2.428413
    23  N    6.844671   6.647056   6.218003   6.626425   2.678694
    24  C    6.014096   5.725416   4.951919   6.163740   2.410504
    25  H    3.374036   4.804715   5.139521   2.897683   1.088551
    26  H    5.655179   6.665937   7.258593   4.509294   2.129005
    27  H    7.815480   7.375643   6.809743   7.635859   3.691379
    28  O    7.850314   8.000085   8.134952   7.050728   3.574912
    29  O    6.612094   5.929309   4.674805   7.048085   3.529378
                   21         22         23         24         25
    21  N    0.000000
    22  C    1.448599   0.000000
    23  N    2.377030   1.401946   0.000000
    24  C    2.829055   2.497902   1.375076   0.000000
    25  H    2.143348   3.437002   3.764428   3.355632   0.000000
    26  H    1.085643   2.186337   3.370696   3.914676   2.500202
    27  H    3.297571   2.064132   1.012813   2.026072   4.776544
    28  O    2.388531   1.219455   2.273679   3.572689   4.513475
    29  O    4.048125   3.600692   2.282997   1.219307   4.365687
                   26         27         28         29
    26  H    0.000000
    27  H    4.213574   0.000000
    28  O    2.699071   2.471551   0.000000
    29  O    5.133713   2.476479   4.555381   0.000000
 Stoichiometry    C9H12N2O6
 Framework group  C1[X(C9H12N2O6)]
 Deg. of freedom    81
 Full point group                 C1      NOp   1
 Largest Abelian subgroup         C1      NOp   1
 Largest concise Abelian subgroup C1      NOp   1
                         Standard orientation:                         
 ---------------------------------------------------------------------
 Center     Atomic      Atomic             Coordinates (Angstroms)
 Number     Number       Type             X           Y           Z
 ---------------------------------------------------------------------
      1          6           0       -2.049664   -0.163815    0.817786
      2          6           0       -1.195918   -1.375920    0.428598
      3          6           0       -0.427765   -0.831994   -0.778299
      4          8           0       -2.020493   -2.425607   -0.012998
      5          1           0       -0.508950   -1.709555    1.221404
      6          8           0       -1.214966    0.191025   -1.339761
      7          1           0       -0.248741   -1.631974   -1.504370
      8          6           0        0.886887   -0.282741   -0.403682
      9          6           0       -2.385711    0.414501   -0.552797
     10          1           0       -1.461004    0.561340    1.397289
     11          8           0       -3.243858   -0.518123    1.489821
     12          6           0       -2.762656    1.874476   -0.575037
     13          1           0       -3.227020   -0.160825   -0.973833
     14          8           0       -1.772934    2.628560    0.108747
     15          1           0       -3.746938    1.973326   -0.087565
     16          1           0       -2.854647    2.196711   -1.624234
     17          1           0       -3.079247   -0.528292    2.436864
     18          1           0       -2.822383   -2.396151    0.525917
     19          1           0       -1.976186    3.563024    0.020972
     20          6           0        1.084336    1.053204   -0.166086
     21          7           0        2.286357    1.559446    0.191881
     22          6           0        3.431991    0.684289    0.333521
     23          7           0        3.130644   -0.659230    0.069700
     24          6           0        1.917171   -1.206211   -0.275446
     25          1           0        0.201931    1.677868   -0.292974
     26          1           0        2.419936    2.621928    0.370512
     27          1           0        3.892057   -1.320629    0.162391
     28          8           0        4.565269    1.007581    0.646943
     29          8           0        1.749503   -2.401313   -0.449600
 ---------------------------------------------------------------------
 Rotational constants (GHZ):           0.7940884           0.3288598           0.2615320
 Standard basis: Aug-CC-pVDZ (5D, 7F)
 There are   533 symmetry adapted cartesian basis functions of A   symmetry.
 There are   499 symmetry adapted basis functions of A   symmetry.
   499 basis functions,   863 primitive gaussians,   533 cartesian basis functions
    64 alpha electrons       64 beta electrons
       nuclear repulsion energy      1324.3959306169 Hartrees.
 NAtoms=   29 NActive=   29 NUniq=   29 SFac= 1.00D+00 NAtFMM=   60 NAOKFM=F Big=F
 Integral buffers will be    131072 words long.
 Raffenetti 2 integral format.
 Two-electron integral symmetry is turned on.
 Nuclear repulsion after empirical dispersion term =     1324.3755313449 Hartrees.
 One-electron integrals computed using PRISM.
 NBasis=   499 RedAO= T EigKep=  2.74D-06  NBF=   499
 NBsUse=   499 1.00D-06 EigRej= -1.00D+00 NBFU=   499
 ExpMin= 2.97D-02 ExpMax= 1.17D+04 ExpMxC= 4.01D+02 IAcc=3 IRadAn=         5 AccDes= 0.00D+00
 Harris functional with IExCor= 1009 and IRadAn=       5 diagonalized for initial guess.
 HarFok:  IExCor= 1009 AccDes= 0.00D+00 IRadAn=         5 IDoV= 1 UseB2=F ITyADJ=14
 ICtDFT=  3500011 ScaDFX=  1.000000  1.000000  1.000000  1.000000
 FoFCou: FMM=F IPFlag=           0 FMFlag=      100000 FMFlg1=           0
         NFxFlg=           0 DoJE=T BraDBF=F KetDBF=T FulRan=T
         wScrn=  0.000000 ICntrl=       500 IOpCl=  0 I1Cent=   200000004 NGrid=           0
         NMat0=    1 NMatS0=      1 NMatT0=    0 NMatD0=    1 NMtDS0=    0 NMtDT0=    0
 Petite list used in FoFCou.
 Requested convergence on RMS density matrix=1.00D-08 within 128 cycles.
 Requested convergence on MAX density matrix=1.00D-06.
 Requested convergence on             energy=1.00D-06.
 No special actions if energy rises.
 SCF Done:  E(RPBE1PBE) =  -910.205721942     A.U. after   14 cycles
            NFock= 14  Conv=0.85D-08     -V/T= 2.0053

 **********************************************************************

            Population analysis using the SCF Density.

 **********************************************************************

 Orbital symmetries:
       Occupied  (A) (A) (A) (A) (A) (A) (A) (A) (A) (A) (A) (A)
                 (A) (A) (A) (A) (A) (A) (A) (A) (A) (A) (A) (A)
                 (A) (A) (A) (A) (A) (A) (A) (A) (A) (A) (A) (A)
                 (A) (A) (A) (A) (A) (A) (A) (A) (A) (A) (A) (A)
                 (A) (A) (A) (A) (A) (A) (A) (A) (A) (A) (A) (A)
                 (A) (A) (A) (A)
       Virtual   (A) (A) (A) (A) (A) (A) (A) (A) (A) (A) (A) (A)
                 (A) (A) (A) (A) (A) (A) (A) (A) (A) (A) (A) (A)
                 (A) (A) (A) (A) (A) (A) (A) (A) (A) (A) (A) (A)
                 (A) (A) (A) (A) (A) (A) (A) (A) (A) (A) (A) (A)
                 (A) (A) (A) (A) (A) (A) (A) (A) (A) (A) (A) (A)
                 (A) (A) (A) (A) (A) (A) (A) (A) (A) (A) (A) (A)
                 (A) (A) (A) (A) (A) (A) (A) (A) (A) (A) (A) (A)
                 (A) (A) (A) (A) (A) (A) (A) (A) (A) (A) (A) (A)
                 (A) (A) (A) (A) (A) (A) (A) (A) (A) (A) (A) (A)
                 (A) (A) (A) (A) (A) (A) (A) (A) (A) (A) (A) (A)
                 (A) (A) (A) (A) (A) (A) (A) (A) (A) (A) (A) (A)
                 (A) (A) (A) (A) (A) (A) (A) (A) (A) (A) (A) (A)
                 (A) (A) (A) (A) (A) (A) (A) (A) (A) (A) (A) (A)
                 (A) (A) (A) (A) (A) (A) (A) (A) (A) (A) (A) (A)
                 (A) (A) (A) (A) (A) (A) (A) (A) (A) (A) (A) (A)
                 (A) (A) (A) (A) (A) (A) (A) (A) (A) (A) (A) (A)
                 (A) (A) (A) (A) (A) (A) (A) (A) (A) (A) (A) (A)
                 (A) (A) (A) (A) (A) (A) (A) (A) (A) (A) (A) (A)
                 (A) (A) (A) (A) (A) (A) (A) (A) (A) (A) (A) (A)
                 (A) (A) (A) (A) (A) (A) (A) (A) (A) (A) (A) (A)
                 (A) (A) (A) (A) (A) (A) (A) (A) (A) (A) (A) (A)
                 (A) (A) (A) (A) (A) (A) (A) (A) (A) (A) (A) (A)
                 (A) (A) (A) (A) (A) (A) (A) (A) (A) (A) (A) (A)
                 (A) (A) (A) (A) (A) (A) (A) (A) (A) (A) (A) (A)
                 (A) (A) (A) (A) (A) (A) (A) (A) (A) (A) (A) (A)
                 (A) (A) (A) (A) (A) (A) (A) (A) (A) (A) (A) (A)
                 (A) (A) (A) (A) (A) (A) (A) (A) (A) (A) (A) (A)
                 (A) (A) (A) (A) (A) (A) (A) (A) (A) (A) (A) (A)
                 (A) (A) (A) (A) (A) (A) (A) (A) (A) (A) (A) (A)
                 (A) (A) (A) (A) (A) (A) (A) (A) (A) (A) (A) (A)
                 (A) (A) (A) (A) (A) (A) (A) (A) (A) (A) (A) (A)
                 (A) (A) (A) (A) (A) (A) (A) (A) (A) (A) (A) (A)
                 (A) (A) (A) (A) (A) (A) (A) (A) (A) (A) (A) (A)
                 (A) (A) (A) (A) (A) (A) (A) (A) (A) (A) (A) (A)
                 (A) (A) (A) (A) (A) (A) (A) (A) (A) (A) (A) (A)
                 (A) (A) (A) (A) (A) (A) (A) (A) (A) (A) (A) (A)
                 (A) (A) (A)
 The electronic state is 1-A.
 Alpha  occ. eigenvalues --  -19.26091 -19.25496 -19.23732 -19.22494 -19.21932
 Alpha  occ. eigenvalues --  -19.19501 -14.48508 -14.45597 -10.40070 -10.33733
 Alpha  occ. eigenvalues --  -10.30490 -10.30037 -10.29791 -10.29472 -10.28728
 Alpha  occ. eigenvalues --  -10.28398 -10.23935  -1.11389  -1.10827  -1.08781
 Alpha  occ. eigenvalues --   -1.08129  -1.07758  -1.05449  -1.01171  -0.96016
 Alpha  occ. eigenvalues --   -0.84946  -0.81438  -0.78187  -0.72493  -0.70065
 Alpha  occ. eigenvalues --   -0.68645  -0.64400  -0.62111  -0.59889  -0.58494
 Alpha  occ. eigenvalues --   -0.57412  -0.55458  -0.53810  -0.53318  -0.51704
 Alpha  occ. eigenvalues --   -0.50249  -0.49733  -0.48667  -0.48027  -0.46578
 Alpha  occ. eigenvalues --   -0.45544  -0.44156  -0.43225  -0.43013  -0.42177
 Alpha  occ. eigenvalues --   -0.41111  -0.39512  -0.38724  -0.37943  -0.36795
 Alpha  occ. eigenvalues --   -0.35265  -0.32117  -0.31598  -0.31479  -0.30382
 Alpha  occ. eigenvalues --   -0.29544  -0.28758  -0.27361  -0.24882
 Alpha virt. eigenvalues --   -0.04202  -0.02558  -0.01451  -0.00740   0.00037
 Alpha virt. eigenvalues --    0.00987   0.01426   0.02361   0.02694   0.03233
 Alpha virt. eigenvalues --    0.03555   0.04400   0.05288   0.05345   0.05894
 Alpha virt. eigenvalues --    0.06324   0.06738   0.07011   0.07179   0.08279
 Alpha virt. eigenvalues --    0.08739   0.08934   0.09077   0.09625   0.10427
 Alpha virt. eigenvalues --    0.10616   0.10770   0.11042   0.11286   0.11603
 Alpha virt. eigenvalues --    0.11843   0.12209   0.12292   0.12730   0.12913
 Alpha virt. eigenvalues --    0.13394   0.13504   0.13951   0.14339   0.14500
 Alpha virt. eigenvalues --    0.14836   0.15479   0.15744   0.15917   0.16719
 Alpha virt. eigenvalues --    0.16938   0.17639   0.17881   0.18367   0.18548
 Alpha virt. eigenvalues --    0.18704   0.18931   0.19379   0.19872   0.20013
 Alpha virt. eigenvalues --    0.20623   0.21229   0.21649   0.21708   0.22227
 Alpha virt. eigenvalues --    0.22436   0.22948   0.23196   0.23713   0.24368
 Alpha virt. eigenvalues --    0.24623   0.25009   0.25354   0.25697   0.25983
 Alpha virt. eigenvalues --    0.26321   0.26529   0.27252   0.27518   0.27731
 Alpha virt. eigenvalues --    0.27932   0.28126   0.28599   0.29156   0.29582
 Alpha virt. eigenvalues --    0.29842   0.30095   0.30250   0.30322   0.30811
 Alpha virt. eigenvalues --    0.31190   0.31275   0.31839   0.32342   0.32771
 Alpha virt. eigenvalues --    0.32984   0.33587   0.34285   0.34696   0.35084
 Alpha virt. eigenvalues --    0.35516   0.36311   0.36476   0.36769   0.37438
 Alpha virt. eigenvalues --    0.37629   0.38148   0.38372   0.39033   0.39453
 Alpha virt. eigenvalues --    0.39795   0.40055   0.40205   0.41695   0.42126
 Alpha virt. eigenvalues --    0.42356   0.42685   0.43023   0.44010   0.44527
 Alpha virt. eigenvalues --    0.44642   0.45145   0.45514   0.45936   0.46213
 Alpha virt. eigenvalues --    0.47201   0.47709   0.47976   0.48416   0.48680
 Alpha virt. eigenvalues --    0.49270   0.50072   0.50227   0.50650   0.51321
 Alpha virt. eigenvalues --    0.52413   0.53319   0.53585   0.54382   0.54611
 Alpha virt. eigenvalues --    0.55114   0.55579   0.56061   0.56569   0.56716
 Alpha virt. eigenvalues --    0.57242   0.57732   0.58471   0.59113   0.59603
 Alpha virt. eigenvalues --    0.60148   0.60618   0.60947   0.61153   0.62088
 Alpha virt. eigenvalues --    0.62429   0.63203   0.63629   0.64309   0.65235
 Alpha virt. eigenvalues --    0.65322   0.66050   0.66676   0.67348   0.67496
 Alpha virt. eigenvalues --    0.68473   0.68814   0.69126   0.69644   0.70260
 Alpha virt. eigenvalues --    0.70622   0.70673   0.71493   0.72008   0.72336
 Alpha virt. eigenvalues --    0.73403   0.73785   0.74340   0.75196   0.76017
 Alpha virt. eigenvalues --    0.76490   0.76591   0.76728   0.77916   0.78502
 Alpha virt. eigenvalues --    0.78768   0.79157   0.80020   0.80221   0.80610
 Alpha virt. eigenvalues --    0.81094   0.82414   0.83155   0.83602   0.84676
 Alpha virt. eigenvalues --    0.84937   0.85758   0.86242   0.87143   0.87592
 Alpha virt. eigenvalues --    0.88893   0.89529   0.89709   0.90899   0.91373
 Alpha virt. eigenvalues --    0.92779   0.93304   0.93787   0.95410   0.95553
 Alpha virt. eigenvalues --    0.96395   0.96953   0.97308   0.98634   1.00250
 Alpha virt. eigenvalues --    1.00874   1.02141   1.03146   1.03349   1.04759
 Alpha virt. eigenvalues --    1.05507   1.06109   1.06300   1.07083   1.08465
 Alpha virt. eigenvalues --    1.08787   1.09367   1.10994   1.11148   1.12550
 Alpha virt. eigenvalues --    1.13607   1.13899   1.14752   1.15747   1.16324
 Alpha virt. eigenvalues --    1.17483   1.18004   1.19367   1.20130   1.20519
 Alpha virt. eigenvalues --    1.22563   1.23035   1.24281   1.24751   1.25642
 Alpha virt. eigenvalues --    1.25921   1.26927   1.27703   1.28615   1.30793
 Alpha virt. eigenvalues --    1.31183   1.31913   1.33334   1.34074   1.34190
 Alpha virt. eigenvalues --    1.35678   1.37006   1.37773   1.39323   1.40230
 Alpha virt. eigenvalues --    1.41651   1.42340   1.43071   1.44359   1.45628
 Alpha virt. eigenvalues --    1.45818   1.47335   1.48044   1.48657   1.50620
 Alpha virt. eigenvalues --    1.50846   1.51764   1.52571   1.53613   1.54423
 Alpha virt. eigenvalues --    1.55447   1.56607   1.57025   1.57765   1.59259
 Alpha virt. eigenvalues --    1.60219   1.61717   1.62147   1.62883   1.63739
 Alpha virt. eigenvalues --    1.66304   1.67617   1.67835   1.68626   1.69467
 Alpha virt. eigenvalues --    1.70777   1.71879   1.72716   1.73739   1.74269
 Alpha virt. eigenvalues --    1.75367   1.76295   1.77223   1.78979   1.79504
 Alpha virt. eigenvalues --    1.79810   1.81380   1.82236   1.83137   1.83811
 Alpha virt. eigenvalues --    1.85786   1.86406   1.87705   1.89483   1.90175
 Alpha virt. eigenvalues --    1.90593   1.92346   1.93691   1.94005   1.95250
 Alpha virt. eigenvalues --    1.96491   1.96933   1.97597   1.98005   1.99485
 Alpha virt. eigenvalues --    1.99866   2.00487   2.01167   2.02149   2.04204
 Alpha virt. eigenvalues --    2.05219   2.06493   2.07720   2.08096   2.09167
 Alpha virt. eigenvalues --    2.11316   2.11727   2.12431   2.13119   2.13510
 Alpha virt. eigenvalues --    2.15090   2.16511   2.17083   2.17316   2.18265
 Alpha virt. eigenvalues --    2.20093   2.20622   2.21681   2.23229   2.23575
 Alpha virt. eigenvalues --    2.25386   2.26105   2.27186   2.28377   2.28991
 Alpha virt. eigenvalues --    2.30257   2.31833   2.32967   2.34451   2.36908
 Alpha virt. eigenvalues --    2.38033   2.39042   2.41447   2.42094   2.44333
 Alpha virt. eigenvalues --    2.45325   2.45578   2.47069   2.48398   2.49089
 Alpha virt. eigenvalues --    2.50829   2.51332   2.51548   2.53436   2.54377
 Alpha virt. eigenvalues --    2.55364   2.56723   2.57088   2.59329   2.61746
 Alpha virt. eigenvalues --    2.62583   2.65601   2.68604   2.71450   2.71890
 Alpha virt. eigenvalues --    2.72637   2.76456   2.77207   2.77340   2.80388
 Alpha virt. eigenvalues --    2.81934   2.83685   2.84896   2.85932   2.89368
 Alpha virt. eigenvalues --    2.91968   2.93238   2.95479   2.96547   2.99837
 Alpha virt. eigenvalues --    3.01999   3.09255   3.15591   3.19790   3.20847
 Alpha virt. eigenvalues --    3.28092   3.28810   3.33662   3.35522   3.36239
 Alpha virt. eigenvalues --    3.40903   3.43052   3.43608   3.45237   3.46303
 Alpha virt. eigenvalues --    3.47546   3.49345   3.49723   3.51329   3.52541
 Alpha virt. eigenvalues --    3.54012   3.54825   3.56991   3.58159   3.58995
 Alpha virt. eigenvalues --    3.62295   3.63761   3.64398   3.66932   3.67990
 Alpha virt. eigenvalues --    3.69786   3.70600   3.71637   3.74306   3.79047
 Alpha virt. eigenvalues --    3.82328   3.84836   3.89039   3.98404   4.01361
 Alpha virt. eigenvalues --    4.05394   4.08816   4.22920   4.41576   4.57114
          Condensed to atoms (all electrons):
               1          2          3          4          5          6
     1  C   11.189278  -3.294666   0.876846   0.238124   0.362124  -0.182882
     2  C   -3.294666  10.240788  -2.327122  -0.703238  -0.986839   0.050906
     3  C    0.876846  -2.327122  14.177310   0.133453   0.132457  -0.220634
     4  O    0.238124  -0.703238   0.133453   8.778120  -0.108711   0.021557
     5  H    0.362124  -0.986839   0.132457  -0.108711   2.157451   0.013709
     6  O   -0.182882   0.050906  -0.220634   0.021557   0.013709   9.476407
     7  H   -0.015012   0.390659  -1.036238  -0.032465   0.041104  -0.175805
     8  C    0.030080   0.664586  -2.661794   0.093733  -0.229913   0.042166
     9  C   -2.769316   0.809781  -2.733509  -0.010830   0.246481  -0.181986
    10  H   -0.997426   0.536327   0.131702  -0.015383  -0.128809   0.069498
    11  O   -0.747972   0.320846   0.081040  -0.034303  -0.053484   0.021068
    12  C   -0.120942  -0.194476   0.369117   0.022261  -0.000051  -0.129312
    13  H    0.742061  -0.348258   0.421913   0.021056   0.011906  -0.069539
    14  O   -0.027936   0.019766   0.006814  -0.000427  -0.004791   0.017164
    15  H   -0.042270   0.092461  -0.034631  -0.002677   0.002541   0.083363
    16  H   -0.021889   0.000623   0.006474   0.000185  -0.000005  -0.053652
    17  H    0.319438  -0.227751   0.012380   0.011322   0.020766  -0.007010
    18  H   -0.225371   0.165276  -0.014693   0.281872  -0.015297   0.005967
    19  H   -0.008706   0.000651  -0.015996   0.000032  -0.000164  -0.012217
    20  C    0.375983  -0.694210  -1.618601   0.028811   0.009695   0.125888
    21  N    0.001221   0.002653   0.376074  -0.001491   0.002692   0.015226
    22  C   -0.017481  -0.003120  -0.345650   0.002789  -0.007582   0.008560
    23  N    0.028420  -0.037927  -0.334310   0.000814  -0.005665   0.002900
    24  C   -0.345105   0.425090  -0.242297  -0.020755   0.005689  -0.095778
    25  H   -0.009972   0.016439   0.029638   0.001420   0.019183   0.011361
    26  H   -0.000297  -0.000796  -0.005073  -0.000039  -0.000425  -0.003313
    27  H   -0.003040   0.004868   0.018682   0.000144   0.000569   0.001150
    28  O    0.001723  -0.002791   0.012433  -0.000031  -0.000197   0.000165
    29  O    0.009676  -0.019005  -0.077211  -0.001335  -0.006798   0.009292
               7          8          9         10         11         12
     1  C   -0.015012   0.030080  -2.769316  -0.997426  -0.747972  -0.120942
     2  C    0.390659   0.664586   0.809781   0.536327   0.320846  -0.194476
     3  C   -1.036238  -2.661794  -2.733509   0.131702   0.081040   0.369117
     4  O   -0.032465   0.093733  -0.010830  -0.015383  -0.034303   0.022261
     5  H    0.041104  -0.229913   0.246481  -0.128809  -0.053484  -0.000051
     6  O   -0.175805   0.042166  -0.181986   0.069498   0.021068  -0.129312
     7  H    1.828127   0.388913   0.204910   0.000509  -0.005784  -0.004858
     8  C    0.388913  14.211298   0.477090  -0.067795  -0.034957  -0.083260
     9  C    0.204910   0.477090  11.899405  -0.672631   0.213159  -0.391934
    10  H    0.000509  -0.067795  -0.672631   2.559131  -0.028372  -0.053764
    11  O   -0.005784  -0.034957   0.213159  -0.028372   8.602074   0.006040
    12  C   -0.004858  -0.083260  -0.391934  -0.053764   0.006040   5.431502
    13  H    0.021061  -0.128307  -1.648863   0.110803  -0.068502   0.006362
    14  O   -0.003939   0.042573  -0.197629   0.054742   0.004793   0.209664
    15  H   -0.002658   0.039628   0.031558  -0.008194   0.012039   0.046531
    16  H   -0.000352  -0.043816   0.289255   0.014492   0.003343  -0.063893
    17  H    0.000801   0.002278  -0.005012  -0.142741   0.288694   0.002093
    18  H   -0.010912  -0.016256  -0.001261   0.025477   0.052145  -0.009544
    19  H    0.000175   0.028471   0.053730  -0.010559   0.000280  -0.067027
    20  C   -0.019311  -3.611216  -0.547954   0.060084  -0.007746  -0.155874
    21  N   -0.015489   0.224400   0.025209   0.000475  -0.000485  -0.005308
    22  C   -0.001303   0.068747  -0.023861   0.005604   0.001082  -0.015696
    23  N    0.025077   0.194962  -0.019619   0.003263  -0.000473  -0.005608
    24  C   -0.185549  -4.561940   0.067276   0.007135   0.016301   0.037151
    25  H    0.012386   0.163677  -0.000321  -0.016179  -0.004362   0.051579
    26  H   -0.000062   0.051558   0.003529   0.000232   0.000045  -0.003092
    27  H   -0.002666   0.140824  -0.000242   0.000151   0.000103  -0.000106
    28  O    0.000367   0.016296   0.000864   0.000090  -0.000024   0.000372
    29  O    0.006921   0.042734   0.010946   0.001822  -0.000638  -0.003197
              13         14         15         16         17         18
     1  C    0.742061  -0.027936  -0.042270  -0.021889   0.319438  -0.225371
     2  C   -0.348258   0.019766   0.092461   0.000623  -0.227751   0.165276
     3  C    0.421913   0.006814  -0.034631   0.006474   0.012380  -0.014693
     4  O    0.021056  -0.000427  -0.002677   0.000185   0.011322   0.281872
     5  H    0.011906  -0.004791   0.002541  -0.000005   0.020766  -0.015297
     6  O   -0.069539   0.017164   0.083363  -0.053652  -0.007010   0.005967
     7  H    0.021061  -0.003939  -0.002658  -0.000352   0.000801  -0.010912
     8  C   -0.128307   0.042573   0.039628  -0.043816   0.002278  -0.016256
     9  C   -1.648863  -0.197629   0.031558   0.289255  -0.005012  -0.001261
    10  H    0.110803   0.054742  -0.008194   0.014492  -0.142741   0.025477
    11  O   -0.068502   0.004793   0.012039   0.003343   0.288694   0.052145
    12  C    0.006362   0.209664   0.046531  -0.063893   0.002093  -0.009544
    13  H    2.575038   0.046104  -0.117481  -0.028104  -0.001733  -0.004104
    14  O    0.046104   8.326389  -0.142881  -0.036141  -0.004005   0.000583
    15  H   -0.117481  -0.142881   1.552831  -0.243652  -0.004135   0.001387
    16  H   -0.028104  -0.036141  -0.243652   1.365386  -0.000477  -0.000615
    17  H   -0.001733  -0.004005  -0.004135  -0.000477   0.604276  -0.010128
    18  H   -0.004104   0.000583   0.001387  -0.000615  -0.010128   0.615876
    19  H    0.002856   0.385551  -0.003899  -0.045078   0.000020  -0.000034
    20  C    0.045025  -0.041764  -0.037225   0.055632  -0.000997   0.000215
    21  N   -0.001026   0.009622   0.001550  -0.002104  -0.000186   0.000171
    22  C   -0.000922  -0.001541  -0.000690   0.000276  -0.000374   0.000350
    23  N   -0.000085   0.000466  -0.000017  -0.000533   0.000150  -0.000180
    24  C   -0.006527  -0.004643   0.002177   0.000513  -0.003216   0.009830
    25  H    0.010305  -0.027226  -0.003380   0.012762   0.002106   0.000475
    26  H    0.000166   0.000604   0.000099  -0.000318  -0.000001  -0.000004
    27  H   -0.000008  -0.000130  -0.000009   0.000032  -0.000068   0.000113
    28  O    0.000053   0.000104   0.000030   0.000013   0.000007  -0.000040
    29  O    0.000202   0.000103  -0.000064  -0.000149   0.000043  -0.000084
              19         20         21         22         23         24
     1  C   -0.008706   0.375983   0.001221  -0.017481   0.028420  -0.345105
     2  C    0.000651  -0.694210   0.002653  -0.003120  -0.037927   0.425090
     3  C   -0.015996  -1.618601   0.376074  -0.345650  -0.334310  -0.242297
     4  O    0.000032   0.028811  -0.001491   0.002789   0.000814  -0.020755
     5  H   -0.000164   0.009695   0.002692  -0.007582  -0.005665   0.005689
     6  O   -0.012217   0.125888   0.015226   0.008560   0.002900  -0.095778
     7  H    0.000175  -0.019311  -0.015489  -0.001303   0.025077  -0.185549
     8  C    0.028471  -3.611216   0.224400   0.068747   0.194962  -4.561940
     9  C    0.053730  -0.547954   0.025209  -0.023861  -0.019619   0.067276
    10  H   -0.010559   0.060084   0.000475   0.005604   0.003263   0.007135
    11  O    0.000280  -0.007746  -0.000485   0.001082  -0.000473   0.016301
    12  C   -0.067027  -0.155874  -0.005308  -0.015696  -0.005608   0.037151
    13  H    0.002856   0.045025  -0.001026  -0.000922  -0.000085  -0.006527
    14  O    0.385551  -0.041764   0.009622  -0.001541   0.000466  -0.004643
    15  H   -0.003899  -0.037225   0.001550  -0.000690  -0.000017   0.002177
    16  H   -0.045078   0.055632  -0.002104   0.000276  -0.000533   0.000513
    17  H    0.000020  -0.000997  -0.000186  -0.000374   0.000150  -0.003216
    18  H   -0.000034   0.000215   0.000171   0.000350  -0.000180   0.009830
    19  H    0.574922  -0.036034   0.002163  -0.001290  -0.000423   0.004011
    20  C   -0.036034  15.965930  -1.429081   0.009935   0.634556  -3.308904
    21  N    0.002163  -1.429081   8.074421  -0.019616  -0.129379   0.226366
    22  C   -0.001290   0.009935  -0.019616   6.311447   0.007482  -0.491309
    23  N   -0.000423   0.634556  -0.129379   0.007482   7.400183  -0.543997
    24  C    0.004011  -3.308904   0.226366  -0.491309  -0.543997  14.568630
    25  H   -0.002763  -1.025389   0.080628  -0.094183  -0.029669   0.101806
    26  H   -0.000312  -0.198598   0.431661  -0.109942   0.013154  -0.062766
    27  H   -0.000015  -0.137941   0.044222  -0.212387   0.363802  -0.184870
    28  O   -0.000038   0.114864  -0.115081   0.073367  -0.111915   0.014190
    29  O   -0.000084  -0.041168   0.001420   0.030501  -0.104060   0.174073
              25         26         27         28         29
     1  C   -0.009972  -0.000297  -0.003040   0.001723   0.009676
     2  C    0.016439  -0.000796   0.004868  -0.002791  -0.019005
     3  C    0.029638  -0.005073   0.018682   0.012433  -0.077211
     4  O    0.001420  -0.000039   0.000144  -0.000031  -0.001335
     5  H    0.019183  -0.000425   0.000569  -0.000197  -0.006798
     6  O    0.011361  -0.003313   0.001150   0.000165   0.009292
     7  H    0.012386  -0.000062  -0.002666   0.000367   0.006921
     8  C    0.163677   0.051558   0.140824   0.016296   0.042734
     9  C   -0.000321   0.003529  -0.000242   0.000864   0.010946
    10  H   -0.016179   0.000232   0.000151   0.000090   0.001822
    11  O   -0.004362   0.000045   0.000103  -0.000024  -0.000638
    12  C    0.051579  -0.003092  -0.000106   0.000372  -0.003197
    13  H    0.010305   0.000166  -0.000008   0.000053   0.000202
    14  O   -0.027226   0.000604  -0.000130   0.000104   0.000103
    15  H   -0.003380   0.000099  -0.000009   0.000030  -0.000064
    16  H    0.012762  -0.000318   0.000032   0.000013  -0.000149
    17  H    0.002106  -0.000001  -0.000068   0.000007   0.000043
    18  H    0.000475  -0.000004   0.000113  -0.000040  -0.000084
    19  H   -0.002763  -0.000312  -0.000015  -0.000038  -0.000084
    20  C   -1.025389  -0.198598  -0.137941   0.114864  -0.041168
    21  N    0.080628   0.431661   0.044222  -0.115081   0.001420
    22  C   -0.094183  -0.109942  -0.212387   0.073367   0.030501
    23  N   -0.029669   0.013154   0.363802  -0.111915  -0.104060
    24  C    0.101806  -0.062766  -0.184870   0.014190   0.174073
    25  H    2.314302   0.002407  -0.002817   0.005500  -0.002730
    26  H    0.002407   0.840670  -0.005057   0.004186   0.002198
    27  H   -0.002817  -0.005057   1.065738  -0.002362  -0.029886
    28  O    0.005500   0.004186  -0.002362   8.560398  -0.001080
    29  O   -0.002730   0.002198  -0.029886  -0.001080   8.774652
 Mulliken charges:
               1
     1  C    0.655307
     2  C    1.098480
     3  C    0.881427
     4  O   -0.704007
     5  H   -0.477639
     6  O   -0.844218
     7  H   -0.408610
     8  C    0.515239
     9  C    0.871775
    10  H   -0.439682
    11  O   -0.635951
    12  C    1.125268
    13  H   -0.591453
    14  O   -0.631993
    15  H   -0.222330
    16  H   -0.208207
    17  H    0.143459
    18  H    0.148784
    19  H    0.151777
    20  C    1.485396
    21  N   -0.800927
    22  C    0.826804
    23  N   -0.351373
    24  C    0.397418
    25  H   -0.616983
    26  H    0.039586
    27  H   -0.058793
    28  O   -0.571461
    29  O   -0.777094
 Sum of Mulliken charges =  -0.00000
 Mulliken charges with hydrogens summed into heavy atoms:
               1
     1  C    0.215624
     2  C    0.620842
     3  C    0.472818
     4  O   -0.555223
     6  O   -0.844218
     8  C    0.515239
     9  C    0.280322
    11  O   -0.492492
    12  C    0.694731
    14  O   -0.480216
    20  C    0.868413
    21  N   -0.761341
    22  C    0.826804
    23  N   -0.410166
    24  C    0.397418
    28  O   -0.571461
    29  O   -0.777094
 Electronic spatial extent (au):  <R**2>=           4133.7206
 Charge=             -0.0000 electrons
 Dipole moment (field-independent basis, Debye):
    X=             -3.8029    Y=              5.6236    Z=              2.3132  Tot=              7.1720
 Quadrupole moment (field-independent basis, Debye-Ang):
   XX=           -107.4096   YY=            -96.0178   ZZ=            -95.0324
   XY=             -6.3664   XZ=             -5.7802   YZ=             -5.6597
 Traceless Quadrupole moment (field-independent basis, Debye-Ang):
   XX=             -7.9230   YY=              3.4688   ZZ=              4.4542
   XY=             -6.3664   XZ=             -5.7802   YZ=             -5.6597
 Octapole moment (field-independent basis, Debye-Ang**2):
  XXX=           -112.1996  YYY=            100.4536  ZZZ=             25.2066  XYY=            -24.0257
  XXY=            -16.3505  XXZ=            -13.0622  XZZ=            -21.6158  YZZ=             -6.9893
  YYZ=              8.1756  XYZ=              3.9391
 Hexadecapole moment (field-independent basis, Debye-Ang**3):
 XXXX=          -3944.0428 YYYY=          -1194.5857 ZZZZ=           -339.2024 XXXY=           -235.3354
 XXXZ=            -99.4972 YYYX=            -13.4576 YYYZ=            -27.2996 ZZZX=            -69.1319
 ZZZY=             -9.3403 XXYY=           -730.1408 XXZZ=           -614.8119 YYZZ=           -281.3469
 XXYZ=            -59.4536 YYXZ=              6.5155 ZZXY=              7.6257
 N-N= 1.324375531345D+03 E-N=-4.781583078117D+03  KE= 9.054088089912D+02
 Calling FoFJK, ICntrl=      2127 FMM=F ISym2X=0 I1Cent= 0 IOpClX= 0 NMat=1 NMatS=1 NMatT=0.
 ***** Axes restored to original set *****
 -------------------------------------------------------------------
 Center     Atomic                   Forces (Hartrees/Bohr)
 Number     Number              X              Y              Z
 -------------------------------------------------------------------
      1        6           0.000782201   -0.000095410   -0.001168229
      2        6           0.000367643   -0.001834013   -0.005193995
      3        6          -0.002832489   -0.004637394    0.001063387
      4        8          -0.003522283   -0.001838625    0.001982725
      5        1          -0.000770520   -0.000415169    0.000940886
      6        8          -0.017718603    0.011570340   -0.003112217
      7        1          -0.005288949   -0.003157322   -0.000853375
      8        6          -0.015543732    0.049299263    0.005022940
      9        6           0.003502268   -0.002044055   -0.004363280
     10        1          -0.000173234   -0.000450696    0.000048225
     11        8          -0.001329596    0.000163480    0.001421936
     12        6          -0.001478800   -0.001769885   -0.000491942
     13        1          -0.001313561   -0.000092782    0.000534684
     14        8           0.001545856    0.001873588    0.000736619
     15        1           0.000101422    0.000516734    0.000229577
     16        1           0.000245441    0.000082665    0.000065576
     17        1           0.000103593   -0.000226948   -0.000318342
     18        1           0.000033934   -0.000605130    0.000165579
     19        1          -0.000511537   -0.000291463   -0.000090972
     20        6          -0.016360130   -0.026763632   -0.009105167
     21        7           0.043675083    0.027407404    0.014115780
     22        6          -0.007890272   -0.001874782   -0.002068823
     23        7           0.011451842    0.016075120    0.005047419
     24        6           0.012210049   -0.015913097    0.001916958
     25        1           0.005572577    0.011202692    0.002408794
     26        1          -0.002110161   -0.054724010   -0.008505769
     27        1           0.003670056    0.003989920    0.001387184
     28        8          -0.018427094    0.010360761   -0.002829484
     29        8           0.012008996   -0.015807551    0.001013327
 -------------------------------------------------------------------
 Cartesian Forces:  Max     0.054724010 RMS     0.011872825

 GradGradGradGradGradGradGradGradGradGradGradGradGradGradGradGradGradGrad
 Berny optimization.
 FormGI is forming the generalized inverse of G from B-inverse, IUseBI=4.
 Internal  Forces:  Max     0.055252329 RMS     0.008931741
 Search for a local minimum.
 Step number   1 out of a maximum of  173
 All quantities printed in internal units (Hartrees-Bohrs-Radians)
 Mixed Optimization -- RFO/linear search
 Second derivative matrix not updated -- first step.
 ITU=  0
     Eigenvalues ---    0.00567   0.00660   0.00943   0.01120   0.01302
     Eigenvalues ---    0.01430   0.01488   0.01554   0.01613   0.01727
     Eigenvalues ---    0.01833   0.01887   0.02032   0.02125   0.02339
     Eigenvalues ---    0.02396   0.03069   0.03928   0.04409   0.04922
     Eigenvalues ---    0.05269   0.05402   0.05551   0.05760   0.06035
     Eigenvalues ---    0.06164   0.06304   0.07186   0.08007   0.08249
     Eigenvalues ---    0.09615   0.11080   0.12739   0.13717   0.15965
     Eigenvalues ---    0.15996   0.15999   0.16000   0.16000   0.16000
     Eigenvalues ---    0.16000   0.16723   0.18557   0.19901   0.22058
     Eigenvalues ---    0.22362   0.23425   0.24593   0.24993   0.24999
     Eigenvalues ---    0.25000   0.26681   0.28084   0.29081   0.31551
     Eigenvalues ---    0.33372   0.33379   0.33526   0.33593   0.33773
     Eigenvalues ---    0.34232   0.34981   0.35321   0.35360   0.37349
     Eigenvalues ---    0.39162   0.42183   0.42495   0.42984   0.43166
     Eigenvalues ---    0.44644   0.45505   0.45904   0.47996   0.50069
     Eigenvalues ---    0.53411   0.54077   0.55196   0.55402   0.95625
     Eigenvalues ---    0.95691
 RFO step:  Lambda=-3.42956149D-02 EMin= 5.67053292D-03
 Linear search not attempted -- first point.
 Maximum step size (   0.300) exceeded in Quadratic search.
    -- Step size scaled by   0.976
 Iteration  1 RMS(Cart)=  0.06656045 RMS(Int)=  0.00140902
 Iteration  2 RMS(Cart)=  0.00179891 RMS(Int)=  0.00018457
 Iteration  3 RMS(Cart)=  0.00000225 RMS(Int)=  0.00018455
 Iteration  4 RMS(Cart)=  0.00000000 RMS(Int)=  0.00018455
 Variable       Old X    -DE/DX   Delta X   Delta X   Delta X     New X
                                 (Linear)    (Quad)   (Total)
    R1        2.89662   0.00083   0.00000  -0.00040  -0.00045   2.89617
    R2        2.88199   0.00121   0.00000   0.00055   0.00044   2.88242
    R3        2.07715  -0.00037   0.00000  -0.00096  -0.00096   2.07619
    R4        2.67466   0.00157   0.00000   0.00329   0.00329   2.67795
    R5        2.89228   0.00194   0.00000   0.00748   0.00762   2.89990
    R6        2.65691   0.00318   0.00000   0.00646   0.00646   2.66337
    R7        2.08023   0.00032   0.00000   0.00084   0.00084   2.08107
    R8        2.66008   0.01712   0.00000   0.03756   0.03766   2.69774
    R9        2.06940   0.00197   0.00000   0.00510   0.00510   2.07449
   R10        2.78395   0.02850   0.00000   0.07175   0.07175   2.85570
   R11        1.82662   0.00005   0.00000   0.00009   0.00009   1.82670
   R12        2.69900  -0.00418   0.00000  -0.00857  -0.00864   2.69036
   R13        2.59119  -0.01537   0.00000  -0.02577  -0.02538   2.56581
   R14        2.62578   0.05283   0.00000   0.10637   0.10635   2.73214
   R15        2.84974   0.00042   0.00000   0.00116   0.00116   2.85089
   R16        2.08391   0.00084   0.00000   0.00223   0.00223   2.08614
   R17        1.81659  -0.00029   0.00000  -0.00049  -0.00049   1.81610
   R18        2.68298   0.00188   0.00000   0.00399   0.00399   2.68697
   R19        2.08403   0.00005   0.00000   0.00014   0.00014   2.08417
   R20        2.08137  -0.00006   0.00000  -0.00016  -0.00016   2.08121
   R21        1.81477  -0.00016   0.00000  -0.00027  -0.00027   1.81450
   R22        2.55587   0.01144   0.00000   0.01693   0.01734   2.57321
   R23        2.05706   0.00153   0.00000   0.00389   0.00389   2.06095
   R24        2.73746  -0.04039   0.00000  -0.10019  -0.10013   2.63732
   R25        2.05157  -0.05525   0.00000  -0.13922  -0.13922   1.91235
   R26        2.64929  -0.01811   0.00000  -0.03808  -0.03847   2.61082
   R27        2.30444  -0.01499   0.00000  -0.01477  -0.01477   2.28966
   R28        2.59852   0.01766   0.00000   0.03472   0.03430   2.63282
   R29        1.91394   0.00032   0.00000   0.00065   0.00065   1.91459
   R30        2.30416   0.01381   0.00000   0.01360   0.01360   2.31776
    A1        1.76645   0.00184   0.00000   0.00084   0.00076   1.76721
    A2        1.93613  -0.00018   0.00000   0.00046   0.00043   1.93656
    A3        1.97419  -0.00081   0.00000  -0.00095  -0.00088   1.97331
    A4        1.91946   0.00031   0.00000   0.00481   0.00486   1.92432
    A5        1.91317  -0.00117   0.00000  -0.00193  -0.00194   1.91123
    A6        1.94623   0.00013   0.00000  -0.00267  -0.00269   1.94355
    A7        1.77086   0.00053   0.00000   0.00154   0.00166   1.77251
    A8        1.92141  -0.00243   0.00000  -0.01062  -0.01072   1.91069
    A9        1.98711   0.00057   0.00000  -0.00162  -0.00170   1.98541
   A10        1.88809   0.00335   0.00000   0.02125   0.02129   1.90938
   A11        1.94166  -0.00122   0.00000  -0.00183  -0.00189   1.93977
   A12        1.94542  -0.00054   0.00000  -0.00658  -0.00666   1.93877
   A13        1.86725  -0.00419   0.00000  -0.01609  -0.01635   1.85090
   A14        1.92332  -0.00294   0.00000  -0.03330  -0.03359   1.88973
   A15        1.96043   0.00161   0.00000   0.01105   0.01108   1.97152
   A16        1.93679   0.00011   0.00000  -0.00864  -0.00962   1.92717
   A17        1.90658   0.00437   0.00000   0.03075   0.03066   1.93724
   A18        1.87033   0.00115   0.00000   0.01652   0.01664   1.88697
   A19        1.86364   0.00070   0.00000   0.00353   0.00353   1.86717
   A20        1.93087  -0.00013   0.00000   0.00252   0.00265   1.93352
   A21        2.13626   0.00224   0.00000   0.00192   0.00172   2.13798
   A22        2.02346   0.01628   0.00000   0.05015   0.04996   2.07341
   A23        2.12322  -0.01851   0.00000  -0.05194  -0.05157   2.07165
   A24        1.82888   0.00088   0.00000   0.00038   0.00032   1.82919
   A25        2.02134   0.00054   0.00000   0.00097   0.00097   2.02231
   A26        1.88956  -0.00093   0.00000  -0.00381  -0.00380   1.88576
   A27        1.92650  -0.00110   0.00000  -0.00104  -0.00097   1.92554
   A28        1.91066   0.00079   0.00000   0.00737   0.00734   1.91801
   A29        1.88469  -0.00012   0.00000  -0.00321  -0.00323   1.88147
   A30        1.90280  -0.00016   0.00000  -0.00081  -0.00081   1.90199
   A31        1.91013   0.00172   0.00000   0.00675   0.00675   1.91688
   A32        1.87901   0.00007   0.00000   0.00195   0.00195   1.88096
   A33        1.89460  -0.00041   0.00000  -0.00133  -0.00133   1.89327
   A34        1.94086  -0.00081   0.00000  -0.00350  -0.00352   1.93735
   A35        1.94080  -0.00072   0.00000  -0.00376  -0.00376   1.93704
   A36        1.89684   0.00016   0.00000   0.00006   0.00006   1.89690
   A37        1.90209  -0.00096   0.00000  -0.00484  -0.00484   1.89724
   A38        2.13947  -0.00012   0.00000  -0.00296  -0.00219   2.13728
   A39        2.00663   0.01306   0.00000   0.06679   0.06640   2.07303
   A40        2.13707  -0.01294   0.00000  -0.06386  -0.06425   2.07282
   A41        2.09741   0.01902   0.00000   0.05638   0.05681   2.15423
   A42        2.11673  -0.00508   0.00000  -0.00596  -0.00618   2.11055
   A43        2.06901  -0.01394   0.00000  -0.05044  -0.05066   2.01835
   A44        1.97204   0.00216   0.00000  -0.00673  -0.00709   1.96495
   A45        2.21422  -0.01857   0.00000  -0.05669  -0.05651   2.15770
   A46        2.09692   0.01641   0.00000   0.06342   0.06361   2.16053
   A47        2.23715   0.00002   0.00000   0.00061  -0.00015   2.23701
   A48        2.03420  -0.00535   0.00000  -0.02716  -0.02678   2.00742
   A49        2.01157   0.00534   0.00000   0.02657   0.02695   2.03851
   A50        1.99669  -0.00256   0.00000   0.00469   0.00424   2.00092
   A51        2.13681   0.01775   0.00000   0.05421   0.05444   2.19125
   A52        2.14968  -0.01519   0.00000  -0.05891  -0.05869   2.09099
    D1        0.63935   0.00246   0.00000   0.01793   0.01798   0.65733
    D2       -1.35734  -0.00065   0.00000  -0.00278  -0.00274  -1.36008
    D3        2.72682   0.00161   0.00000   0.01591   0.01593   2.74275
    D4       -1.39676   0.00120   0.00000   0.01178   0.01182  -1.38495
    D5        2.88974  -0.00191   0.00000  -0.00894  -0.00891   2.88083
    D6        0.69070   0.00035   0.00000   0.00976   0.00977   0.70047
    D7        2.68444   0.00180   0.00000   0.01573   0.01576   2.70020
    D8        0.68775  -0.00131   0.00000  -0.00498  -0.00497   0.68279
    D9       -1.51128   0.00095   0.00000   0.01371   0.01371  -1.49757
   D10       -0.62381  -0.00127   0.00000  -0.00856  -0.00846  -0.63227
   D11       -2.75061  -0.00085   0.00000  -0.00811  -0.00806  -2.75867
   D12        1.41396  -0.00035   0.00000  -0.00166  -0.00162   1.41234
   D13        1.42450  -0.00041   0.00000  -0.00562  -0.00556   1.41894
   D14       -0.70230   0.00001   0.00000  -0.00517  -0.00517  -0.70747
   D15       -2.82092   0.00052   0.00000   0.00128   0.00128  -2.81964
   D16       -2.71299  -0.00081   0.00000  -0.00707  -0.00701  -2.72000
   D17        1.44340  -0.00039   0.00000  -0.00662  -0.00661   1.43678
   D18       -0.67522   0.00011   0.00000  -0.00017  -0.00017  -0.67539
   D19        1.59202  -0.00077   0.00000  -0.00353  -0.00351   1.58851
   D20       -2.73434   0.00032   0.00000  -0.00421  -0.00425  -2.73858
   D21       -0.60457   0.00000   0.00000  -0.00123  -0.00122  -0.60579
   D22       -0.45254  -0.00161   0.00000  -0.01701  -0.01680  -0.46934
   D23       -2.55979   0.00250   0.00000   0.02238   0.02208  -2.53771
   D24        1.63942   0.00200   0.00000   0.01688   0.01684   1.65626
   D25        1.56880  -0.00280   0.00000  -0.02004  -0.01977   1.54903
   D26       -0.53845   0.00131   0.00000   0.01935   0.01911  -0.51934
   D27       -2.62242   0.00081   0.00000   0.01385   0.01387  -2.60856
   D28       -2.57203  -0.00201   0.00000  -0.01513  -0.01487  -2.58689
   D29        1.60391   0.00210   0.00000   0.02426   0.02402   1.62792
   D30       -0.48007   0.00160   0.00000   0.01877   0.01877  -0.46130
   D31       -0.62942   0.00061   0.00000   0.00202   0.00199  -0.62743
   D32       -2.55013  -0.00055   0.00000  -0.00546  -0.00548  -2.55560
   D33        1.59300  -0.00093   0.00000  -0.01333  -0.01328   1.57972
   D34        0.06399   0.00182   0.00000   0.01374   0.01357   0.07756
   D35        2.16265  -0.00430   0.00000  -0.04177  -0.04166   2.12099
   D36       -2.06219  -0.00012   0.00000  -0.00764  -0.00763  -2.06982
   D37       -1.67128  -0.00157   0.00000  -0.04141  -0.04169  -1.71297
   D38        1.44671  -0.00147   0.00000  -0.03610  -0.03619   1.41052
   D39        0.39765  -0.00292   0.00000  -0.03440  -0.03440   0.36325
   D40       -2.76754  -0.00282   0.00000  -0.02909  -0.02891  -2.79645
   D41        2.49724   0.00034   0.00000  -0.01783  -0.01783   2.47941
   D42       -0.66795   0.00044   0.00000  -0.01252  -0.01234  -0.68029
   D43        0.35898  -0.00122   0.00000  -0.00496  -0.00493   0.35405
   D44        2.54668  -0.00065   0.00000  -0.00414  -0.00411   2.54257
   D45       -1.66422  -0.00097   0.00000  -0.00416  -0.00412  -1.66834
   D46        3.12899   0.00046   0.00000   0.00505   0.00494   3.13393
   D47       -0.01874   0.00003   0.00000  -0.00074  -0.00101  -0.01975
   D48        0.01233  -0.00013   0.00000  -0.00197  -0.00190   0.01043
   D49       -3.13541  -0.00055   0.00000  -0.00776  -0.00785   3.13993
   D50        3.13733  -0.00007   0.00000  -0.00290  -0.00298   3.13434
   D51       -0.01036  -0.00029   0.00000  -0.00442  -0.00447  -0.01482
   D52       -0.02767   0.00032   0.00000   0.00314   0.00302  -0.02466
   D53        3.10783   0.00011   0.00000   0.00162   0.00153   3.10936
   D54        0.89654   0.00066   0.00000   0.00474   0.00472   0.90127
   D55       -1.21514   0.00059   0.00000   0.00386   0.00384  -1.21130
   D56        3.01767   0.00058   0.00000   0.00343   0.00342   3.02109
   D57       -1.17737  -0.00003   0.00000   0.00436   0.00437  -1.17300
   D58        2.99413  -0.00010   0.00000   0.00348   0.00348   2.99762
   D59        0.94375  -0.00011   0.00000   0.00305   0.00306   0.94682
   D60        3.01776  -0.00028   0.00000  -0.00203  -0.00202   3.01574
   D61        0.90608  -0.00035   0.00000  -0.00291  -0.00291   0.90318
   D62       -1.14430  -0.00036   0.00000  -0.00333  -0.00333  -1.14762
   D63        3.05106  -0.00005   0.00000   0.00110   0.00110   3.05216
   D64       -1.15840   0.00064   0.00000   0.00565   0.00564  -1.15275
   D65        0.95804  -0.00021   0.00000   0.00073   0.00074   0.95878
   D66        0.00444  -0.00004   0.00000  -0.00055  -0.00050   0.00394
   D67        3.13665  -0.00027   0.00000  -0.00387  -0.00378   3.13287
   D68       -3.13055   0.00032   0.00000   0.00520   0.00499  -3.12556
   D69        0.00166   0.00009   0.00000   0.00187   0.00171   0.00337
   D70       -0.00353  -0.00002   0.00000   0.00136   0.00136  -0.00217
   D71        3.14017  -0.00014   0.00000  -0.00100  -0.00089   3.13928
   D72       -3.13599   0.00016   0.00000   0.00437   0.00428  -3.13171
   D73        0.00771   0.00004   0.00000   0.00202   0.00203   0.00974
   D74       -0.01524  -0.00007   0.00000  -0.00058  -0.00057  -0.01582
   D75       -3.13091  -0.00014   0.00000  -0.00173  -0.00175  -3.13266
   D76        3.12440  -0.00000   0.00000   0.00144   0.00151   3.12592
   D77        0.00873  -0.00007   0.00000   0.00029   0.00034   0.00907
   D78        0.03048  -0.00006   0.00000  -0.00135  -0.00133   0.02916
   D79       -3.10497   0.00003   0.00000  -0.00026  -0.00036  -3.10533
   D80       -3.13675  -0.00013   0.00000  -0.00088  -0.00081  -3.13756
   D81        0.01098  -0.00004   0.00000   0.00020   0.00015   0.01113
         Item               Value     Threshold  Converged?
 Maximum Force            0.055252     0.000450     NO 
 RMS     Force            0.008932     0.000300     NO 
 Maximum Displacement     0.310756     0.001800     NO 
 RMS     Displacement     0.066513     0.001200     NO 
 Predicted change in Energy=-1.889793D-02
 GradGradGradGradGradGradGradGradGradGradGradGradGradGradGradGradGradGrad

                          Input orientation:                          
 ---------------------------------------------------------------------
 Center     Atomic      Atomic             Coordinates (Angstroms)
 Number     Number       Type             X           Y           Z
 ---------------------------------------------------------------------
      1          6           0       -2.075333   -0.170860    0.812744
      2          6           0       -1.218345   -1.374597    0.406038
      3          6           0       -0.438984   -0.807699   -0.788154
      4          8           0       -2.055066   -2.419661   -0.034568
      5          1           0       -0.535553   -1.720785    1.197689
      6          8           0       -1.259049    0.221218   -1.342063
      7          1           0       -0.292068   -1.614726   -1.517696
      8          6           0        0.919493   -0.269069   -0.403374
      9          6           0       -2.425015    0.419451   -0.549546
     10          1           0       -1.488507    0.548862    1.399869
     11          8           0       -3.265296   -0.539485    1.488247
     12          6           0       -2.820506    1.875310   -0.554207
     13          1           0       -3.266403   -0.160156   -0.967634
     14          8           0       -1.837742    2.644277    0.127419
     15          1           0       -3.801989    1.959093   -0.058177
     16          1           0       -2.924271    2.205449   -1.599755
     17          1           0       -3.093812   -0.562083    2.433592
     18          1           0       -2.851758   -2.393058    0.512228
     19          1           0       -2.063036    3.574071    0.045627
     20          6           0        1.145670    1.052011   -0.186284
     21          7           0        2.368101    1.535419    0.168906
     22          6           0        3.494471    0.728835    0.337550
     23          7           0        3.229449   -0.607418    0.107388
     24          6           0        2.015605   -1.197328   -0.238542
     25          1           0        0.320131    1.753555   -0.311787
     26          1           0        2.512485    2.525920    0.317730
     27          1           0        4.021107   -1.228134    0.227694
     28          8           0        4.584312    1.155355    0.651232
     29          8           0        1.945057   -2.414691   -0.370325
 ---------------------------------------------------------------------
                    Distance matrix (angstroms):
                    1          2          3          4          5
     1  C    0.000000
     2  C    1.532586   0.000000
     3  C    2.376147   1.534559   0.000000
     4  O    2.403217   1.409395   2.403754   0.000000
     5  H    2.218417   1.101255   2.187835   2.077452   0.000000
     6  O    2.337357   2.367306   1.427582   3.052446   3.277981
     7  H    3.270434   2.148582   1.097775   2.440441   2.728342
     8  C    3.233817   2.539230   1.511171   3.689047   2.605387
     9  C    1.525313   2.363853   2.346731   2.909058   3.347164
    10  H    1.098673   2.181830   2.780144   3.345254   2.469877
    11  O    1.417110   2.461422   3.638953   2.705306   2.988543
    12  C    2.571118   3.748451   3.595123   4.393483   4.606739
    13  H    2.142080   2.748888   2.906170   2.728243   3.818603
    14  O    2.907080   4.075859   3.835483   5.071186   4.679202
    15  H    2.876898   4.243136   4.415632   4.714423   5.078219
    16  H    3.491087   4.444110   3.989286   4.959533   5.380240
    17  H    1.953843   2.878981   4.181876   3.259049   3.068344
    18  H    2.373038   1.927843   3.166360   0.966649   2.507312
    19  H    3.822712   5.033161   4.746856   5.994274   5.629916
    20  C    3.587246   3.439162   2.516326   4.724429   3.525661
    21  N    4.803126   4.624609   3.779668   5.937041   4.482461
    22  C    5.661977   5.161371   4.370380   6.391311   4.793909
    23  N    5.369248   4.523342   3.781469   5.588423   4.074749
    24  C    4.346793   3.302323   2.545367   4.255122   2.974083
    25  H    3.272031   3.559145   2.713522   4.809796   3.883522
    26  H    5.344693   5.398234   4.587719   6.741321   5.300883
    27  H    6.215037   5.244531   4.593596   6.197450   4.684734
    28  O    6.792334   6.334950   5.582017   7.571816   5.897779
    29  O    4.753732   3.419305   2.905281   4.014192   3.015559
                    6          7          8          9         10
     6  O    0.000000
     7  H    2.082449   0.000000
     8  C    2.422305   2.126120   0.000000
     9  C    1.423677   3.102363   3.417771   0.000000
[...]
 6,-0.00006635,-0.01217651,-0.00872409,-0.00355799,0.02376115,0.0324411
 5,0.00400217,-0.14362144,0.01680805,-0.02551669,0.71690976,-0.00005704
 ,-0.00007177,-0.00037988,0.00041292,-0.00051023,0.00119188,0.00120132,
 -0.00358337,-0.00027235,-0.00021361,0.00046469,-0.00031862,0.00018879,
 -0.00009899,-0.00066355,0.00145036,0.00042685,0.00051112,0.00054704,0.
 00007826,0.00071090,0.00991292,0.03475771,0.00264641,0.00006527,0.0000
 6863,0.00044611,-0.00002514,-0.00005061,-0.00001812,-0.00024708,0.0002
 1280,0.00016027,-0.00015290,-0.00024678,-0.00019465,0.00009060,-0.0000
 1424,-0.00004871,0.00024858,0.00043291,0.00011930,0.00003358,0.0000017
 5,0.00002118,0.00002046,0.00007426,-0.00000222,0.00008066,-0.00010972,
 -0.00008219,0.00021176,0.00000174,-0.00000176,-0.00015821,-0.00006750,
 -0.00003031,-0.02396591,-0.02036675,-0.00688572,0.03740743,-0.05112295
 ,0.01177492,-0.02508708,-0.28208435,-0.00538812,-0.07281619,0.77522907
 ,0.00004116,-0.00000681,-0.00021129,-0.00027103,-0.00007472,-0.0003257
 0,-0.00037683,0.00178884,0.00286338,-0.00021063,-0.00004673,0.00015294
 ,0.00006634,-0.00013511,-0.00015567,-0.00078156,0.00004333,-0.00022795
 ,0.00058498,-0.00004691,-0.00001225,-0.01464449,0.00041393,0.00530856,
 0.00031163,0.00002939,-0.00018369,-0.00002841,0.00001663,-0.00000074,-
 0.00016624,0.00001376,0.00019994,-0.00004351,-0.00006737,-0.00002612,-
 0.00007287,-0.00001086,0.00001910,-0.00000318,0.00010426,0.00010292,-0
 .00001733,0.00002818,0.00001855,0.00001779,0.00000074,0.00000246,-0.00
 001497,-0.00002729,-0.00005884,0.00002013,-0.00003194,-0.00002528,-0.0
 0002140,-0.00001989,-0.00004155,-0.00336751,-0.00225406,-0.00094121,0.
 00374616,0.01011894,0.01041585,-0.02509641,0.00700425,-0.06560154,0.19
 305329,-0.02926013,0.12033181,-0.00073583,-0.00010855,0.00032135,-0.00
 168229,-0.00005543,-0.00056757,-0.02361919,0.01485756,-0.00736438,0.00
 147486,0.00085599,0.00025690,-0.00088495,-0.00037800,0.00097708,-0.001
 65723,-0.00105903,-0.00082729,-0.00017526,0.00073732,-0.00073382,-0.19
 291953,0.04779737,-0.03417833,-0.00128259,0.00022223,-0.00035315,-0.00
 005716,0.00015373,0.00043297,0.00108608,0.00025241,-0.00065105,-0.0005
 6406,-0.00030285,-0.00026410,0.00009445,0.00011010,0.00009583,0.001016
 65,-0.00041895,-0.00018923,0.00021343,0.00005724,-0.00001548,0.0000053
 5,-0.00004059,0.00011599,-0.00013957,-0.00002784,0.00026324,-0.0001371
 8,-0.00001701,0.00001460,0.00019833,0.00012441,0.00015193,0.05109359,0
 .03102004,0.01373507,-0.04883127,0.00935503,-0.01318481,0.02439738,-0.
 08674798,0.01240092,-0.23135335,0.00889599,-0.05246280,0.54531733,0.00
 163737,0.00131842,0.00165269,-0.00222088,0.00157565,-0.00493023,0.0018
 5276,0.01942295,0.00271434,-0.00031570,-0.00235414,0.00137540,-0.00121
 288,0.00025684,0.00277359,-0.00799735,-0.00144578,-0.00182928,-0.00326
 567,-0.00171889,-0.00313222,0.05751113,-0.13229830,0.01838562,0.002000
 96,-0.00135124,-0.00242816,0.00007662,-0.00037150,-0.00061664,-0.00045
 615,-0.00133857,0.00022476,0.00083290,0.00068689,0.00078755,-0.0007821
 3,-0.00000656,0.00022717,-0.00130577,-0.00034558,-0.00007681,-0.000263
 70,0.00003744,0.00001709,-0.00001238,-0.00023958,-0.00010663,-0.000081
 16,0.00041275,-0.00000337,-0.00058040,0.00002595,-0.00001493,0.0000625
 6,-0.00000357,-0.00007371,0.01396480,-0.04650127,0.00475294,0.01508105
 ,0.00677926,0.00447624,-0.03300362,-0.00978480,-0.00964016,-0.02801101
 ,-0.13662707,-0.00689658,-0.01066301,0.96511757,-0.00018776,-0.0003457
 8,-0.00016696,0.00048997,0.00001611,0.00076371,-0.00713246,0.00449496,
 -0.00117176,-0.00009116,0.00004575,-0.00050082,0.00055770,0.00030995,-
 0.00017463,-0.00166157,0.00046424,0.00108992,-0.00020146,0.00032647,0.
 00042344,-0.03360339,0.01403462,-0.09270937,-0.00101266,-0.00001983,-0
 .00045464,0.00005657,0.00013536,0.00014693,0.00029294,0.00017960,-0.00
 013633,-0.00022969,-0.00007666,-0.00002797,-0.00003503,0.00005822,0.00
 010869,0.00016760,0.00006984,-0.00019884,0.00004886,0.00001343,-0.0000
 2830,-0.00002549,0.00003489,0.00001163,0.00002121,-0.00003147,0.000087
 23,0.00004228,-0.00003672,0.00003389,-0.00000300,0.00001739,0.00009019
 ,0.01436134,0.00944254,0.00742018,-0.01335452,0.00281554,-0.00913194,0
 .01193885,-0.02581139,-0.01042355,-0.05232258,0.00344627,-0.06737071,0
 .10076746,-0.01633710,0.23450252,-0.00005926,-0.00037596,0.00028119,-0
 .00006958,0.00018101,-0.00047859,-0.00016323,-0.00078988,0.00138335,-0
 .00040421,0.00009021,0.00009396,0.00000896,0.00011305,-0.00016114,-0.0
 0194524,-0.00050161,-0.00019088,0.00004386,0.00034143,-0.00007060,0.01
 243389,-0.00365952,0.00108644,-0.00090686,-0.00054086,0.00041064,0.000
 06237,-0.00012517,0.00008984,-0.00005576,0.00029418,-0.00011932,-0.001
 92823,-0.00117052,-0.00096446,0.00012191,0.00016144,-0.00001347,-0.000
 94649,0.00032211,0.00005639,0.00034208,0.00016838,0.00006159,0.0000131
 4,0.00011475,0.00018632,0.00001795,-0.00004835,0.00002283,0.00002866,-
 0.00018886,0.00000118,0.00070460,0.00054400,-0.00008542,-0.19595970,0.
 13867922,-0.04659377,-0.02041054,0.01821802,-0.00685144,-0.00018446,-0
 .00533896,-0.00107369,0.00082018,0.00056298,0.00044437,-0.00151906,-0.
 00088421,-0.00364434,0.21050929,-0.00010400,-0.00020665,-0.00001356,-0
 .00007169,-0.00022033,0.00005382,0.00167106,-0.00062062,0.00058983,0.0
 0005765,0.00009841,-0.00002438,0.00004256,0.00003313,-0.00008646,0.000
 94887,0.00116695,-0.00004146,-0.00000168,0.00005281,0.00002347,0.02059
 468,-0.01179695,0.00622862,-0.00168249,0.00046204,0.00054914,-0.000076
 59,0.00009417,0.00014351,0.00024353,0.00006545,-0.00021928,0.00055351,
 0.00113852,0.00080489,0.00033994,-0.00005093,-0.00006693,-0.00032262,-
 0.00174905,-0.00019860,-0.00023091,-0.00024866,-0.00016014,-0.00006736
 ,-0.00006666,-0.00009116,-0.00000567,0.00003286,0.00002866,-0.00001350
 ,-0.00002033,0.00002116,0.00047571,-0.00029074,-0.00024328,0.14372628,
 -0.19834454,0.04377981,-0.01551707,0.01382764,-0.00463807,-0.00147407,
 -0.00175353,-0.00040898,-0.00009201,0.00060142,-0.00002682,-0.00367420
 ,-0.00421257,-0.00114992,-0.14562691,0.20177242,0.00037721,0.00027260,
 0.00027927,0.00039968,0.00043456,0.00069430,0.00170470,-0.00034108,-0.
 00489476,0.00024794,-0.00001034,-0.00026307,0.00001990,0.00007623,-0.0
 0005478,-0.00009670,-0.00060010,-0.00121070,-0.00081530,-0.00015831,-0
 .00008511,-0.00042279,-0.00023063,0.00919746,-0.00047437,0.00047543,0.
 00059840,0.00001068,0.00001258,-0.00031326,-0.00014654,-0.00022265,-0.
 00014156,0.00025124,0.00064923,0.00075443,0.00017490,-0.00004843,-0.00
 012776,-0.00020176,-0.00048245,-0.00094960,-0.00017866,-0.00016147,-0.
 00016113,-0.00028315,-0.00001219,-0.00019338,0.00004037,0.00007354,-0.
 00003949,0.00001311,0.00012912,0.00002658,-0.00029123,0.00008930,0.000
 07664,-0.04514138,0.04108320,-0.05685158,-0.00710455,0.00578723,0.0009
 2757,-0.00111590,-0.00163505,0.00368898,0.00036199,0.00012142,-0.00056
 059,-0.00338399,-0.00034605,0.01024644,0.05493267,-0.04499653,0.044127
 69,-0.00001283,-0.00011625,-0.00002107,0.00007230,0.00007281,-0.000263
 82,0.00112089,-0.00151988,-0.00029169,-0.00016731,-0.00001002,0.000093
 02,-0.00000454,0.00001281,0.00001389,-0.00014862,0.00052154,0.00010436
 ,-0.00047060,-0.00012458,-0.00008194,-0.00518213,-0.00006953,-0.002403
 15,0.00018695,-0.00008940,-0.00011936,0.00000800,-0.00003613,0.0000233
 0,-0.00005173,0.00009169,0.00005147,-0.00028163,-0.00031335,-0.0001950
 6,-0.00003248,0.00001912,0.00001790,0.00046563,0.00040989,0.00013437,0
 .00007063,0.00005783,0.00003094,0.00003951,0.00002502,0.00003788,-0.00
 000482,-0.00003246,-0.00000702,0.00000470,-0.00005950,0.00000306,-0.00
 018994,-0.00001343,0.00000927,-0.00015235,-0.03226321,0.00233288,-0.07
 533265,-0.06148582,-0.01887755,0.01567519,0.03130632,0.00448275,-0.005
 43902,0.00343160,-0.00267966,-0.00195263,0.00004392,-0.00036768,0.0001
 9160,0.00017390,0.00054179,0.07156764,-0.00010319,0.00005216,0.0000484
 8,-0.00009837,-0.00016551,0.00005233,-0.00016858,0.00012453,-0.0001319
 9,0.00023071,0.00008441,-0.00001305,-0.00002078,-0.00003054,0.00006734
 ,0.00048905,-0.00014283,0.00004361,0.00003755,0.00002265,0.00003486,-0
 .00114467,0.00412585,-0.00033911,-0.00027169,0.00008323,0.00011842,-0.
 00001897,0.00003891,0.00001372,0.00017936,-0.00003918,-0.00010962,0.00
 010857,0.00015950,0.00009673,0.00005390,-0.00000545,-0.00000970,-0.000
 15935,-0.00034014,-0.00008726,-0.00001666,-0.00002962,-0.00002591,-0.0
 0001702,-0.00001664,0.00000229,-0.00002851,0.00002176,0.00003287,-0.00
 002543,0.00002435,0.00001244,0.00016613,0.00006812,-0.00000806,-0.0018
 1184,-0.00413353,-0.00058982,-0.05844743,-0.45403596,-0.01072405,-0.00
 485132,-0.01830346,-0.00115871,0.00319943,-0.00023080,0.00098371,0.001
 97003,-0.00127780,0.00061319,0.00010108,0.00106094,0.00000714,0.063486
 74,0.46997236,0.00007013,0.00000613,0.00006884,-0.00029135,-0.00005520
 ,-0.00031399,-0.00032632,-0.00012233,0.00228742,-0.00020429,-0.0001100
 9,0.00005880,-0.00000059,0.00000100,-0.00004065,0.00012598,0.00008589,
 -0.00019625,0.00034322,0.00010734,0.00007822,-0.00257757,-0.00016184,0
 .00234334,-0.00008510,-0.00001626,0.00004148,-0.00000139,0.00001474,0.
 00000282,-0.00003679,-0.00002054,-0.00003055,0.00004543,0.00004274,0.0
 0006696,0.00000404,-0.00000072,-0.00001225,-0.00002326,-0.00007102,-0.
 00024501,0.00000060,-0.00000326,-0.00000635,-0.00004325,-0.00000270,-0
 .00003572,0.00001971,0.00002624,0.00000373,-0.00001976,-0.00003822,-0.
 00000088,0.00003100,-0.00000224,0.00013482,0.00189572,-0.00980842,-0.0
 0568427,-0.01885786,-0.01114889,-0.01409559,0.00512027,0.00933387,0.00
 028665,-0.00263999,0.00103546,0.00272860,-0.00036835,-0.00004360,-0.00
 079175,0.00044549,0.00006219,-0.00157774,0.01649079,0.01201266,0.01761
 657,-0.00003641,-0.00000337,0.00002502,-0.00008986,0.00000785,-0.00019
 184,0.00017190,0.00132624,0.00004620,0.00007993,0.00000043,0.00006596,
 -0.00002126,-0.00002411,0.00009452,-0.00048553,0.00009440,-0.00005247,
 -0.00000964,-0.00003732,-0.00004993,-0.00291173,-0.00452482,-0.0020694
 0,0.00000481,-0.00004848,-0.00016413,-0.00000165,0.00001419,0.00001513
 ,0.00006502,0.00000079,-0.00001534,-0.00005934,-0.00004116,-0.00001448
 ,-0.00002888,0.00001284,0.00002712,0.00007868,0.00001851,0.00001842,0.
 00001276,0.00001420,-0.00000008,0.00000498,-0.00000764,0.00001094,-0.0
 0002535,0.00000029,0.00001281,-0.00002605,-0.00001333,0.00000171,-0.00
 001189,0.00000486,0.00000246,-0.00065382,-0.00105651,0.00003599,0.0013
 1907,-0.00389817,-0.00083948,0.01374477,-0.00218382,0.00442119,-0.2853
 7835,0.17798118,-0.08077139,-0.01978163,0.02249713,-0.00631486,-0.0001
 0646,0.00003950,0.00009043,0.00079561,-0.00041750,-0.00007360,0.291869
 63,0.00007821,0.00000770,-0.00003355,0.00008245,0.00014106,-0.00009026
 ,-0.00004808,0.00080245,0.00007013,-0.00010777,-0.00013624,0.00002552,
 -0.00000610,0.00000831,0.00000913,-0.00059391,0.00008101,-0.00006605,0
 .00000317,-0.00000936,-0.00003807,-0.00357343,-0.00147953,-0.00102861,
 0.00013530,-0.00002328,-0.00015004,0.00000359,-0.00001801,-0.00001114,
 -0.00008805,-0.00003204,0.00006458,-0.00000394,-0.00001044,0.00001966,
 -0.00005192,-0.00000072,0.00001502,-0.00002638,0.00002576,0.00000667,-
 0.00000986,0.00001348,0.00000783,0.00000351,-0.00000146,-0.00000608,0.
 00000791,0.00001108,-0.00001693,-0.00000091,0.00000997,-0.00000653,-0.
 00000393,-0.00000728,-0.00000435,-0.00090178,-0.00028560,-0.00028354,-
 0.00346170,-0.00590694,-0.00088523,0.03193149,-0.01561463,0.00959016,0
 .17342094,-0.21339654,0.05313438,-0.00966619,0.02015412,-0.00304354,0.
 00007754,0.00005188,0.00001052,0.00136780,-0.00048537,0.00040641,-0.18
 914518,0.21471635,0.00000678,0.00002093,0.00003759,0.00009019,-0.00005
 119,0.00005162,-0.00014101,0.00039295,0.00029000,-0.00001925,-0.000018
 54,-0.00005051,-0.00001862,0.00001869,0.00002205,-0.00002518,0.0000025
 9,-0.00019057,-0.00003294,-0.00001174,-0.00002115,-0.00212692,-0.00118
 643,0.00373285,-0.00001548,-0.00000054,0.00002138,-0.00000018,-0.00002
 118,0.00000676,0.00002456,0.00000303,-0.00004986,-0.00000523,-0.000013
 75,0.00000132,-0.00000325,0.00000230,-0.00000163,0.00002706,-0.0000034
 0,-0.00002401,0.00000767,-0.00000113,0.00000003,-0.00000179,0.00000432
 ,-0.00000340,0.00001422,-0.00000306,0.00001504,0.00000211,-0.00000301,
 0.00001189,-0.00000045,0.00000007,0.00001558,0.00003855,-0.00030175,-0
 .00075026,-0.00085473,-0.00106716,0.00408526,0.00401186,-0.00048715,0.
 00002442,-0.08057020,0.05450559,-0.04156924,-0.00614618,0.00631039,-0.
 00099094,0.00007505,0.00001935,-0.00040996,-0.00008837,-0.00010778,0.0
 0102243,0.08294945,-0.05776567,0.04186444,0.00082878,-0.00021199,-0.00
 042263,0.00041120,0.00127094,-0.00100275,0.00231398,-0.00152846,0.0013
 2078,-0.00150653,-0.00088075,0.00028469,0.00008899,0.00008955,-0.00027
 945,-0.00255171,0.00064496,-0.00001389,-0.00079087,-0.00009320,-0.0000
 7835,-0.00115542,-0.00174696,0.00019323,0.00157337,-0.00030496,-0.0008
 0434,0.00000516,-0.00012942,-0.00018555,-0.00122340,-0.00005502,0.0008
 6498,0.00017454,-0.00005758,0.00015773,-0.00035195,-0.00006401,0.00005
 956,-0.00055068,0.00048699,0.00024763,-0.00015586,0.00006221,0.0000697
 1,0.00003247,0.00002968,-0.00009905,0.00014412,-0.00002176,-0.00026750
 ,0.00013208,-0.00005175,-0.00009835,-0.00008626,-0.00015310,-0.0001026
 7,0.00376219,0.00883067,-0.00029971,-0.08187064,0.00029106,-0.03029907
 ,-0.56127532,-0.19367400,-0.14047298,-0.01947295,-0.04505508,-0.011454
 32,0.00512036,0.00505095,-0.00087250,-0.00126178,-0.00148093,-0.000490
 67,-0.00124309,-0.00206798,0.00069311,-0.00316380,-0.00216911,0.000218
 29,0.66369552,0.00019477,-0.00007428,-0.00020590,0.00039341,0.00022228
 ,0.00007657,0.00074682,0.00046702,0.00025850,-0.00043183,-0.00011249,-
 0.00004154,0.00003641,0.00001828,-0.00019601,-0.00114220,0.00060805,-0
 .00004612,0.00008132,0.00005322,0.00015190,-0.00373366,0.00727430,-0.0
 0120328,0.00045760,-0.00012738,-0.00027940,0.00000595,-0.00007267,-0.0
 0003969,-0.00037660,0.00006113,0.00026066,-0.00013167,-0.00020529,-0.0
 0006233,-0.00011633,-0.00000386,0.00003231,0.00012140,0.00033452,0.000
 10528,-0.00000526,0.00004290,0.00003636,0.00002741,0.00003258,-0.00001
 907,0.00005934,-0.00005219,-0.00008586,0.00009213,-0.00002467,-0.00001
 719,-0.00009803,-0.00007296,-0.00004086,-0.00671569,-0.01043420,-0.001
 84409,0.02733793,0.03119547,0.00804453,-0.19266032,-0.18530985,-0.0561
 4598,-0.07546677,-0.04070514,-0.02168726,0.02374896,-0.00014705,0.0070
 5764,0.00085975,0.00036391,0.00024345,-0.00490019,0.00209685,-0.001558
 34,-0.00020063,0.00422456,-0.00013012,0.23841458,0.19635338,0.00022490
 ,-0.00011237,-0.00016158,0.00015801,0.00039809,-0.00032794,0.00082895,
 -0.00051766,-0.00011172,-0.00040298,-0.00022804,0.00013045,0.00004464,
 0.00000321,-0.00004135,-0.00074319,0.00018895,0.00001824,-0.00033049,0
 .00004570,-0.00001979,-0.00000474,-0.00062243,-0.00101358,0.00052409,-
 0.00008134,-0.00028224,-0.00000500,-0.00001630,-0.00005458,-0.00036334
 ,0.00000121,0.00030042,0.00002128,-0.00003153,0.00001148,-0.00010778,-
 0.00001742,0.00002457,-0.00014724,0.00017587,0.00015965,-0.00004533,0.
 00002319,0.00002248,0.00002400,0.00000204,-0.00001090,0.00002130,-0.00
 002102,-0.00009414,0.00003213,-0.00001963,-0.00003999,-0.00003448,-0.0
 0004182,-0.00007198,-0.00026430,0.00275490,0.00488920,-0.03072864,0.00
 002559,0.01170535,-0.14028286,-0.05644115,-0.12274910,-0.01126283,-0.0
 1264187,0.01781268,-0.00090403,0.00153085,0.00707124,-0.00033489,-0.00
 046099,-0.00037583,0.00080199,-0.00069754,-0.00348286,0.00016642,-0.00
 073300,-0.00366432,0.18304667,0.06914448,0.09192276,-0.00004882,-0.000
 31523,-0.00117927,0.00096488,0.00053758,0.00165052,0.00197230,-0.00173
 841,0.00053900,-0.00069989,-0.00027615,-0.00025559,-0.00044185,0.00035
 641,-0.00118141,-0.00043148,0.00111958,0.00047619,0.00058910,0.0004536
 0,0.00105520,0.01663716,0.03188574,-0.00220442,0.00043257,0.00033877,0
 .00005352,0.00001360,-0.00005315,0.00000645,-0.00067590,0.00016648,0.0
 0051698,-0.00013093,-0.00018385,-0.00008175,-0.00008676,-0.00003788,0.
 00000603,-0.00004811,0.00034451,0.00012637,-0.00004026,0.00005053,0.00
 004142,0.00002559,0.00008983,-0.00004082,0.00009884,-0.00007721,-0.000
 16805,0.00022448,0.00007084,-0.00004219,-0.00007086,-0.00007417,-0.000
 04531,-0.01252168,-0.00061324,-0.00467913,0.00930394,-0.00440035,0.002
 68627,-0.00783966,0.01859036,-0.00464503,-0.00415466,-0.07496522,-0.00
 580132,-0.10272502,-0.02955615,-0.00768463,0.00062237,0.00157452,0.000
 98038,0.00046771,-0.00035325,0.00026400,0.00464449,0.00274632,0.002584
 00,-0.00162249,-0.00659861,0.00006778,0.09554132,-0.00098461,-0.000772
 89,-0.00095188,0.00080871,-0.00138972,0.00281316,-0.00573347,-0.003884
 69,-0.00264584,0.00033874,0.00169919,-0.00076738,0.00055965,-0.0002907
 7,-0.00142387,0.00178822,0.00155518,0.00030207,0.00186332,0.00095664,0
 .00157855,0.01524529,-0.06689850,0.00523119,-0.00134555,0.00071401,0.0
 0092116,-0.00004165,0.00023197,0.00045230,0.00039910,0.00088733,-0.000
 16670,-0.00082266,-0.00072176,-0.00062030,0.00036894,0.00003992,-0.000
 04909,0.00133213,0.00036039,0.00000448,0.00023389,0.00004898,0.0000235
 7,0.00003019,0.00014887,0.00009497,0.00003726,-0.00029468,0.00002496,0
 .00037442,-0.00004876,0.00001163,-0.00005494,0.00000816,0.00007661,0.0
 1382898,0.01143855,0.00392838,-0.00752468,-0.00648179,-0.00221415,0.00
 159883,0.01245044,0.00047567,-0.04881765,-0.06306331,-0.01308785,-0.02
 699880,-0.67576358,0.00327642,-0.00157833,-0.00124099,-0.00022025,0.00
 001274,0.00130120,0.00002898,-0.00041039,-0.00284029,-0.00010658,-0.00
 542552,-0.00600642,-0.00160998,0.06091781,0.79785732,0.00011381,-0.000
 00944,0.00047154,-0.00027177,0.00004902,-0.00184028,0.00168079,-0.0005
 4609,-0.00271655,0.00039387,0.00010529,0.00067075,0.00002867,-0.000107
 98,0.00078138,-0.00070956,0.00048926,0.00052485,0.00057746,0.00030024,
 0.00047827,-0.00248199,0.01109433,0.02211097,0.00070060,0.00001566,-0.
 00039300,0.00001845,0.00002857,-0.00004478,-0.00008885,-0.00009407,0.0
 0011921,-0.00005014,-0.00000081,0.00013734,-0.00005919,-0.00002023,-0.
 00000248,-0.00005613,0.00000023,0.00009896,-0.00003141,0.00005898,0.00
 001547,0.00001986,-0.00007060,0.00000336,-0.00006850,0.00006143,-0.000
 01990,-0.00012111,0.00007872,-0.00002123,-0.00000002,-0.00001006,-0.00
 003482,-0.00502058,-0.00028196,0.00176952,0.00282041,-0.00110494,0.001
 06653,-0.00446707,0.00522157,0.00588832,-0.00584168,-0.02050263,0.0173
 5559,-0.00793878,0.00124686,-0.07771751,0.00101070,0.00052213,-0.00240
 747,0.00022673,-0.00013721,-0.00022682,0.00257322,0.00080258,-0.003476
 81,0.00008740,-0.00180863,-0.00156662,0.01695480,0.00461978,0.03897619
 \\0.00000251,-0.00000452,-0.00000830,0.00000909,0.00000313,0.00001168,
 -0.00001301,0.00001894,-0.00001682,-0.00000562,0.00000768,-0.00001064,
 -0.00000332,-0.00000111,0.00000161,0.00002178,-0.00002793,-0.00000309,
 0.00000471,-0.00000041,0.00000027,0.00000918,-0.00000651,0.00001092,-0
 .00001801,0.00000978,0.00001606,-0.00000128,-0.00000059,-0.00000140,-0
 .00000320,-0.00000241,0.00000411,0.00000259,-0.00000224,0.00000353,0.0
 0000382,-0.00000040,-0.00000016,-0.00000312,0.00000270,-0.00000174,-0.
 00000122,0.00000036,-0.00000162,0.00000138,-0.00000029,-0.00000064,-0.
 00000018,0.00000088,0.00000029,0.00000750,-0.00000540,0.00000445,0.000
 00004,0.00000074,0.00000046,-0.00001141,-0.00000207,-0.00000656,-0.000
 00400,0.00001332,0.00000062,-0.00000640,-0.00001954,-0.00000777,0.0000
 3030,0.00002930,0.00001492,-0.00003180,-0.00002727,-0.00001437,0.00000
 188,-0.00000092,0.00000065,-0.00000036,-0.00000636,0.00000168,-0.00000
 627,-0.00000757,-0.00000308,0.00001089,0.00000575,0.00000435,0.0000035
 1,0.00002297,0.00000061\\\@
 The archive entry for this job was punched.


 I KNOW YOU BELIEVE YOU UNDERSTAND WHAT YOU THINK I SAID,
 BUT I AM NOT SURE YOU REALIZE THAT WHAT YOU HEARD IS NOT WHAT I MEANT.
 Job cpu time:       0 days 10 hours 34 minutes 28.9 seconds.
 Elapsed time:       0 days  0 hours 15 minutes 60.0 seconds.
 File lengths (MBytes):  RWF=    632 Int=      0 D2E=      0 Chk=     21 Scr=      1
 Normal termination of Gaussian 16 at Sat Oct 26 09:23:39 2024.
