 Entering Gaussian System, Link 0=g16
 Input=PseudoUridineAmSarrgPBE0aVDZ.gjf
 Output=PseudoUridineAmSarrgPBE0aVDZ.log
 Initial command:
 /sw/contrib/chem-src/g16/c01/g16/l1.exe "/scr/Gau-23962.inp" -scrdir="/scr/"
 Entering Link 1 = /sw/contrib/chem-src/g16/c01/g16/l1.exe PID=     23963.
  
 Copyright (c) 1988-2019, Gaussian, Inc.  All Rights Reserved.
  
 This is part of the Gaussian(R) 16 program.  It is based on
 the Gaussian(R) 09 system (copyright 2009, Gaussian, Inc.),
 the Gaussian(R) 03 system (copyright 2003, Gaussian, Inc.),
 the Gaussian(R) 98 system (copyright 1998, Gaussian, Inc.),
 the Gaussian(R) 94 system (copyright 1995, Gaussian, Inc.),
 the Gaussian 92(TM) system (copyright 1992, Gaussian, Inc.),
 the Gaussian 90(TM) system (copyright 1990, Gaussian, Inc.),
 the Gaussian 88(TM) system (copyright 1988, Gaussian, Inc.),
 the Gaussian 86(TM) system (copyright 1986, Carnegie Mellon
 University), and the Gaussian 82(TM) system (copyright 1983,
 Carnegie Mellon University). Gaussian is a federally registered
 trademark of Gaussian, Inc.
  
 This software contains proprietary and confidential information,
 including trade secrets, belonging to Gaussian, Inc.
  
 This software is provided under written license and may be
 used, copied, transmitted, or stored only in accord with that
 written license.
  
 The following legend is applicable only to US Government
 contracts under FAR:
  
                    RESTRICTED RIGHTS LEGEND
  
 Use, reproduction and disclosure by the US Government is
 subject to restrictions as set forth in subparagraphs (a)
 and (c) of the Commercial Computer Software - Restricted
 Rights clause in FAR 52.227-19.
  
 Gaussian, Inc.
 340 Quinnipiac St., Bldg. 40, Wallingford CT 06492
  
  
 ---------------------------------------------------------------
 Warning -- This program may not be used in any manner that
 competes with the business of Gaussian, Inc. or will provide
 assistance to any competitor of Gaussian, Inc.  The licensee
 of this program is prohibited from giving any competitor of
 Gaussian, Inc. access to this program.  By using this program,
 the user acknowledges that Gaussian, Inc. is engaged in the
 business of creating and licensing software in the field of
 computational chemistry and represents and warrants to the
 licensee that it is not a competitor of Gaussian, Inc. and that
 it will not use this program in any manner prohibited above.
 ---------------------------------------------------------------
  

 Cite this work as:
 Gaussian 16, Revision C.01,
 M. J. Frisch, G. W. Trucks, H. B. Schlegel, G. E. Scuseria, 
 M. A. Robb, J. R. Cheeseman, G. Scalmani, V. Barone, 
 G. A. Petersson, H. Nakatsuji, X. Li, M. Caricato, A. V. Marenich, 
 J. Bloino, B. G. Janesko, R. Gomperts, B. Mennucci, H. P. Hratchian, 
 J. V. Ortiz, A. F. Izmaylov, J. L. Sonnenberg, D. Williams-Young, 
 F. Ding, F. Lipparini, F. Egidi, J. Goings, B. Peng, A. Petrone, 
 T. Henderson, D. Ranasinghe, V. G. Zakrzewski, J. Gao, N. Rega, 
 G. Zheng, W. Liang, M. Hada, M. Ehara, K. Toyota, R. Fukuda, 
 J. Hasegawa, M. Ishida, T. Nakajima, Y. Honda, O. Kitao, H. Nakai, 
 T. Vreven, K. Throssell, J. A. Montgomery, Jr., J. E. Peralta, 
 F. Ogliaro, M. J. Bearpark, J. J. Heyd, E. N. Brothers, K. N. Kudin, 
 V. N. Staroverov, T. A. Keith, R. Kobayashi, J. Normand, 
 K. Raghavachari, A. P. Rendell, J. C. Burant, S. S. Iyengar, 
 J. Tomasi, M. Cossi, J. M. Millam, M. Klene, C. Adamo, R. Cammi, 
 J. W. Ochterski, R. L. Martin, K. Morokuma, O. Farkas, 
 J. B. Foresman, and D. J. Fox, Gaussian, Inc., Wallingford CT, 2019.
 
 ******************************************
 Gaussian 16:  EM64L-G16RevC.01  3-Jul-2019
                27-Oct-2024 
 ******************************************
 %nprocshared=40
 Will use up to   40 processors via shared memory.
 %mem=50gb
 ------------------------------------------------------
 # PBE1PBE/aug-cc-pVDZ opt freq EmpiricalDispersion=GD3
 ------------------------------------------------------
 1/18=20,19=15,26=3,38=1/1,3;
 2/9=110,12=2,17=6,18=5,40=1/2;
 3/5=16,7=10,11=2,25=1,30=1,71=1,74=-13,124=31/1,2,3;
 4//1;
 5/5=2,38=5/2;
 6/7=2,8=2,9=2,10=2,28=1/1;
 7//1,2,3,16;
 1/18=20,19=15,26=3/3(2);
 2/9=110/2;
 99//99;
 2/9=110/2;
 3/5=16,7=10,11=2,25=1,30=1,71=1,74=-13,124=31/1,2,3;
 4/5=5,16=3,69=1/1;
 5/5=2,38=5/2;
 7//1,2,3,16;
 1/18=20,19=15,26=3/3(-5);
 2/9=110/2;
 6/7=2,8=2,9=2,10=2,19=2,28=1/1;
 99/9=1/99;
 ----
 blah
 ----
 Symbolic Z-matrix:
 Charge =  0 Multiplicity = 2
 C                    -2.76183  -0.44372   0.26993 
 C                    -1.37569  -0.73632   0.85096 
 C                    -0.50037  -0.79383  -0.41618 
 O                    -1.33865  -1.91426   1.622 
 H                    -1.05662   0.09479   1.48716 
 O                    -1.13962   0.10334  -1.3515 
 H                    -0.56931  -1.82744  -0.81288 
 C                     0.94175  -0.47464  -0.26195 
 C                    -2.44789   0.46873  -0.90837 
 H                    -3.44098   0.01122   0.99866 
 O                    -3.38378  -1.66943  -0.14498 
 C                    -2.51139   1.95693  -0.58181 
 H                    -3.1601    0.27359  -1.73163 
 O                    -1.89601   2.3117    0.62156 
 H                    -3.57374   2.24578  -0.50665 
 H                    -2.07834   2.49606  -1.44576 
 H                    -2.97266  -1.93417  -0.97503 
 H                    -1.98303  -2.50924   1.21592 
 H                    -0.92999   2.09292   0.57174 
 C                     1.93063  -1.37207  -0.6561 
 N                     3.25089  -1.23632  -0.57958 
 C                     3.71757  -0.06498  -0.05704 
 N                     2.75833   0.88008   0.34371 
 C                     1.38647   0.76964   0.27799 
 H                     1.59084  -2.32546  -1.08449 
 H                     3.12204   1.74522   0.72128 
 O                     4.90878   0.2231    0.08408 
 O                     0.68826   1.72955   0.68237 
 

 GradGradGradGradGradGradGradGradGradGradGradGradGradGradGradGradGradGrad
 Berny optimization.
 Initialization pass.
                           ----------------------------
                           !    Initial Parameters    !
                           ! (Angstroms and Degrees)  !
 --------------------------                            --------------------------
 ! Name  Definition              Value          Derivative Info.                !
 --------------------------------------------------------------------------------
 ! R1    R(1,2)                  1.5312         estimate D2E/DX2                !
 ! R2    R(1,9)                  1.523          estimate D2E/DX2                !
 ! R3    R(1,10)                 1.0951         estimate D2E/DX2                !
 ! R4    R(1,11)                 1.4357         estimate D2E/DX2                !
 ! R5    R(2,3)                  1.5411         estimate D2E/DX2                !
 ! R6    R(2,4)                  1.4083         estimate D2E/DX2                !
 ! R7    R(2,5)                  1.0942         estimate D2E/DX2                !
 ! R8    R(3,6)                  1.4451         estimate D2E/DX2                !
 ! R9    R(3,7)                  1.1093         estimate D2E/DX2                !
 ! R10   R(3,8)                  1.485          estimate D2E/DX2                !
 ! R11   R(4,18)                 0.9665         estimate D2E/DX2                !
 ! R12   R(6,9)                  1.4288         estimate D2E/DX2                !
 ! R13   R(8,20)                 1.3923         estimate D2E/DX2                !
 ! R14   R(8,24)                 1.4274         estimate D2E/DX2                !
 ! R15   R(9,12)                 1.5249         estimate D2E/DX2                !
 ! R16   R(9,13)                 1.1059         estimate D2E/DX2                !
 ! R17   R(11,17)                0.9634         estimate D2E/DX2                !
 ! R18   R(12,14)                1.3974         estimate D2E/DX2                !
 ! R19   R(12,15)                1.1035         estimate D2E/DX2                !
 ! R20   R(12,16)                1.1066         estimate D2E/DX2                !
 ! R21   R(14,19)                0.9917         estimate D2E/DX2                !
 ! R22   R(20,21)                1.3294         estimate D2E/DX2                !
 ! R23   R(20,25)                1.0991         estimate D2E/DX2                !
 ! R24   R(21,22)                1.3649         estimate D2E/DX2                !
 ! R25   R(22,23)                1.405          estimate D2E/DX2                !
 ! R26   R(22,27)                1.2337         estimate D2E/DX2                !
 ! R27   R(23,24)                1.3779         estimate D2E/DX2                !
 ! R28   R(23,26)                1.0116         estimate D2E/DX2                !
 ! R29   R(24,28)                1.254          estimate D2E/DX2                !
 ! A1    A(2,1,9)              102.7949         estimate D2E/DX2                !
 ! A2    A(2,1,10)             112.8478         estimate D2E/DX2                !
 ! A3    A(2,1,11)             109.7959         estimate D2E/DX2                !
 ! A4    A(9,1,10)             113.1905         estimate D2E/DX2                !
 ! A5    A(9,1,11)             112.1596         estimate D2E/DX2                !
 ! A6    A(10,1,11)            106.1591         estimate D2E/DX2                !
 ! A7    A(1,2,3)              102.0808         estimate D2E/DX2                !
 ! A8    A(1,2,4)              113.0406         estimate D2E/DX2                !
 ! A9    A(1,2,5)              109.8435         estimate D2E/DX2                !
 ! A10   A(3,2,4)              113.828          estimate D2E/DX2                !
 ! A11   A(3,2,5)              109.9244         estimate D2E/DX2                !
 ! A12   A(4,2,5)              108.0176         estimate D2E/DX2                !
 ! A13   A(2,3,6)              104.9363         estimate D2E/DX2                !
 ! A14   A(2,3,7)              107.0686         estimate D2E/DX2                !
 ! A15   A(2,3,8)              117.2666         estimate D2E/DX2                !
 ! A16   A(6,3,7)              108.6343         estimate D2E/DX2                !
 ! A17   A(6,3,8)              111.3058         estimate D2E/DX2                !
 ! A18   A(7,3,8)              107.3236         estimate D2E/DX2                !
 ! A19   A(2,4,18)             105.5057         estimate D2E/DX2                !
 ! A20   A(3,6,9)              111.2889         estimate D2E/DX2                !
 ! A21   A(3,8,20)             121.4505         estimate D2E/DX2                !
 ! A22   A(3,8,24)             121.9508         estimate D2E/DX2                !
 ! A23   A(20,8,24)            116.593          estimate D2E/DX2                !
 ! A24   A(1,9,6)              105.9908         estimate D2E/DX2                !
 ! A25   A(1,9,12)             114.231          estimate D2E/DX2                !
 ! A26   A(1,9,13)             109.7227         estimate D2E/DX2                !
 ! A27   A(6,9,12)             110.7394         estimate D2E/DX2                !
 ! A28   A(6,9,13)             108.2807         estimate D2E/DX2                !
 ! A29   A(12,9,13)            107.746          estimate D2E/DX2                !
 ! A30   A(1,11,17)            107.3812         estimate D2E/DX2                !
 ! A31   A(9,12,14)            114.4463         estimate D2E/DX2                !
 ! A32   A(9,12,15)            108.067          estimate D2E/DX2                !
 ! A33   A(9,12,16)            106.9757         estimate D2E/DX2                !
 ! A34   A(14,12,15)           107.3895         estimate D2E/DX2                !
 ! A35   A(14,12,16)           112.1043         estimate D2E/DX2                !
 ! A36   A(15,12,16)           107.6018         estimate D2E/DX2                !
 ! A37   A(12,14,19)           109.2505         estimate D2E/DX2                !
 ! A38   A(8,20,21)            128.5521         estimate D2E/DX2                !
 ! A39   A(8,20,25)            116.7362         estimate D2E/DX2                !
 ! A40   A(21,20,25)           114.7109         estimate D2E/DX2                !
 ! A41   A(20,21,22)           116.6943         estimate D2E/DX2                !
 ! A42   A(21,22,23)           116.9391         estimate D2E/DX2                !
 ! A43   A(21,22,27)           125.0549         estimate D2E/DX2                !
 ! A44   A(23,22,27)           118.0056         estimate D2E/DX2                !
 ! A45   A(22,23,24)           127.7528         estimate D2E/DX2                !
 ! A46   A(22,23,26)           115.8662         estimate D2E/DX2                !
 ! A47   A(24,23,26)           116.3803         estimate D2E/DX2                !
 ! A48   A(8,24,23)            113.4601         estimate D2E/DX2                !
 ! A49   A(8,24,28)            128.0088         estimate D2E/DX2                !
 ! A50   A(23,24,28)           118.5311         estimate D2E/DX2                !
 ! D1    D(9,1,2,3)            -35.4098         estimate D2E/DX2                !
 ! D2    D(9,1,2,4)           -158.0924         estimate D2E/DX2                !
 ! D3    D(9,1,2,5)             81.1887         estimate D2E/DX2                !
 ! D4    D(10,1,2,3)          -157.6781         estimate D2E/DX2                !
 ! D5    D(10,1,2,4)            79.6393         estimate D2E/DX2                !
 ! D6    D(10,1,2,5)           -41.0796         estimate D2E/DX2                !
 ! D7    D(11,1,2,3)            84.1169         estimate D2E/DX2                !
 ! D8    D(11,1,2,4)           -38.5657         estimate D2E/DX2                !
 ! D9    D(11,1,2,5)          -159.2846         estimate D2E/DX2                !
 ! D10   D(2,1,9,6)             28.8497         estimate D2E/DX2                !
 ! D11   D(2,1,9,12)           -93.3545         estimate D2E/DX2                !
 ! D12   D(2,1,9,13)           145.5528         estimate D2E/DX2                !
 ! D13   D(10,1,9,6)           150.8864         estimate D2E/DX2                !
 ! D14   D(10,1,9,12)           28.6822         estimate D2E/DX2                !
 ! D15   D(10,1,9,13)          -92.4105         estimate D2E/DX2                !
 ! D16   D(11,1,9,6)           -89.0214         estimate D2E/DX2                !
 ! D17   D(11,1,9,12)          148.7744         estimate D2E/DX2                !
 ! D18   D(11,1,9,13)           27.6817         estimate D2E/DX2                !
 ! D19   D(2,1,11,17)          -76.2741         estimate D2E/DX2                !
 ! D20   D(9,1,11,17)           37.3502         estimate D2E/DX2                !
 ! D21   D(10,1,11,17)         161.4539         estimate D2E/DX2                !
 ! D22   D(1,2,3,6)             29.9534         estimate D2E/DX2                !
 ! D23   D(1,2,3,7)            -85.3774         estimate D2E/DX2                !
 ! D24   D(1,2,3,8)            154.0471         estimate D2E/DX2                !
 ! D25   D(4,2,3,6)            152.0985         estimate D2E/DX2                !
 ! D26   D(4,2,3,7)             36.7678         estimate D2E/DX2                !
 ! D27   D(4,2,3,8)            -83.8078         estimate D2E/DX2                !
 ! D28   D(5,2,3,6)            -86.5866         estimate D2E/DX2                !
 ! D29   D(5,2,3,7)            158.0826         estimate D2E/DX2                !
 ! D30   D(5,2,3,8)             37.5071         estimate D2E/DX2                !
 ! D31   D(1,2,4,18)            32.2453         estimate D2E/DX2                !
 ! D32   D(3,2,4,18)           -83.6328         estimate D2E/DX2                !
 ! D33   D(5,2,4,18)           153.9968         estimate D2E/DX2                !
 ! D34   D(2,3,6,9)            -12.7213         estimate D2E/DX2                !
 ! D35   D(7,3,6,9)            101.5174         estimate D2E/DX2                !
 ! D36   D(8,3,6,9)           -140.526          estimate D2E/DX2                !
 ! D37   D(2,3,8,20)           123.7381         estimate D2E/DX2                !
 ! D38   D(2,3,8,24)           -57.1588         estimate D2E/DX2                !
 ! D39   D(6,3,8,20)          -115.4484         estimate D2E/DX2                !
 ! D40   D(6,3,8,24)            63.6546         estimate D2E/DX2                !
 ! D41   D(7,3,8,20)             3.2965         estimate D2E/DX2                !
 ! D42   D(7,3,8,24)          -177.6004         estimate D2E/DX2                !
 ! D43   D(3,6,9,1)            -10.2102         estimate D2E/DX2                !
 ! D44   D(3,6,9,12)           114.1942         estimate D2E/DX2                !
 ! D45   D(3,6,9,13)          -127.8801         estimate D2E/DX2                !
 ! D46   D(3,8,20,21)         -179.7286         estimate D2E/DX2                !
 ! D47   D(3,8,20,25)           -0.0653         estimate D2E/DX2                !
 ! D48   D(24,8,20,21)           1.1225         estimate D2E/DX2                !
 ! D49   D(24,8,20,25)        -179.2142         estimate D2E/DX2                !
 ! D50   D(3,8,24,23)          179.9162         estimate D2E/DX2                !
 ! D51   D(3,8,24,28)            0.009          estimate D2E/DX2                !
 ! D52   D(20,8,24,23)          -0.9395         estimate D2E/DX2                !
 ! D53   D(20,8,24,28)         179.1534         estimate D2E/DX2                !
 ! D54   D(1,9,12,14)           44.3889         estimate D2E/DX2                !
 ! D55   D(1,9,12,15)          -75.1898         estimate D2E/DX2                !
 ! D56   D(1,9,12,16)          169.2057         estimate D2E/DX2                !
 ! D57   D(6,9,12,14)          -75.1787         estimate D2E/DX2                !
 ! D58   D(6,9,12,15)          165.2426         estimate D2E/DX2                !
 ! D59   D(6,9,12,16)           49.6381         estimate D2E/DX2                !
 ! D60   D(13,9,12,14)         166.5698         estimate D2E/DX2                !
 ! D61   D(13,9,12,15)          46.9911         estimate D2E/DX2                !
 ! D62   D(13,9,12,16)         -68.6134         estimate D2E/DX2                !
 ! D63   D(9,12,14,19)          62.0326         estimate D2E/DX2                !
 ! D64   D(15,12,14,19)       -178.01           estimate D2E/DX2                !
 ! D65   D(16,12,14,19)        -60.0264         estimate D2E/DX2                !
 ! D66   D(8,20,21,22)          -0.5197         estimate D2E/DX2                !
 ! D67   D(25,20,21,22)        179.8113         estimate D2E/DX2                !
 ! D68   D(20,21,22,23)         -0.1672         estimate D2E/DX2                !
 ! D69   D(20,21,22,27)       -179.9497         estimate D2E/DX2                !
 ! D70   D(21,22,23,24)          0.2055         estimate D2E/DX2                !
 ! D71   D(21,22,23,26)       -179.5009         estimate D2E/DX2                !
 ! D72   D(27,22,23,24)       -179.9961         estimate D2E/DX2                !
 ! D73   D(27,22,23,26)          0.2976         estimate D2E/DX2                !
 ! D74   D(22,23,24,8)           0.3779         estimate D2E/DX2                !
 ! D75   D(22,23,24,28)       -179.7054         estimate D2E/DX2                !
 ! D76   D(26,23,24,8)        -179.9171         estimate D2E/DX2                !
 ! D77   D(26,23,24,28)         -0.0003         estimate D2E/DX2                !
 --------------------------------------------------------------------------------
 Trust Radius=3.00D-01 FncErr=1.00D-07 GrdErr=1.00D-06 EigMax=2.50D+02 EigMin=1.00D-04
 Number of steps in this run=    166 maximum allowed number of steps=    168.
 GradGradGradGradGradGradGradGradGradGradGradGradGradGradGradGradGradGrad

                          Input orientation:                          
 ---------------------------------------------------------------------
 Center     Atomic      Atomic             Coordinates (Angstroms)
 Number     Number       Type             X           Y           Z
 ---------------------------------------------------------------------
      1          6           0       -2.761830   -0.443715    0.269927
      2          6           0       -1.375685   -0.736317    0.850963
      3          6           0       -0.500369   -0.793830   -0.416179
      4          8           0       -1.338650   -1.914260    1.622000
      5          1           0       -1.056618    0.094793    1.487162
      6          8           0       -1.139622    0.103340   -1.351501
      7          1           0       -0.569308   -1.827441   -0.812881
      8          6           0        0.941749   -0.474643   -0.261946
      9          6           0       -2.447892    0.468727   -0.908373
     10          1           0       -3.440975    0.011217    0.998657
     11          8           0       -3.383781   -1.669430   -0.144977
     12          6           0       -2.511394    1.956933   -0.581811
     13          1           0       -3.160096    0.273585   -1.731632
     14          8           0       -1.896005    2.311696    0.621561
     15          1           0       -3.573738    2.245776   -0.506653
     16          1           0       -2.078335    2.496058   -1.445756
     17          1           0       -2.972655   -1.934171   -0.975027
     18          1           0       -1.983034   -2.509240    1.215923
     19          1           0       -0.929993    2.092916    0.571738
     20          6           0        1.930629   -1.372067   -0.656099
     21          7           0        3.250889   -1.236323   -0.579576
     22          6           0        3.717566   -0.064982   -0.057044
     23          7           0        2.758328    0.880083    0.343707
     24          6           0        1.386472    0.769639    0.277991
     25          1           0        1.590843   -2.325457   -1.084493
     26          1           0        3.122036    1.745224    0.721277
     27          8           0        4.908783    0.223101    0.084076
     28          8           0        0.688258    1.729547    0.682367
 ---------------------------------------------------------------------
                    Distance matrix (angstroms):
                    1          2          3          4          5
     1  C    0.000000
     2  C    1.531214   0.000000
     3  C    2.389043   1.541147   0.000000
     4  O    2.452763   1.408339   2.472297   0.000000
     5  H    2.163192   1.094211   2.172964   2.033228   0.000000
     6  O    2.357935   2.368881   1.445125   3.598893   2.839889
     7  H    2.809684   2.146898   1.109269   2.555009   3.036882
     8  C    3.741703   2.584094   1.485050   3.289676   2.716083
     9  C    1.522990   2.386844   2.372583   3.648538   2.795364
    10  H    1.095102   2.201373   3.361105   2.918182   2.435319
    11  O    1.435739   2.427972   3.025606   2.713800   3.345452
    12  C    2.559548   3.255192   3.411503   4.606327   3.140794
    13  H    2.163186   3.297548   3.153401   4.398997   3.849314
    14  O    2.909569   3.100603   3.559353   4.378382   2.523588
    15  H    2.914727   3.945559   4.323539   5.180027   3.864960
    16  H    3.471743   4.027019   3.791223   5.423022   3.925810
    17  H    1.953412   2.705440   2.779368   3.068374   3.721595
    18  H    2.401630   1.909273   2.793686   0.966504   2.777194
    19  H    3.143440   2.877702   3.081211   4.162633   2.201484
    20  C    4.872221   3.688784   2.510313   4.021429   3.958395
    21  N    6.123943   4.868432   3.780798   5.135212   4.959626
    22  C    6.498686   5.216931   4.295483   5.639534   5.020252
    23  N    5.677150   4.467675   3.741459   5.121290   4.059308
    24  C    4.322118   3.197767   2.546856   4.054129   2.808238
    25  H    4.931650   3.882222   2.676881   4.009503   4.413623
    26  H    6.294049   5.138517   4.567540   5.839593   4.557593
    27  O    7.701785   6.403369   5.526602   6.779671   6.129529
    28  O    4.098327   3.220058   2.997844   4.274178   2.522837
                    6          7          8          9         10
     6  O    0.000000
     7  H    2.084055   0.000000
     8  C    2.419359   2.101639   0.000000
     9  C    1.428790   2.968263   3.577357   0.000000
    10  H    3.290586   3.861192   4.586224   2.198248   0.000000
    11  O    3.103975   2.896950   4.489032   2.455683   2.033653
    12  C    2.431047   4.259880   4.235454   1.524937   2.673539
    13  H    2.062959   3.459855   4.420968   1.105925   2.757210
    14  O    3.056456   4.577139   4.073956   2.458010   2.796665
    15  H    3.350928   5.070648   5.277327   2.141684   2.697562
    16  H    2.571996   4.622806   4.398565   2.129653   3.742510
    17  H    2.766441   2.411174   4.238073   2.460434   2.810567
    18  H    3.758801   2.565057   3.857206   3.687413   2.919846
    19  H    2.775105   4.173304   3.284936   2.670718   3.289493
    20  C    3.476615   2.545905   1.392340   4.756428   5.788421
    21  N    4.654799   3.872694   2.452177   5.957467   6.987719
    22  C    5.029535   4.696258   2.813355   6.246797   7.236368
    23  N    4.321004   4.443146   2.345646   5.370442   6.294064
    24  C    3.079018   3.429271   1.427427   4.024966   4.939515
    25  H    3.664122   2.233393   2.126833   4.914251   5.926108
    26  H    5.015368   5.361305   3.263156   5.942163   6.793882
    27  O    6.217590   5.917663   4.042763   7.427379   8.402369
    28  O    3.181558   4.058251   2.411315   3.735714   4.483666
                   11         12         13         14         15
    11  O    0.000000
    12  C    3.755315   0.000000
    13  H    2.518495   2.139290   0.000000
    14  O    4.318613   1.397378   3.359961   0.000000
    15  H    3.936462   1.103474   2.358222   2.022869   0.000000
    16  H    4.554943   1.106615   2.488236   2.083515   1.783476
    17  H    0.963377   3.938029   2.341318   4.662151   4.248839
    18  H    2.125893   4.843316   4.221098   4.858216   5.301678
    19  H    4.548627   1.962141   3.686304   0.991729   2.859315
    20  C    5.347207   5.551516   5.457144   5.463117   6.588564
    21  N    6.662980   6.587928   6.686388   6.365665   7.661975
    22  C    7.280873   6.569891   7.086685   6.133619   7.661910
    23  N    6.668158   5.457670   6.301001   4.877452   6.533245
    24  C    5.374316   4.164407   4.995592   3.642888   5.234341
    25  H    5.104894   5.951462   5.453919   6.047472   6.921197
    26  H    7.398372   5.786052   6.902729   5.050898   6.825815
    27  O    8.508863   7.649092   8.270801   7.138365   8.740328
    28  O    5.368337   3.447843   4.770434   2.649719   4.454758
                   16         17         18         19         20
    16  H    0.000000
    17  H    4.544043   0.000000
    18  H    5.669799   2.471905   0.000000
    19  H    2.356161   4.773089   4.764841   0.000000
    20  C    5.626521   4.945692   4.484907   4.657988   0.000000
    21  N    6.563655   6.275020   5.677859   5.467095   1.329424
    22  C    6.486903   7.006826   6.331799   5.162528   2.293574
    23  N    5.404337   6.519452   5.893113   3.889302   2.599399
    24  C    4.237536   5.280401   4.794198   2.683907   2.399070
    25  H    6.069628   4.581550   4.254208   5.349742   1.099058
    26  H    5.683629   7.318514   6.663849   4.069667   3.610280
    27  O    7.505101   8.239696   7.499594   6.150230   3.458587
    28  O    3.573581   5.438021   5.038631   1.662231   3.599304
                   21         22         23         24         25
    21  N    0.000000
    22  C    1.364869   0.000000
    23  N    2.360983   1.404951   0.000000
    24  C    2.869731   2.498568   1.377863   0.000000
    25  H    2.048635   3.269304   3.698414   3.387883   0.000000
    26  H    3.255525   2.058467   1.011589   2.039718   4.709119
    27  O    2.306288   1.233655   2.263513   3.569731   4.343895
    28  O    4.117762   3.597745   2.263066   1.253972   4.514367
                   26         27         28
    26  H    0.000000
    27  O    2.432149   0.000000
    28  O    2.434140   4.521080   0.000000
 Stoichiometry    C9H11N2O6(2)
 Framework group  C1[X(C9H11N2O6)]
 Deg. of freedom    78
 Full point group                 C1      NOp   1
 Largest Abelian subgroup         C1      NOp   1
 Largest concise Abelian subgroup C1      NOp   1
                         Standard orientation:                         
 ---------------------------------------------------------------------
 Center     Atomic      Atomic             Coordinates (Angstroms)
 Number     Number       Type             X           Y           Z
 ---------------------------------------------------------------------
      1          6           0       -2.761830   -0.443715    0.269927
      2          6           0       -1.375685   -0.736317    0.850963
      3          6           0       -0.500369   -0.793830   -0.416179
      4          8           0       -1.338650   -1.914260    1.622000
      5          1           0       -1.056618    0.094793    1.487162
      6          8           0       -1.139622    0.103340   -1.351501
      7          1           0       -0.569308   -1.827441   -0.812881
      8          6           0        0.941749   -0.474643   -0.261946
      9          6           0       -2.447892    0.468727   -0.908373
     10          1           0       -3.440975    0.011217    0.998657
     11          8           0       -3.383781   -1.669430   -0.144977
     12          6           0       -2.511394    1.956933   -0.581811
     13          1           0       -3.160096    0.273585   -1.731632
     14          8           0       -1.896005    2.311696    0.621561
     15          1           0       -3.573738    2.245776   -0.506653
     16          1           0       -2.078335    2.496058   -1.445756
     17          1           0       -2.972655   -1.934171   -0.975027
     18          1           0       -1.983034   -2.509240    1.215923
     19          1           0       -0.929993    2.092916    0.571738
     20          6           0        1.930629   -1.372067   -0.656099
     21          7           0        3.250889   -1.236323   -0.579576
     22          6           0        3.717566   -0.064982   -0.057044
     23          7           0        2.758328    0.880083    0.343707
     24          6           0        1.386472    0.769639    0.277991
     25          1           0        1.590843   -2.325457   -1.084493
     26          1           0        3.122036    1.745224    0.721277
     27          8           0        4.908783    0.223101    0.084076
     28          8           0        0.688258    1.729547    0.682367
 ---------------------------------------------------------------------
 Rotational constants (GHZ):           0.9305670           0.3061700           0.2635368
 Standard basis: Aug-CC-pVDZ (5D, 7F)
 There are   524 symmetry adapted cartesian basis functions of A   symmetry.
 There are   490 symmetry adapted basis functions of A   symmetry.
   490 basis functions,   852 primitive gaussians,   524 cartesian basis functions
    64 alpha electrons       63 beta electrons
       nuclear repulsion energy      1308.0251248650 Hartrees.
 NAtoms=   28 NActive=   28 NUniq=   28 SFac= 1.00D+00 NAtFMM=   60 NAOKFM=F Big=F
 Integral buffers will be    131072 words long.
 Raffenetti 2 integral format.
 Two-electron integral symmetry is turned on.
 Nuclear repulsion after empirical dispersion term =     1308.0050124348 Hartrees.
 One-electron integrals computed using PRISM.
 NBasis=   490 RedAO= T EigKep=  2.94D-06  NBF=   490
 NBsUse=   490 1.00D-06 EigRej= -1.00D+00 NBFU=   490
 ExpMin= 2.97D-02 ExpMax= 1.17D+04 ExpMxC= 4.01D+02 IAcc=3 IRadAn=         5 AccDes= 0.00D+00
 Harris functional with IExCor= 1009 and IRadAn=       5 diagonalized for initial guess.
 HarFok:  IExCor= 1009 AccDes= 0.00D+00 IRadAn=         5 IDoV= 1 UseB2=F ITyADJ=14
 ICtDFT=  3500011 ScaDFX=  1.000000  1.000000  1.000000  1.000000
 FoFCou: FMM=F IPFlag=           0 FMFlag=      100000 FMFlg1=           0
         NFxFlg=           0 DoJE=T BraDBF=F KetDBF=T FulRan=T
         wScrn=  0.000000 ICntrl=       500 IOpCl=  0 I1Cent=   200000004 NGrid=           0
         NMat0=    1 NMatS0=      1 NMatT0=    0 NMatD0=    1 NMtDS0=    0 NMtDT0=    0
 Petite list used in FoFCou.
 Initial guess <Sx>= 0.0000 <Sy>= 0.0000 <Sz>= 0.5000 <S**2>= 0.7500 S= 0.5000
 Requested convergence on RMS density matrix=1.00D-08 within 128 cycles.
 Requested convergence on MAX density matrix=1.00D-06.
 Requested convergence on             energy=1.00D-06.
 No special actions if energy rises.
 Restarting incremental Fock formation.
 SCF Done:  E(UPBE1PBE) =  -909.554289148     A.U. after   23 cycles
            NFock= 23  Conv=0.30D-08     -V/T= 2.0054
 <Sx>= 0.0000 <Sy>= 0.0000 <Sz>= 0.5000 <S**2>= 0.7843 S= 0.5170
 <L.S>= 0.000000000000E+00
 Annihilation of the first spin contaminant:
 S**2 before annihilation     0.7843,   after     0.7507

 **********************************************************************

            Population analysis using the SCF Density.

 **********************************************************************

 Orbital symmetries:
 Alpha Orbitals:
       Occupied  (A) (A) (A) (A) (A) (A) (A) (A) (A) (A) (A) (A)
                 (A) (A) (A) (A) (A) (A) (A) (A) (A) (A) (A) (A)
                 (A) (A) (A) (A) (A) (A) (A) (A) (A) (A) (A) (A)
                 (A) (A) (A) (A) (A) (A) (A) (A) (A) (A) (A) (A)
                 (A) (A) (A) (A) (A) (A) (A) (A) (A) (A) (A) (A)
                 (A) (A) (A) (A)
       Virtual   (A) (A) (A) (A) (A) (A) (A) (A) (A) (A) (A) (A)
                 (A) (A) (A) (A) (A) (A) (A) (A) (A) (A) (A) (A)
                 (A) (A) (A) (A) (A) (A) (A) (A) (A) (A) (A) (A)
                 (A) (A) (A) (A) (A) (A) (A) (A) (A) (A) (A) (A)
                 (A) (A) (A) (A) (A) (A) (A) (A) (A) (A) (A) (A)
                 (A) (A) (A) (A) (A) (A) (A) (A) (A) (A) (A) (A)
                 (A) (A) (A) (A) (A) (A) (A) (A) (A) (A) (A) (A)
                 (A) (A) (A) (A) (A) (A) (A) (A) (A) (A) (A) (A)
                 (A) (A) (A) (A) (A) (A) (A) (A) (A) (A) (A) (A)
                 (A) (A) (A) (A) (A) (A) (A) (A) (A) (A) (A) (A)
                 (A) (A) (A) (A) (A) (A) (A) (A) (A) (A) (A) (A)
                 (A) (A) (A) (A) (A) (A) (A) (A) (A) (A) (A) (A)
                 (A) (A) (A) (A) (A) (A) (A) (A) (A) (A) (A) (A)
                 (A) (A) (A) (A) (A) (A) (A) (A) (A) (A) (A) (A)
                 (A) (A) (A) (A) (A) (A) (A) (A) (A) (A) (A) (A)
                 (A) (A) (A) (A) (A) (A) (A) (A) (A) (A) (A) (A)
                 (A) (A) (A) (A) (A) (A) (A) (A) (A) (A) (A) (A)
                 (A) (A) (A) (A) (A) (A) (A) (A) (A) (A) (A) (A)
                 (A) (A) (A) (A) (A) (A) (A) (A) (A) (A) (A) (A)
                 (A) (A) (A) (A) (A) (A) (A) (A) (A) (A) (A) (A)
                 (A) (A) (A) (A) (A) (A) (A) (A) (A) (A) (A) (A)
                 (A) (A) (A) (A) (A) (A) (A) (A) (A) (A) (A) (A)
                 (A) (A) (A) (A) (A) (A) (A) (A) (A) (A) (A) (A)
                 (A) (A) (A) (A) (A) (A) (A) (A) (A) (A) (A) (A)
                 (A) (A) (A) (A) (A) (A) (A) (A) (A) (A) (A) (A)
                 (A) (A) (A) (A) (A) (A) (A) (A) (A) (A) (A) (A)
                 (A) (A) (A) (A) (A) (A) (A) (A) (A) (A) (A) (A)
                 (A) (A) (A) (A) (A) (A) (A) (A) (A) (A) (A) (A)
                 (A) (A) (A) (A) (A) (A) (A) (A) (A) (A) (A) (A)
                 (A) (A) (A) (A) (A) (A) (A) (A) (A) (A) (A) (A)
                 (A) (A) (A) (A) (A) (A) (A) (A) (A) (A) (A) (A)
                 (A) (A) (A) (A) (A) (A) (A) (A) (A) (A) (A) (A)
                 (A) (A) (A) (A) (A) (A) (A) (A) (A) (A) (A) (A)
                 (A) (A) (A) (A) (A) (A) (A) (A) (A) (A) (A) (A)
                 (A) (A) (A) (A) (A) (A) (A) (A) (A) (A) (A) (A)
                 (A) (A) (A) (A) (A) (A)
 Beta  Orbitals:
       Occupied  (A) (A) (A) (A) (A) (A) (A) (A) (A) (A) (A) (A)
                 (A) (A) (A) (A) (A) (A) (A) (A) (A) (A) (A) (A)
                 (A) (A) (A) (A) (A) (A) (A) (A) (A) (A) (A) (A)
                 (A) (A) (A) (A) (A) (A) (A) (A) (A) (A) (A) (A)
                 (A) (A) (A) (A) (A) (A) (A) (A) (A) (A) (A) (A)
                 (A) (A) (A)
       Virtual   (A) (A) (A) (A) (A) (A) (A) (A) (A) (A) (A) (A)
                 (A) (A) (A) (A) (A) (A) (A) (A) (A) (A) (A) (A)
                 (A) (A) (A) (A) (A) (A) (A) (A) (A) (A) (A) (A)
                 (A) (A) (A) (A) (A) (A) (A) (A) (A) (A) (A) (A)
                 (A) (A) (A) (A) (A) (A) (A) (A) (A) (A) (A) (A)
                 (A) (A) (A) (A) (A) (A) (A) (A) (A) (A) (A) (A)
                 (A) (A) (A) (A) (A) (A) (A) (A) (A) (A) (A) (A)
                 (A) (A) (A) (A) (A) (A) (A) (A) (A) (A) (A) (A)
                 (A) (A) (A) (A) (A) (A) (A) (A) (A) (A) (A) (A)
                 (A) (A) (A) (A) (A) (A) (A) (A) (A) (A) (A) (A)
                 (A) (A) (A) (A) (A) (A) (A) (A) (A) (A) (A) (A)
                 (A) (A) (A) (A) (A) (A) (A) (A) (A) (A) (A) (A)
                 (A) (A) (A) (A) (A) (A) (A) (A) (A) (A) (A) (A)
                 (A) (A) (A) (A) (A) (A) (A) (A) (A) (A) (A) (A)
                 (A) (A) (A) (A) (A) (A) (A) (A) (A) (A) (A) (A)
                 (A) (A) (A) (A) (A) (A) (A) (A) (A) (A) (A) (A)
                 (A) (A) (A) (A) (A) (A) (A) (A) (A) (A) (A) (A)
                 (A) (A) (A) (A) (A) (A) (A) (A) (A) (A) (A) (A)
                 (A) (A) (A) (A) (A) (A) (A) (A) (A) (A) (A) (A)
                 (A) (A) (A) (A) (A) (A) (A) (A) (A) (A) (A) (A)
                 (A) (A) (A) (A) (A) (A) (A) (A) (A) (A) (A) (A)
                 (A) (A) (A) (A) (A) (A) (A) (A) (A) (A) (A) (A)
                 (A) (A) (A) (A) (A) (A) (A) (A) (A) (A) (A) (A)
                 (A) (A) (A) (A) (A) (A) (A) (A) (A) (A) (A) (A)
                 (A) (A) (A) (A) (A) (A) (A) (A) (A) (A) (A) (A)
                 (A) (A) (A) (A) (A) (A) (A) (A) (A) (A) (A) (A)
                 (A) (A) (A) (A) (A) (A) (A) (A) (A) (A) (A) (A)
                 (A) (A) (A) (A) (A) (A) (A) (A) (A) (A) (A) (A)
                 (A) (A) (A) (A) (A) (A) (A) (A) (A) (A) (A) (A)
                 (A) (A) (A) (A) (A) (A) (A) (A) (A) (A) (A) (A)
                 (A) (A) (A) (A) (A) (A) (A) (A) (A) (A) (A) (A)
                 (A) (A) (A) (A) (A) (A) (A) (A) (A) (A) (A) (A)
                 (A) (A) (A) (A) (A) (A) (A) (A) (A) (A) (A) (A)
                 (A) (A) (A) (A) (A) (A) (A) (A) (A) (A) (A) (A)
                 (A) (A) (A) (A) (A) (A) (A) (A) (A) (A) (A) (A)
                 (A) (A) (A) (A) (A) (A) (A)
 The electronic state is 2-A.
 Alpha  occ. eigenvalues --  -19.27113 -19.26814 -19.25615 -19.25310 -19.25194
 Alpha  occ. eigenvalues --  -19.21282 -14.48310 -14.46545 -10.40309 -10.39678
 Alpha  occ. eigenvalues --  -10.33981 -10.33672 -10.33042 -10.31563 -10.31426
 Alpha  occ. eigenvalues --  -10.30719 -10.28481  -1.14155  -1.12609  -1.11514
 Alpha  occ. eigenvalues --   -1.09440  -1.07622  -1.04818  -1.03442  -0.97789
 Alpha  occ. eigenvalues --   -0.89565  -0.82360  -0.80444  -0.73953  -0.72417
 Alpha  occ. eigenvalues --   -0.69679  -0.66429  -0.64062  -0.61495  -0.60740
 Alpha  occ. eigenvalues --   -0.57504  -0.56045  -0.55534  -0.54033  -0.53316
 Alpha  occ. eigenvalues --   -0.51494  -0.50538  -0.48876  -0.48478  -0.48262
 Alpha  occ. eigenvalues --   -0.47017  -0.46718  -0.45916  -0.44065  -0.42538
 Alpha  occ. eigenvalues --   -0.42288  -0.41192  -0.38274  -0.37232  -0.36285
 Alpha  occ. eigenvalues --   -0.35610  -0.34705  -0.34187  -0.34043  -0.33023
 Alpha  occ. eigenvalues --   -0.32554  -0.31189  -0.29625  -0.27877
 Alpha virt. eigenvalues --   -0.07817  -0.03597  -0.02355  -0.00280   0.00038
 Alpha virt. eigenvalues --    0.00432   0.01543   0.02746   0.02785   0.03016
 Alpha virt. eigenvalues --    0.03618   0.04490   0.04863   0.05460   0.05967
 Alpha virt. eigenvalues --    0.06159   0.06539   0.06918   0.07030   0.07666
 Alpha virt. eigenvalues --    0.07927   0.08404   0.08954   0.09292   0.09684
 Alpha virt. eigenvalues --    0.09882   0.10071   0.10523   0.10606   0.11064
 Alpha virt. eigenvalues --    0.11268   0.11590   0.11911   0.12352   0.12916
 Alpha virt. eigenvalues --    0.13432   0.13578   0.13940   0.14167   0.14644
 Alpha virt. eigenvalues --    0.14763   0.15010   0.15397   0.16015   0.16531
 Alpha virt. eigenvalues --    0.16949   0.17459   0.17947   0.18369   0.18547
 Alpha virt. eigenvalues --    0.18762   0.18924   0.19899   0.20533   0.20726
 Alpha virt. eigenvalues --    0.20955   0.21078   0.21641   0.21818   0.22025
 Alpha virt. eigenvalues --    0.22381   0.22977   0.23247   0.23704   0.24002
 Alpha virt. eigenvalues --    0.24236   0.24594   0.24955   0.25159   0.25709
 Alpha virt. eigenvalues --    0.26131   0.26385   0.26743   0.27092   0.27220
 Alpha virt. eigenvalues --    0.27342   0.27677   0.27786   0.27982   0.28465
 Alpha virt. eigenvalues --    0.28847   0.29726   0.29914   0.30457   0.30718
 Alpha virt. eigenvalues --    0.31265   0.31839   0.32040   0.32256   0.32377
 Alpha virt. eigenvalues --    0.32803   0.33476   0.33634   0.34171   0.34829
 Alpha virt. eigenvalues --    0.35166   0.35261   0.35631   0.35972   0.36690
 Alpha virt. eigenvalues --    0.37514   0.37986   0.38136   0.38390   0.38926
 Alpha virt. eigenvalues --    0.39468   0.39968   0.40513   0.41340   0.42119
 Alpha virt. eigenvalues --    0.42242   0.42841   0.43736   0.44255   0.44754
 Alpha virt. eigenvalues --    0.45165   0.45699   0.45849   0.46405   0.46879
 Alpha virt. eigenvalues --    0.47081   0.48365   0.48583   0.49612   0.50154
 Alpha virt. eigenvalues --    0.50607   0.51195   0.51549   0.52046   0.52655
 Alpha virt. eigenvalues --    0.52745   0.53888   0.54342   0.54842   0.55345
 Alpha virt. eigenvalues --    0.55858   0.56227   0.56753   0.57209   0.57868
 Alpha virt. eigenvalues --    0.57994   0.59074   0.59500   0.60319   0.60559
 Alpha virt. eigenvalues --    0.60968   0.61879   0.62127   0.62596   0.63289
 Alpha virt. eigenvalues --    0.63675   0.63916   0.64506   0.64861   0.65031
 Alpha virt. eigenvalues --    0.65707   0.66069   0.66963   0.67128   0.67770
 Alpha virt. eigenvalues --    0.68099   0.68665   0.69436   0.69741   0.70317
 Alpha virt. eigenvalues --    0.71074   0.71753   0.72320   0.72888   0.73794
 Alpha virt. eigenvalues --    0.74145   0.74900   0.75213   0.76036   0.76644
 Alpha virt. eigenvalues --    0.77219   0.77735   0.78434   0.79291   0.79605
 Alpha virt. eigenvalues --    0.80520   0.81149   0.81626   0.83013   0.83493
 Alpha virt. eigenvalues --    0.84198   0.84574   0.85263   0.85839   0.86952
 Alpha virt. eigenvalues --    0.87095   0.87576   0.88398   0.89007   0.90348
 Alpha virt. eigenvalues --    0.90649   0.91406   0.92041   0.92803   0.94715
 Alpha virt. eigenvalues --    0.94788   0.96078   0.96439   0.97842   0.98970
 Alpha virt. eigenvalues --    0.99484   1.00320   1.01652   1.02099   1.03241
 Alpha virt. eigenvalues --    1.04079   1.05093   1.05182   1.06108   1.06873
 Alpha virt. eigenvalues --    1.07445   1.08573   1.08799   1.09953   1.11132
 Alpha virt. eigenvalues --    1.12118   1.12547   1.13505   1.14242   1.15416
 Alpha virt. eigenvalues --    1.16466   1.17128   1.17278   1.18360   1.19223
 Alpha virt. eigenvalues --    1.21319   1.22230   1.22729   1.23140   1.23833
 Alpha virt. eigenvalues --    1.25279   1.26189   1.26652   1.28200   1.29728
 Alpha virt. eigenvalues --    1.31023   1.31740   1.32505   1.33329   1.33396
 Alpha virt. eigenvalues --    1.35954   1.36314   1.37117   1.37901   1.39521
 Alpha virt. eigenvalues --    1.40130   1.40982   1.41496   1.42265   1.43009
 Alpha virt. eigenvalues --    1.45109   1.46015   1.46781   1.48059   1.48870
 Alpha virt. eigenvalues --    1.50550   1.51043   1.51909   1.52845   1.53191
 Alpha virt. eigenvalues --    1.53692   1.55133   1.56672   1.57768   1.57925
 Alpha virt. eigenvalues --    1.59215   1.59299   1.61470   1.62055   1.62414
 Alpha virt. eigenvalues --    1.62943   1.64357   1.66254   1.66814   1.67499
 Alpha virt. eigenvalues --    1.68954   1.69437   1.70226   1.71936   1.72236
 Alpha virt. eigenvalues --    1.73914   1.75606   1.76251   1.76824   1.77192
 Alpha virt. eigenvalues --    1.78226   1.78445   1.79781   1.80405   1.81529
 Alpha virt. eigenvalues --    1.82950   1.83539   1.84918   1.85726   1.87062
 Alpha virt. eigenvalues --    1.87910   1.88996   1.89612   1.90544   1.92086
 Alpha virt. eigenvalues --    1.92945   1.94142   1.95062   1.95498   1.96273
 Alpha virt. eigenvalues --    1.98946   1.99562   2.00224   2.02001   2.02446
 Alpha virt. eigenvalues --    2.03171   2.04201   2.05289   2.05989   2.06063
 Alpha virt. eigenvalues --    2.07929   2.08822   2.09332   2.10828   2.11947
 Alpha virt. eigenvalues --    2.13433   2.14449   2.17339   2.17444   2.18409
 Alpha virt. eigenvalues --    2.20074   2.20876   2.21398   2.23005   2.23412
 Alpha virt. eigenvalues --    2.24122   2.24673   2.28350   2.29514   2.31421
 Alpha virt. eigenvalues --    2.33297   2.34435   2.35594   2.37409   2.38492
 Alpha virt. eigenvalues --    2.38897   2.39652   2.40644   2.42719   2.42967
 Alpha virt. eigenvalues --    2.43956   2.45614   2.46384   2.48229   2.49137
 Alpha virt. eigenvalues --    2.50647   2.53274   2.53883   2.54696   2.57556
 Alpha virt. eigenvalues --    2.59632   2.60387   2.61592   2.62923   2.63985
 Alpha virt. eigenvalues --    2.65908   2.68767   2.71298   2.72417   2.73798
 Alpha virt. eigenvalues --    2.77348   2.79468   2.81566   2.81835   2.87100
 Alpha virt. eigenvalues --    2.88217   2.90044   2.91510   2.92959   2.95155
 Alpha virt. eigenvalues --    2.98256   2.99280   3.04055   3.12051   3.15303
 Alpha virt. eigenvalues --    3.17062   3.20314   3.23205   3.29948   3.32605
 Alpha virt. eigenvalues --    3.37010   3.37933   3.39041   3.39996   3.41020
 Alpha virt. eigenvalues --    3.44579   3.44857   3.46537   3.48338   3.49176
 Alpha virt. eigenvalues --    3.50894   3.51533   3.52810   3.54417   3.55520
 Alpha virt. eigenvalues --    3.56984   3.59819   3.59831   3.61947   3.64050
 Alpha virt. eigenvalues --    3.64716   3.67156   3.69519   3.71627   3.74857
 Alpha virt. eigenvalues --    3.77944   3.79315   3.82716   3.85371   3.93262
 Alpha virt. eigenvalues --    3.99364   4.07744   4.12433   4.19254   4.26044
 Alpha virt. eigenvalues --    4.61137
  Beta  occ. eigenvalues --  -19.26995 -19.26810 -19.25307 -19.25173 -19.24645
  Beta  occ. eigenvalues --  -19.21277 -14.48328 -14.45762 -10.40487 -10.39777
  Beta  occ. eigenvalues --  -10.34270 -10.33721 -10.32228 -10.31490 -10.31412
  Beta  occ. eigenvalues --  -10.30722 -10.28481  -1.13515  -1.12374  -1.10796
  Beta  occ. eigenvalues --   -1.09308  -1.07580  -1.04772  -1.02340  -0.97188
  Beta  occ. eigenvalues --   -0.88026  -0.82245  -0.80088  -0.73836  -0.72276
  Beta  occ. eigenvalues --   -0.69380  -0.66289  -0.63939  -0.61140  -0.60479
  Beta  occ. eigenvalues --   -0.57362  -0.55825  -0.55391  -0.53875  -0.52169
  Beta  occ. eigenvalues --   -0.51095  -0.50305  -0.48698  -0.48122  -0.47934
  Beta  occ. eigenvalues --   -0.46581  -0.46472  -0.44275  -0.43837  -0.42401
  Beta  occ. eigenvalues --   -0.42203  -0.38686  -0.38208  -0.37113  -0.36000
  Beta  occ. eigenvalues --   -0.35000  -0.34163  -0.33529  -0.32635  -0.32281
  Beta  occ. eigenvalues --   -0.31290  -0.30293  -0.27815
  Beta virt. eigenvalues --   -0.20327  -0.06699  -0.02356  -0.01778  -0.00237
  Beta virt. eigenvalues --    0.00090   0.00472   0.01544   0.02775   0.02848
  Beta virt. eigenvalues --    0.03063   0.03637   0.04523   0.04897   0.05734
  Beta virt. eigenvalues --    0.06042   0.06446   0.06649   0.07014   0.07225
  Beta virt. eigenvalues --    0.07890   0.07956   0.08507   0.08995   0.09306
  Beta virt. eigenvalues --    0.09727   0.09959   0.10096   0.10608   0.10736
  Beta virt. eigenvalues --    0.11154   0.11317   0.11683   0.12000   0.12472
  Beta virt. eigenvalues --    0.13028   0.13474   0.13628   0.14154   0.14275
  Beta virt. eigenvalues --    0.14733   0.14826   0.15083   0.15432   0.16298
  Beta virt. eigenvalues --    0.16603   0.17124   0.17576   0.18097   0.18411
  Beta virt. eigenvalues --    0.18597   0.18880   0.19003   0.19944   0.20582
  Beta virt. eigenvalues --    0.20802   0.21012   0.21205   0.21688   0.22024
  Beta virt. eigenvalues --    0.22129   0.22421   0.23008   0.23293   0.23771
  Beta virt. eigenvalues --    0.24190   0.24411   0.24649   0.25010   0.25300
  Beta virt. eigenvalues --    0.25762   0.26251   0.26437   0.26900   0.27209
  Beta virt. eigenvalues --    0.27293   0.27450   0.27742   0.27879   0.28149
  Beta virt. eigenvalues --    0.28589   0.28945   0.29875   0.30008   0.30555
  Beta virt. eigenvalues --    0.30762   0.31307   0.31932   0.32090   0.32294
  Beta virt. eigenvalues --    0.32441   0.32887   0.33585   0.33759   0.34308
  Beta virt. eigenvalues --    0.34900   0.35217   0.35390   0.35675   0.36035
  Beta virt. eigenvalues --    0.36875   0.37609   0.38047   0.38223   0.38480
  Beta virt. eigenvalues --    0.38986   0.39513   0.40115   0.40617   0.41459
  Beta virt. eigenvalues --    0.42264   0.42387   0.43034   0.43862   0.44340
  Beta virt. eigenvalues --    0.44859   0.45265   0.45780   0.45991   0.46493
  Beta virt. eigenvalues --    0.46927   0.47126   0.48425   0.48664   0.49705
  Beta virt. eigenvalues --    0.50291   0.50676   0.51331   0.51589   0.52126
  Beta virt. eigenvalues --    0.52768   0.52821   0.53998   0.54409   0.54943
  Beta virt. eigenvalues --    0.55428   0.56038   0.56364   0.56924   0.57324
  Beta virt. eigenvalues --    0.58051   0.58244   0.59163   0.59673   0.60425
  Beta virt. eigenvalues --    0.60618   0.61110   0.61981   0.62290   0.62823
  Beta virt. eigenvalues --    0.63494   0.63779   0.64034   0.64613   0.64935
  Beta virt. eigenvalues --    0.65184   0.65885   0.66180   0.66993   0.67232
  Beta virt. eigenvalues --    0.67870   0.68174   0.68832   0.69508   0.69866
  Beta virt. eigenvalues --    0.70421   0.71178   0.71900   0.72435   0.72906
  Beta virt. eigenvalues --    0.74011   0.74274   0.75073   0.75274   0.76133
  Beta virt. eigenvalues --    0.76952   0.77271   0.77887   0.78566   0.79300
  Beta virt. eigenvalues --    0.79691   0.80733   0.81242   0.81884   0.83190
  Beta virt. eigenvalues --    0.83596   0.84339   0.84636   0.85490   0.85999
  Beta virt. eigenvalues --    0.87029   0.87207   0.87729   0.88487   0.89298
  Beta virt. eigenvalues --    0.90516   0.90836   0.91598   0.92191   0.93052
  Beta virt. eigenvalues --    0.94967   0.95098   0.96585   0.96934   0.98009
  Beta virt. eigenvalues --    0.99184   0.99706   1.00784   1.01812   1.02275
  Beta virt. eigenvalues --    1.03473   1.04296   1.05247   1.05467   1.06476
  Beta virt. eigenvalues --    1.06980   1.07636   1.08822   1.08976   1.10082
  Beta virt. eigenvalues --    1.11401   1.12239   1.12773   1.13703   1.14406
  Beta virt. eigenvalues --    1.15639   1.16586   1.17273   1.17483   1.18472
  Beta virt. eigenvalues --    1.19309   1.21482   1.22362   1.22829   1.23431
  Beta virt. eigenvalues --    1.23903   1.25462   1.26433   1.26699   1.28270
  Beta virt. eigenvalues --    1.29903   1.31196   1.31935   1.32904   1.33449
  Beta virt. eigenvalues --    1.33586   1.36337   1.36592   1.37398   1.38028
  Beta virt. eigenvalues --    1.39638   1.40506   1.41145   1.41738   1.42545
  Beta virt. eigenvalues --    1.43463   1.45391   1.46333   1.46935   1.48193
  Beta virt. eigenvalues --    1.49168   1.50876   1.51207   1.52250   1.53084
  Beta virt. eigenvalues --    1.53608   1.53860   1.55222   1.56987   1.57984
  Beta virt. eigenvalues --    1.58058   1.59423   1.59546   1.61584   1.62354
  Beta virt. eigenvalues --    1.62571   1.63130   1.64515   1.66566   1.66981
  Beta virt. eigenvalues --    1.67604   1.69082   1.69551   1.70645   1.72155
  Beta virt. eigenvalues --    1.72327   1.74188   1.75768   1.76488   1.77097
  Beta virt. eigenvalues --    1.77423   1.78372   1.78597   1.79883   1.80441
  Beta virt. eigenvalues --    1.81659   1.83051   1.83647   1.84999   1.85821
  Beta virt. eigenvalues --    1.87246   1.87997   1.89170   1.89840   1.90696
  Beta virt. eigenvalues --    1.92181   1.93258   1.94236   1.95313   1.95686
  Beta virt. eigenvalues --    1.96720   1.99162   1.99817   2.00369   2.02146
  Beta virt. eigenvalues --    2.02769   2.03323   2.04370   2.05444   2.06114
  Beta virt. eigenvalues --    2.06296   2.08078   2.09000   2.09444   2.10945
  Beta virt. eigenvalues --    2.12048   2.13530   2.14651   2.17435   2.17594
  Beta virt. eigenvalues --    2.18565   2.20207   2.20985   2.21717   2.23163
  Beta virt. eigenvalues --    2.23603   2.24306   2.24922   2.28711   2.29642
  Beta virt. eigenvalues --    2.31722   2.33494   2.34585   2.35883   2.37764
  Beta virt. eigenvalues --    2.38687   2.39302   2.40069   2.40920   2.42809
  Beta virt. eigenvalues --    2.43327   2.44164   2.45724   2.46672   2.48500
  Beta virt. eigenvalues --    2.49650   2.51214   2.53364   2.53986   2.54825
  Beta virt. eigenvalues --    2.57829   2.59835   2.61111   2.62016   2.63031
  Beta virt. eigenvalues --    2.64039   2.66079   2.68914   2.71378   2.72497
  Beta virt. eigenvalues --    2.73881   2.77490   2.79553   2.81611   2.81916
  Beta virt. eigenvalues --    2.87171   2.88342   2.90537   2.91587   2.93097
  Beta virt. eigenvalues --    2.95303   2.98355   2.99698   3.04243   3.12311
  Beta virt. eigenvalues --    3.15419   3.17137   3.20493   3.23793   3.30145
  Beta virt. eigenvalues --    3.34318   3.37360   3.39150   3.40003   3.40839
  Beta virt. eigenvalues --    3.41309   3.44759   3.45433   3.46587   3.48496
  Beta virt. eigenvalues --    3.49349   3.51010   3.51767   3.53006   3.54943
  Beta virt. eigenvalues --    3.55615   3.57063   3.59893   3.60130   3.62103
  Beta virt. eigenvalues --    3.64219   3.64977   3.67310   3.69675   3.71807
  Beta virt. eigenvalues --    3.75384   3.78284   3.79723   3.82946   3.85674
  Beta virt. eigenvalues --    3.93538   3.99611   4.08214   4.12473   4.19277
  Beta virt. eigenvalues --    4.26153   4.61265
          Condensed to atoms (all electrons):
               1          2          3          4          5          6
     1  C    8.213517  -1.775329   0.984194   0.054129  -0.035924   0.030853
     2  C   -1.775329   8.914110  -3.687724  -0.390256  -0.249511   0.181983
     3  C    0.984194  -3.687724  21.891473   0.409354  -0.703943  -1.164849
     4  O    0.054129  -0.390256   0.409354   8.574668  -0.186897  -0.014568
     5  H   -0.035924  -0.249511  -0.703943  -0.186897   2.318253   0.048034
     6  O    0.030853   0.181983  -1.164849  -0.014568   0.048034   9.472741
     7  H   -0.166829   0.570335  -2.181016  -0.042074   0.150668   0.068074
     8  C   -0.165521   0.822292  -5.189882  -0.098109   0.236872   0.213806
     9  C   -1.231261   1.181540  -3.877906  -0.082772   0.131026   0.236415
    10  H   -0.698607   0.105845   0.367626   0.047735  -0.120643  -0.030522
    11  O   -0.283035   0.112817  -0.159006  -0.040293   0.009077   0.043439
    12  C   -0.187313  -0.053063   0.530136  -0.007808   0.014913  -0.020412
    13  H    0.251813  -0.090733   0.654692   0.005928  -0.019298  -0.318178
    14  O   -0.052567  -0.028009  -0.140939   0.007300  -0.011585  -0.009859
    15  H   -0.048203   0.063342  -0.046125  -0.001564   0.019196   0.096531
    16  H    0.057845  -0.050104  -0.010858  -0.000338  -0.005583  -0.037520
    17  H   -0.124123  -0.048577   0.099603   0.002513   0.006229  -0.016883
    18  H    0.002973  -0.083404  -0.049300   0.312286   0.057123   0.006593
    19  H    0.000368  -0.009213   0.058520   0.002448   0.005329   0.015483
    20  C    0.060829  -0.496526  -1.298095   0.040091  -0.010940  -0.053161
    21  N   -0.008144   0.031335   0.138850  -0.002635  -0.000016   0.003191
    22  C   -0.003100   0.017883  -0.615104   0.001930   0.009358   0.009377
    23  N    0.030192  -0.077771   0.583457  -0.006354   0.005206  -0.036627
    24  C   -0.127837   0.060692  -1.514627   0.052094  -0.170259   0.074392
    25  H   -0.032511   0.114068  -0.118552  -0.001707   0.012959   0.045021
    26  H   -0.001666   0.001068  -0.020918   0.000602   0.000553  -0.000307
    27  O   -0.000421  -0.000204   0.022963  -0.000111  -0.000029   0.000125
    28  O    0.009799   0.030782   0.107393  -0.010256   0.048917  -0.015416
               7          8          9         10         11         12
     1  C   -0.166829  -0.165521  -1.231261  -0.698607  -0.283035  -0.187313
     2  C    0.570335   0.822292   1.181540   0.105845   0.112817  -0.053063
     3  C   -2.181016  -5.189882  -3.877906   0.367626  -0.159006   0.530136
     4  O   -0.042074  -0.098109  -0.082772   0.047735  -0.040293  -0.007808
     5  H    0.150668   0.236872   0.131026  -0.120643   0.009077   0.014913
     6  O    0.068074   0.213806   0.236415  -0.030522   0.043439  -0.020412
     7  H    2.842344   0.345323   0.171979   0.002109  -0.001185  -0.009133
     8  C    0.345323  14.020381   0.937580  -0.078683   0.041334  -0.202540
     9  C    0.171979   0.937580   9.195108  -0.320256   0.264844  -0.367552
    10  H    0.002109  -0.078683  -0.320256   2.241709  -0.195042   0.013597
    11  O   -0.001185   0.041334   0.264844  -0.195042   8.641003  -0.039890
    12  C   -0.009133  -0.202540  -0.367552   0.013597  -0.039890   5.091428
    13  H    0.020329  -0.159880  -1.063327   0.058909  -0.085654   0.029526
    14  O    0.003515   0.063659   0.145351   0.036900   0.005828   0.005433
    15  H   -0.010876   0.007801  -0.049148  -0.051665   0.009857   0.224094
    16  H    0.009695   0.015903   0.169365   0.031774  -0.004267   0.059653
    17  H    0.000242   0.002098  -0.041323   0.028357   0.313846   0.007963
    18  H   -0.004560   0.011259  -0.004689  -0.010009   0.013987   0.003200
    19  H   -0.006550  -0.045143  -0.054739  -0.010116  -0.001609   0.013062
    20  C    0.052988  -3.096126  -0.023190   0.006705  -0.007461  -0.029947
    21  N   -0.019724   0.145946  -0.014977  -0.000536   0.000553   0.005756
    22  C   -0.004112   0.124330   0.024687   0.000031   0.000119  -0.015176
    23  N   -0.005367  -0.181738   0.029181   0.000371  -0.000057  -0.023276
    24  C   -0.028931  -3.518720  -0.217575   0.030281  -0.003233   0.034162
    25  H   -0.032206   0.207196   0.023813  -0.000737   0.000893  -0.000412
    26  H    0.002575   0.211921   0.000564   0.000199  -0.000008  -0.000432
    27  O    0.000429   0.002244   0.000080  -0.000052   0.000002   0.000361
    28  O    0.000058   0.100334   0.022332  -0.006648   0.000794  -0.002589
              13         14         15         16         17         18
     1  C    0.251813  -0.052567  -0.048203   0.057845  -0.124123   0.002973
     2  C   -0.090733  -0.028009   0.063342  -0.050104  -0.048577  -0.083404
     3  C    0.654692  -0.140939  -0.046125  -0.010858   0.099603  -0.049300
     4  O    0.005928   0.007300  -0.001564  -0.000338   0.002513   0.312286
     5  H   -0.019298  -0.011585   0.019196  -0.005583   0.006229   0.057123
     6  O   -0.318178  -0.009859   0.096531  -0.037520  -0.016883   0.006593
     7  H    0.020329   0.003515  -0.010876   0.009695   0.000242  -0.004560
     8  C   -0.159880   0.063659   0.007801   0.015903   0.002098   0.011259
     9  C   -1.063327   0.145351  -0.049148   0.169365  -0.041323  -0.004689
    10  H    0.058909   0.036900  -0.051665   0.031774   0.028357  -0.010009
    11  O   -0.085654   0.005828   0.009857  -0.004267   0.313846   0.013987
    12  C    0.029526   0.005433   0.224094   0.059653   0.007963   0.003200
    13  H    2.353728   0.025348  -0.176344  -0.003839  -0.002873  -0.002009
    14  O    0.025348   8.576996  -0.180319  -0.054736  -0.000929  -0.002435
    15  H   -0.176344  -0.180319   1.780175  -0.360966   0.006708   0.001227
    16  H   -0.003839  -0.054736  -0.360966   1.440434  -0.001379  -0.000485
    17  H   -0.002873  -0.000929   0.006708  -0.001379   0.624824   0.006916
    18  H   -0.002009  -0.002435   0.001227  -0.000485   0.006916   0.643685
    19  H    0.018313   0.150625   0.014531  -0.055682  -0.000536  -0.000284
    20  C    0.007251   0.010419  -0.006346   0.000828   0.011321  -0.002411
    21  N   -0.001309  -0.000368   0.000371   0.000184   0.000781   0.000652
    22  C   -0.000135   0.002070  -0.000709   0.000167   0.001247  -0.000156
    23  N    0.001106  -0.011636  -0.001593  -0.001382  -0.000198   0.000121
    24  C    0.000137   0.047246  -0.005618   0.026006   0.007030  -0.008635
    25  H   -0.000870   0.000807   0.000295   0.000004   0.000070   0.001037
    26  H    0.000116   0.000474  -0.000168   0.000213  -0.000025  -0.000118
    27  O   -0.000013  -0.000008   0.000025   0.000052  -0.000018   0.000031
    28  O    0.001904  -0.071386  -0.001447  -0.000144   0.000057   0.000481
              19         20         21         22         23         24
     1  C    0.000368   0.060829  -0.008144  -0.003100   0.030192  -0.127837
     2  C   -0.009213  -0.496526   0.031335   0.017883  -0.077771   0.060692
     3  C    0.058520  -1.298095   0.138850  -0.615104   0.583457  -1.514627
     4  O    0.002448   0.040091  -0.002635   0.001930  -0.006354   0.052094
     5  H    0.005329  -0.010940  -0.000016   0.009358   0.005206  -0.170259
     6  O    0.015483  -0.053161   0.003191   0.009377  -0.036627   0.074392
     7  H   -0.006550   0.052988  -0.019724  -0.004112  -0.005367  -0.028931
     8  C   -0.045143  -3.096126   0.145946   0.124330  -0.181738  -3.518720
     9  C   -0.054739  -0.023190  -0.014977   0.024687   0.029181  -0.217575
    10  H   -0.010116   0.006705  -0.000536   0.000031   0.000371   0.030281
    11  O   -0.001609  -0.007461   0.000553   0.000119  -0.000057  -0.003233
    12  C    0.013062  -0.029947   0.005756  -0.015176  -0.023276   0.034162
    13  H    0.018313   0.007251  -0.001309  -0.000135   0.001106   0.000137
    14  O    0.150625   0.010419  -0.000368   0.002070  -0.011636   0.047246
    15  H    0.014531  -0.006346   0.000371  -0.000709  -0.001593  -0.005618
    16  H   -0.055682   0.000828   0.000184   0.000167  -0.001382   0.026006
    17  H   -0.000536   0.011321   0.000781   0.001247  -0.000198   0.007030
    18  H   -0.000284  -0.002411   0.000652  -0.000156   0.000121  -0.008635
    19  H    0.571541   0.022171  -0.001548  -0.001595   0.001357  -0.018192
    20  C    0.022171  13.478353  -0.603472  -0.502904   0.329737  -1.841365
    21  N   -0.001548  -0.603472   7.872648  -0.078457  -0.008063   0.160969
    22  C   -0.001595  -0.502904  -0.078457   6.362591  -0.062208   0.086759
    23  N    0.001357   0.329737  -0.008063  -0.062208   7.950758  -1.093224
    24  C   -0.018192  -1.841365   0.160969   0.086759  -1.093224  13.680630
    25  H   -0.002018  -0.552993  -0.024580  -0.000133  -0.038054   0.077334
    26  H   -0.004188  -0.170430   0.029266  -0.165996   0.391349  -0.231164
    27  O    0.000363   0.035628  -0.048314   0.070614  -0.159543   0.084602
    28  O    0.005243  -0.061882   0.002455  -0.004519  -0.201738  -0.191313
              25         26         27         28
     1  C   -0.032511  -0.001666  -0.000421   0.009799
     2  C    0.114068   0.001068  -0.000204   0.030782
     3  C   -0.118552  -0.020918   0.022963   0.107393
     4  O   -0.001707   0.000602  -0.000111  -0.010256
     5  H    0.012959   0.000553  -0.000029   0.048917
     6  O    0.045021  -0.000307   0.000125  -0.015416
     7  H   -0.032206   0.002575   0.000429   0.000058
     8  C    0.207196   0.211921   0.002244   0.100334
     9  C    0.023813   0.000564   0.000080   0.022332
    10  H   -0.000737   0.000199  -0.000052  -0.006648
    11  O    0.000893  -0.000008   0.000002   0.000794
    12  C   -0.000412  -0.000432   0.000361  -0.002589
    13  H   -0.000870   0.000116  -0.000013   0.001904
    14  O    0.000807   0.000474  -0.000008  -0.071386
    15  H    0.000295  -0.000168   0.000025  -0.001447
    16  H    0.000004   0.000213   0.000052  -0.000144
    17  H    0.000070  -0.000025  -0.000018   0.000057
    18  H    0.001037  -0.000118   0.000031   0.000481
    19  H   -0.002018  -0.004188   0.000363   0.005243
    20  C   -0.552993  -0.170430   0.035628  -0.061882
    21  N   -0.024580   0.029266  -0.048314   0.002455
    22  C   -0.000133  -0.165996   0.070614  -0.004519
    23  N   -0.038054   0.391349  -0.159543  -0.201738
    24  C    0.077334  -0.231164   0.084602  -0.191313
    25  H    1.957287  -0.003937   0.002026  -0.006383
    26  H   -0.003937   1.051563  -0.003209  -0.027172
    27  O    0.002026  -0.003209   8.563007  -0.005016
    28  O   -0.006383  -0.027172  -0.005016   9.194629
          Atomic-Atomic Spin Densities.
               1          2          3          4          5          6
     1  C    0.022893  -0.000166  -0.011880   0.001584  -0.014396   0.012594
     2  C   -0.000166   0.060141   0.062919  -0.011143   0.015486  -0.028525
     3  C   -0.011880   0.062919  -0.104236  -0.019269   0.028657  -0.091255
     4  O    0.001584  -0.011143  -0.019269   0.015497  -0.002420   0.005177
     5  H   -0.014396   0.015486   0.028657  -0.002420  -0.003499  -0.007646
     6  O    0.012594  -0.028525  -0.091255   0.005177  -0.007646   0.092856
     7  H   -0.005701   0.000333  -0.011107   0.000244   0.000273   0.003787
     8  C    0.013873  -0.045394  -0.057678   0.016779  -0.021975   0.012824
     9  C   -0.017695  -0.007976  -0.063873   0.003504   0.001331   0.002481
    10  H   -0.005925  -0.005378   0.005658   0.000775   0.002123  -0.001490
    11  O   -0.000296  -0.000309   0.001295  -0.000410   0.000765  -0.001413
    12  C    0.001457   0.002143   0.014633  -0.000616   0.000225  -0.001789
    13  H    0.006958   0.000821  -0.011102   0.000323  -0.001292   0.004501
    14  O    0.002284  -0.000371  -0.002261   0.000117  -0.000779   0.001457
    15  H   -0.000380   0.000349   0.000165  -0.000008   0.000078   0.000117
    16  H   -0.000253   0.000140   0.001134  -0.000010   0.000078  -0.000633
    17  H   -0.000857  -0.000070   0.000373  -0.000038   0.000157   0.000104
    18  H   -0.001157   0.000224  -0.000075  -0.000681   0.000406  -0.000137
    19  H    0.001803  -0.000050  -0.007911   0.000216  -0.001368   0.002410
    20  C    0.008322  -0.008482   0.014709   0.004028  -0.002103   0.021408
    21  N    0.000040  -0.000200   0.014570  -0.000785   0.001202  -0.001619
    22  C   -0.000474  -0.000337   0.010055   0.000036  -0.000784   0.000953
    23  N   -0.000980  -0.000142   0.003932  -0.000312   0.001577  -0.000991
    24  C   -0.004691   0.004383   0.160440  -0.000642   0.000167  -0.011335
    25  H    0.000793  -0.000650  -0.005890   0.001335  -0.000481   0.003998
    26  H   -0.000075   0.000040   0.000799  -0.000018  -0.000048  -0.000064
    27  O    0.000009   0.000205  -0.001468   0.000020  -0.000101  -0.000001
    28  O   -0.000394  -0.000946  -0.001958  -0.000112   0.000563   0.006639
               7          8          9         10         11         12
     1  C   -0.005701   0.013873  -0.017695  -0.005925  -0.000296   0.001457
     2  C    0.000333  -0.045394  -0.007976  -0.005378  -0.000309   0.002143
     3  C   -0.011107  -0.057678  -0.063873   0.005658   0.001295   0.014633
     4  O    0.000244   0.016779   0.003504   0.000775  -0.000410  -0.000616
     5  H    0.000273  -0.021975   0.001331   0.002123   0.000765   0.000225
     6  O    0.003787   0.012824   0.002481  -0.001490  -0.001413  -0.001789
     7  H    0.004593  -0.012497  -0.000809   0.000037   0.000804   0.000671
     8  C   -0.012497   0.476100   0.016181  -0.002015  -0.000839  -0.001506
     9  C   -0.000809   0.016181   0.056063   0.001673   0.000141  -0.014127
    10  H    0.000037  -0.002015   0.001673   0.008242   0.000192  -0.000075
    11  O    0.000804  -0.000839   0.000141   0.000192   0.000883   0.000122
    12  C    0.000671  -0.001506  -0.014127  -0.000075   0.000122   0.002869
    13  H   -0.001417   0.002499   0.000278  -0.000931   0.000159   0.000110
    14  O   -0.000173   0.001141   0.000340  -0.000661  -0.000065  -0.000737
    15  H    0.000049   0.000135  -0.000897   0.000115   0.000005   0.000560
    16  H    0.000044  -0.000511   0.000916   0.000002   0.000018  -0.000284
    17  H   -0.000190  -0.000469   0.000360   0.000338   0.000279  -0.000012
    18  H   -0.000020   0.000189   0.000372   0.000180   0.000232  -0.000038
    19  H   -0.000287   0.003633   0.000418  -0.000432  -0.000059  -0.000291
    20  C    0.020434   0.364832   0.005658   0.000044  -0.000034  -0.000315
    21  N    0.002618  -0.017972  -0.001109   0.000002  -0.000013   0.000125
    22  C    0.000099  -0.019631   0.001238  -0.000035   0.000018   0.000172
    23  N    0.000068  -0.031117  -0.001263  -0.000080   0.000015   0.000556
    24  C   -0.002860   0.062379   0.006604  -0.000017  -0.000035  -0.002941
    25  H    0.003485   0.049275   0.002069  -0.000014  -0.000078  -0.000248
    26  H    0.000044   0.002709   0.000115   0.000001   0.000001  -0.000038
    27  O   -0.000096   0.005909   0.000002   0.000002  -0.000000  -0.000009
    28  O   -0.000860  -0.009350   0.001022  -0.000074   0.000038  -0.000215
              13         14         15         16         17         18
     1  C    0.006958   0.002284  -0.000380  -0.000253  -0.000857  -0.001157
     2  C    0.000821  -0.000371   0.000349   0.000140  -0.000070   0.000224
     3  C   -0.011102  -0.002261   0.000165   0.001134   0.000373  -0.000075
     4  O    0.000323   0.000117  -0.000008  -0.000010  -0.000038  -0.000681
     5  H   -0.001292  -0.000779   0.000078   0.000078   0.000157   0.000406
     6  O    0.004501   0.001457   0.000117  -0.000633   0.000104  -0.000137
     7  H   -0.001417  -0.000173   0.000049   0.000044  -0.000190  -0.000020
     8  C    0.002499   0.001141   0.000135  -0.000511  -0.000469   0.000189
     9  C    0.000278   0.000340  -0.000897   0.000916   0.000360   0.000372
    10  H   -0.000931  -0.000661   0.000115   0.000002   0.000338   0.000180
    11  O    0.000159  -0.000065   0.000005   0.000018   0.000279   0.000232
    12  C    0.000110  -0.000737   0.000560  -0.000284  -0.000012  -0.000038
    13  H    0.003659   0.000074  -0.000186  -0.000335  -0.000046   0.000050
    14  O    0.000074   0.002324   0.000023   0.000102  -0.000004   0.000013
    15  H   -0.000186   0.000023  -0.000198   0.000014   0.000017   0.000000
    16  H   -0.000335   0.000102   0.000014  -0.000002   0.000002  -0.000002
    17  H   -0.000046  -0.000004   0.000017   0.000002  -0.000051   0.000012
    18  H    0.000050   0.000013   0.000000  -0.000002   0.000012  -0.000045
    19  H    0.000401   0.000465  -0.000052  -0.000044  -0.000031  -0.000010
    20  C   -0.000090   0.000656   0.000032   0.000055   0.000056   0.000119
    21  N   -0.000016  -0.000037  -0.000005  -0.000003  -0.000052  -0.000053
    22  C    0.000018  -0.000019   0.000022   0.000000  -0.000035   0.000038
    23  N   -0.000018   0.000189   0.000022  -0.000031   0.000018  -0.000015
    24  C   -0.000618  -0.001650  -0.000094  -0.000060   0.000062   0.000071
    25  H    0.000228   0.000043  -0.000003  -0.000006  -0.000079   0.000001
    26  H   -0.000002  -0.000065   0.000001  -0.000007  -0.000002  -0.000000
    27  O    0.000001   0.000002  -0.000001  -0.000000   0.000000   0.000003
    28  O    0.000297  -0.000397  -0.000010  -0.000244   0.000021  -0.000001
              19         20         21         22         23         24
     1  C    0.001803   0.008322   0.000040  -0.000474  -0.000980  -0.004691
     2  C   -0.000050  -0.008482  -0.000200  -0.000337  -0.000142   0.004383
     3  C   -0.007911   0.014709   0.014570   0.010055   0.003932   0.160440
     4  O    0.000216   0.004028  -0.000785   0.000036  -0.000312  -0.000642
     5  H   -0.001368  -0.002103   0.001202  -0.000784   0.001577   0.000167
     6  O    0.002410   0.021408  -0.001619   0.000953  -0.000991  -0.011335
     7  H   -0.000287   0.020434   0.002618   0.000099   0.000068  -0.002860
     8  C    0.003633   0.364832  -0.017972  -0.019631  -0.031117   0.062379
     9  C    0.000418   0.005658  -0.001109   0.001238  -0.001263   0.006604
    10  H   -0.000432   0.000044   0.000002  -0.000035  -0.000080  -0.000017
    11  O   -0.000059  -0.000034  -0.000013   0.000018   0.000015  -0.000035
    12  C   -0.000291  -0.000315   0.000125   0.000172   0.000556  -0.002941
    13  H    0.000401  -0.000090  -0.000016   0.000018  -0.000018  -0.000618
    14  O    0.000465   0.000656  -0.000037  -0.000019   0.000189  -0.001650
    15  H   -0.000052   0.000032  -0.000005   0.000022   0.000022  -0.000094
    16  H   -0.000044   0.000055  -0.000003   0.000000  -0.000031  -0.000060
    17  H   -0.000031   0.000056  -0.000052  -0.000035   0.000018   0.000062
    18  H   -0.000010   0.000119  -0.000053   0.000038  -0.000015   0.000071
    19  H    0.000516   0.000382   0.000031   0.000349  -0.000240   0.000218
    20  C    0.000382  -0.852014  -0.042716   0.072258  -0.001484   0.131948
    21  N    0.000031  -0.042716   0.456016   0.005917   0.002290  -0.000241
    22  C    0.000349   0.072258   0.005917  -0.204808   0.026244   0.004508
    23  N   -0.000240  -0.001484   0.002290   0.026244  -0.025577   0.029997
    24  C    0.000218   0.131948  -0.000241   0.004508   0.029997  -0.477671
    25  H    0.000096  -0.072309  -0.006684   0.001954  -0.002283   0.002781
    26  H   -0.000007   0.006194   0.000437  -0.004115  -0.001779  -0.004743
    27  O   -0.000025  -0.006417  -0.015710  -0.004430  -0.003560  -0.004726
    28  O   -0.002179   0.018142   0.000649  -0.001285   0.006773  -0.040773
              25         26         27         28
     1  C    0.000793  -0.000075   0.000009  -0.000394
     2  C   -0.000650   0.000040   0.000205  -0.000946
     3  C   -0.005890   0.000799  -0.001468  -0.001958
     4  O    0.001335  -0.000018   0.000020  -0.000112
     5  H   -0.000481  -0.000048  -0.000101   0.000563
     6  O    0.003998  -0.000064  -0.000001   0.006639
     7  H    0.003485   0.000044  -0.000096  -0.000860
     8  C    0.049275   0.002709   0.005909  -0.009350
     9  C    0.002069   0.000115   0.000002   0.001022
    10  H   -0.000014   0.000001   0.000002  -0.000074
    11  O   -0.000078   0.000001  -0.000000   0.000038
    12  C   -0.000248  -0.000038  -0.000009  -0.000215
    13  H    0.000228  -0.000002   0.000001   0.000297
    14  O    0.000043  -0.000065   0.000002  -0.000397
    15  H   -0.000003   0.000001  -0.000001  -0.000010
    16  H   -0.000006  -0.000007  -0.000000  -0.000244
    17  H   -0.000079  -0.000002   0.000000   0.000021
    18  H    0.000001  -0.000000   0.000003  -0.000001
    19  H    0.000096  -0.000007  -0.000025  -0.002179
    20  C   -0.072309   0.006194  -0.006417   0.018142
    21  N   -0.006684   0.000437  -0.015710   0.000649
    22  C    0.001954  -0.004115  -0.004430  -0.001285
    23  N   -0.002283  -0.001779  -0.003560   0.006773
    24  C    0.002781  -0.004743  -0.004726  -0.040773
    25  H    0.021071   0.000164  -0.000035   0.000559
    26  H    0.000164   0.001843  -0.000214  -0.003055
    27  O   -0.000035  -0.000214   0.282776   0.000044
    28  O    0.000559  -0.003055   0.000044   0.140103
 Mulliken charges and spin densities:
               1          2
     1  C    1.245879   0.007290
     2  C    0.832332   0.037046
     3  C    0.930583  -0.070626
     4  O   -0.625334   0.013169
     5  H   -0.559085  -0.003805
     6  O   -0.827756   0.024407
     7  H   -0.728100   0.001564
     8  C    1.226064   0.807503
     9  C    0.814852  -0.006983
    10  H   -0.448633   0.002257
    11  O   -0.637654   0.001416
    12  C    0.926258   0.000403
    13  H   -0.504638   0.004323
    14  O   -0.517193   0.002008
    15  H   -0.283062  -0.000126
    16  H   -0.224840   0.000082
    17  H    0.117059  -0.000134
    18  H    0.106927  -0.000324
    19  H    0.332057  -0.002048
    20  C    0.700927  -0.316685
    21  N   -0.580812   0.396682
    22  C    0.743142  -0.112075
    23  N   -0.414008   0.001808
    24  C    0.548360  -0.149539
    25  H   -0.627715  -0.000908
    26  H   -0.060726  -0.001885
    27  O   -0.565615   0.252180
    28  O   -0.919269   0.113000
 Sum of Mulliken charges =  -0.00000   1.00000
 Mulliken charges and spin densities with hydrogens summed into heavy atoms:
               1          2
     1  C    0.797247   0.009546
     2  C    0.273246   0.033241
     3  C    0.202483  -0.069062
     4  O   -0.518407   0.012845
     6  O   -0.827756   0.024407
     8  C    1.226064   0.807503
     9  C    0.310214  -0.002660
    11  O   -0.520595   0.001282
    12  C    0.418356   0.000360
    14  O   -0.185136  -0.000039
    20  C    0.073212  -0.317593
    21  N   -0.580812   0.396682
    22  C    0.743142  -0.112075
    23  N   -0.474734  -0.000077
    24  C    0.548360  -0.149539
    27  O   -0.565615   0.252180
    28  O   -0.919269   0.113000
 Electronic spatial extent (au):  <R**2>=           4118.1143
 Charge=             -0.0000 electrons
 Dipole moment (field-independent basis, Debye):
    X=             -2.5643    Y=             -1.7850    Z=             -2.4806  Tot=              3.9894
 Quadrupole moment (field-independent basis, Debye-Ang):
   XX=           -118.0956   YY=           -100.4101   ZZ=           -100.6621
   XY=              6.1572   XZ=              7.3123   YZ=              1.7509
 Traceless Quadrupole moment (field-independent basis, Debye-Ang):
   XX=            -11.7063   YY=              5.9792   ZZ=              5.7271
   XY=              6.1572   XZ=              7.3123   YZ=              1.7509
 Octapole moment (field-independent basis, Debye-Ang**2):
  XXX=           -146.9579  YYY=            -23.9475  ZZZ=             -0.5471  XYY=              6.1135
  XXY=             32.4173  XXZ=             -0.6855  XZZ=             -1.8233  YZZ=              2.1362
  YYZ=            -19.0131  XYZ=              2.1472
 Hexadecapole moment (field-independent basis, Debye-Ang**3):
 XXXX=          -4534.7583 YYYY=          -1071.4306 ZZZZ=           -449.3003 XXXY=             32.3061
 XXXZ=             60.6577 YYYX=            102.2033 YYYZ=             -6.1555 ZZZX=             18.6665
 ZZZY=             18.7644 XXYY=           -807.6466 XXZZ=           -658.2101 YYZZ=           -254.3785
 XXYZ=            -11.3492 YYXZ=             40.6258 ZZXY=             22.1005
 N-N= 1.308005012435D+03 E-N=-4.745296051707D+03  KE= 9.046400009389D+02
                          Isotropic Fermi Contact Couplings
        Atom                 a.u.       MegaHertz       Gauss      10(-4) cm-1
     1  C(13)              0.00028       0.31319       0.11175       0.10447
     2  C(13)              0.01021      11.47309       4.09388       3.82701
     3  C(13)             -0.01553     -17.45682      -6.22903      -5.82297
     4  O(17)              0.00151      -0.91544      -0.32665      -0.30536
     5  H(1)              -0.00050      -2.25692      -0.80533      -0.75283
     6  O(17)              0.01985     -12.03078      -4.29288      -4.01304
     7  H(1)               0.00116       5.19277       1.85291       1.73212
     8  C(13)              0.06948      78.10903      27.87124      26.05437
     9  C(13)             -0.00159      -1.78604      -0.63730      -0.59576
    10  H(1)               0.00126       5.61514       2.00362       1.87301
    11  O(17)              0.00027      -0.16441      -0.05866      -0.05484
    12  C(13)             -0.00013      -0.14497      -0.05173      -0.04836
    13  H(1)               0.00186       8.32101       2.96914       2.77559
    14  O(17)              0.00017      -0.10093      -0.03602      -0.03367
    15  H(1)              -0.00002      -0.11115      -0.03966      -0.03708
    16  H(1)               0.00007       0.32003       0.11419       0.10675
    17  H(1)              -0.00000      -0.00930      -0.00332      -0.00310
    18  H(1)              -0.00013      -0.60208      -0.21484      -0.20083
    19  H(1)              -0.00002      -0.07219      -0.02576      -0.02408
[...]
 002367,-0.00000341,-0.00001749,0.00001904,0.00002360,0.00000197,-0.000
 04639,0.00000251,-0.00002106,-0.00006769,-0.00034484,0.00004961,-0.000
 07169,-0.04328943,-0.02958704,-0.05232228,0.07879229,0.09084383,0.0928
 6449,-0.00032893,-0.00014331,-0.00025672,0.00040760,-0.00036801,0.0002
 2708,-0.00303535,0.00019817,0.00026020,0.00045203,0.00059894,-0.000379
 89,-0.00022333,0.00003248,0.00024099,0.00190931,-0.00040000,0.00012754
 ,0.00057798,0.00050029,0.00023020,0.02003721,-0.00648782,0.00101189,-0
 .00082743,0.00021264,0.00028562,0.00009582,-0.00001631,-0.00001309,0.0
 0052265,0.00036947,0.00019268,-0.00016326,0.00002507,-0.00039302,0.000
 24461,0.00002080,0.00005327,0.00093729,-0.00022833,0.00019828,0.000134
 89,-0.00002548,-0.00000828,-0.00007101,0.00000644,0.00006205,-0.000198
 45,-0.00012692,-0.00011058,-0.00014924,-0.00017127,0.00003650,-0.00133
 244,0.00040976,0.00005008,-0.06585514,-0.03357526,-0.01596006,-0.06066
 487,0.02253897,0.00812772,0.90689076,-0.00032055,-0.00038815,-0.002413
 93,0.00012094,-0.00079977,0.00638872,0.00383329,-0.00072043,-0.0067760
 0,0.00000180,0.00107608,-0.00111382,0.00053902,0.00019722,-0.00064967,
 0.00185555,-0.00299418,0.00109259,-0.00128810,-0.00038214,-0.00001458,
 0.00356424,-0.01646783,-0.00108256,-0.00055812,0.00060762,0.00065559,0
 .00059841,-0.00005448,0.00041574,0.00049614,0.00002964,0.00045604,0.00
 110808,0.00110675,0.00163807,0.00027502,-0.00019812,-0.00012037,-0.003
 40226,-0.00089376,-0.00090036,-0.00025895,-0.00019621,-0.00022358,0.00
 003148,-0.00013894,-0.00012906,-0.00020778,0.00010033,-0.00016670,-0.0
 0037652,-0.00020929,-0.00010024,0.00511640,-0.00032243,-0.00016134,-0.
 03039638,-0.00115079,-0.00202261,-0.03686327,-0.20596735,-0.03673708,0
 .04012810,0.52161613,-0.00006374,-0.00013424,-0.00056423,-0.00034773,-
 0.00060642,0.00167860,0.00035325,-0.00048318,-0.00081838,-0.00010857,0
 .00052290,-0.00048603,0.00030462,0.00006997,-0.00025447,0.00128771,-0.
 00091099,0.00028116,-0.00024489,-0.00032027,-0.00004069,0.00419803,-0.
 00364607,-0.00766818,-0.00050367,0.00024272,0.00053000,0.00014999,-0.0
 0000060,0.00007946,0.00008584,0.00002469,0.00001616,0.00029753,0.00033
 335,0.00052163,0.00016932,-0.00006248,-0.00008273,-0.00090495,-0.00021
 011,-0.00053185,-0.00006070,-0.00006879,-0.00009473,-0.00001363,-0.000
 00503,-0.00006322,-0.00007613,-0.00001006,-0.00001457,-0.00007387,-0.0
 0008034,0.00000669,0.00133135,-0.00023367,0.00044563,-0.01446445,-0.00
 107721,-0.00700571,-0.00772114,-0.03223443,-0.08630805,0.07211762,0.08
 837929,0.24147828,0.00035684,0.00027228,-0.00057740,-0.00004632,0.0007
 7244,0.00197517,0.00390348,-0.00072031,-0.00237446,-0.00026231,-0.0006
 7295,0.00004544,0.00037956,0.00035238,-0.00071681,-0.00033258,-0.00168
 949,-0.00030241,-0.00101840,-0.00060936,-0.00012968,-0.02686200,-0.023
 96472,-0.00947276,0.00062087,0.00029270,0.00022942,0.00017444,0.000038
 52,0.00009685,-0.00033196,-0.00061370,-0.00005704,0.00122378,0.0008608
 6,0.00228739,-0.00008532,-0.00021504,-0.00018018,-0.00476442,-0.000096
 45,-0.00105527,-0.00043738,-0.00014645,-0.00026647,0.00010269,-0.00008
 718,-0.00027435,0.00009399,0.00021058,0.00005861,0.00002051,0.00006224
 ,-0.00009696,0.00762768,-0.00166404,-0.00037696,-0.00714252,0.00127375
 ,-0.00011576,0.01691128,0.00143265,0.00160883,-0.14107452,0.02520122,-
 0.00319639,0.74293617,-0.00009853,-0.00010898,0.00048602,0.00084005,-0
 .00028177,-0.00207554,0.00120979,-0.00722916,-0.00081169,-0.00018289,0
 .00020498,0.00049097,-0.00021545,-0.00013112,0.00059899,-0.00030404,0.
 00221881,0.00014186,-0.00184446,-0.00025347,-0.00030041,-0.03744920,0.
 00261856,-0.00523063,0.00041851,-0.00034498,-0.00032274,-0.00023226,-0
 .00002241,-0.00007266,-0.00016434,0.00037004,0.00001202,-0.00078265,-0
 .00076826,-0.00145102,-0.00008574,0.00014414,0.00006882,0.00337998,0.0
 0026335,0.00073604,0.00024372,0.00014739,0.00024789,-0.00001799,0.0000
 7002,0.00016526,0.00022192,-0.00009680,0.00008244,0.00019460,0.0000682
 5,-0.00006021,-0.00488823,0.00099525,-0.00002482,0.01042016,-0.0015448
 3,0.00051742,0.00967366,-0.04874803,-0.01655672,0.05708028,-0.21620000
 ,-0.03805907,0.04492571,0.74427699,-0.00013539,0.00001011,0.00008675,0
 .00021473,0.00021632,-0.00036532,0.00034679,-0.00304617,0.00101167,-0.
 00005456,-0.00015428,0.00023267,-0.00019781,-0.00005558,0.00004374,0.0
 0003594,0.00086116,0.00020274,-0.00048152,0.00002057,-0.00020382,-0.01
 508973,-0.00513078,0.00807583,0.00029717,-0.00012360,-0.00017396,-0.00
 005964,-0.00002137,-0.00000927,-0.00004233,0.00008771,0.00004794,-0.00
 032568,-0.00016398,-0.00035619,-0.00007070,0.00001232,0.00004049,0.000
 79537,0.00012520,-0.00004340,0.00001560,0.00004534,0.00002698,-0.00000
 503,0.00000635,0.00002189,0.00008414,0.00000258,0.00001773,0.00008174,
 0.00002119,-0.00005499,-0.00102070,-0.00012693,0.00070340,0.00225839,-
 0.00052781,0.00019506,0.00327253,-0.01698947,0.00985434,0.00901821,-0.
 04445895,-0.06807535,0.07209270,0.21165108,0.13460542,-0.00108660,-0.0
 0055954,0.00029450,0.00065259,-0.00261917,-0.00295949,-0.00656658,-0.0
 3513512,-0.00854469,0.00048206,0.00204584,0.00009579,-0.00172685,-0.00
 048664,0.00251926,0.00311185,0.00467795,0.00107223,-0.00571474,-0.0000
 8528,-0.00031821,-0.12824691,-0.05441332,-0.02280061,-0.00139484,0.000
 09022,-0.00018192,-0.00024930,0.00004206,-0.00011056,0.00055954,0.0014
 4409,0.00054641,-0.00184571,-0.00073728,-0.00212947,0.00046049,0.00016
 476,0.00017735,0.00340455,-0.00046684,0.00098140,0.00046143,0.00011533
 ,0.00009672,-0.00015256,0.00014211,0.00023060,0.00024882,-0.00033403,0
 .00001090,0.00006384,0.00003471,-0.00019274,-0.00586202,0.00348810,0.0
 0097766,0.02985556,0.02111577,0.00723403,-0.00948867,-0.02094571,-0.00
 622389,-0.05159597,0.06557133,0.01547273,-0.28430755,-0.05861337,-0.03
 568352,0.71560743,-0.00001377,-0.00076419,-0.00281429,-0.00157844,-0.0
 0095199,0.00786772,-0.00852182,0.00722523,-0.00913002,0.00019740,0.000
 99363,-0.00189417,0.00148891,0.00083409,-0.00197129,0.00100752,-0.0075
 4034,0.00129361,0.00213129,0.00110515,0.00029577,-0.04797923,-0.167917
 49,-0.03016273,-0.00050383,0.00088399,0.00069917,0.00090430,-0.0000102
 5,0.00055969,0.00049981,-0.00057329,0.00040417,0.00270479,0.00220605,0
 .00377424,0.00019595,-0.00040535,-0.00016591,-0.00988663,-0.00024575,-
 0.00161822,-0.00063103,-0.00044174,-0.00052199,0.00004948,-0.00027560,
 -0.00037890,-0.00052582,0.00021839,-0.00027181,-0.00072228,-0.00051837
 ,0.00002228,0.01365543,-0.00419809,-0.00096973,0.01918855,-0.03327840,
 -0.00998205,-0.01829015,-0.00380658,-0.00156109,0.00960935,0.03364170,
 0.01270588,-0.01958963,-0.14545645,-0.02740661,-0.15672248,0.76087118,
 0.00054719,-0.00044853,-0.00055041,-0.00275275,-0.00073926,0.00366685,
 -0.00161791,0.00195576,0.00004114,0.00017163,0.00085957,-0.00080880,0.
 00145583,0.00022053,-0.00103233,0.00232382,-0.00452654,0.00073836,-0.0
 0003161,-0.00015886,0.00146607,-0.02282447,-0.03327697,-0.08983907,-0.
 00114234,0.00058460,0.00060375,0.00023998,0.00007424,0.00011429,0.0002
 1551,-0.00017017,-0.00012902,0.00105516,0.00071406,0.00139312,0.000316
 48,-0.00004005,-0.00009235,-0.00326048,-0.00015895,-0.00036826,-0.0001
 3446,-0.00017030,-0.00020475,0.00000814,-0.00000648,-0.00015408,-0.000
 26146,-0.00001072,-0.00009515,-0.00023394,-0.00021666,-0.00001045,0.00
 432907,-0.00084745,-0.00114583,0.00952059,-0.00923121,0.00690845,-0.00
 671250,-0.00087198,-0.00600284,-0.00010924,0.01679547,-0.00598681,-0.0
 2363080,-0.03231093,-0.06443313,-0.01668454,0.17923351,0.24592611,-0.0
 0004068,0.00007069,0.00007758,-0.00027001,0.00013325,-0.00021645,0.000
 78119,0.00286318,0.00125743,0.00012145,-0.00020704,-0.00011832,0.00002
 979,0.00000944,-0.00008519,0.00020600,-0.00075917,0.00003741,-0.000221
 76,-0.00058885,-0.00037689,0.00772999,0.01844903,0.00502725,-0.0001955
 3,0.00002129,0.00008492,-0.00000517,0.00000123,-0.00001605,0.00008112,
 -0.00004305,-0.00001636,0.00003371,0.00004190,0.00003279,0.00002962,0.
 00000281,0.00000486,-0.00005824,-0.00004766,-0.00002554,0.00000766,-0.
 00001227,-0.00001358,-0.00000444,0.00000035,0.00000226,-0.00007125,0.0
 0000685,-0.00002592,-0.00011109,-0.00000168,0.00008113,0.00010026,0.00
 000399,0.00000064,-0.07524491,-0.07310126,-0.02390834,-0.02206569,-0.0
 3311273,-0.01022922,-0.00246302,0.00178484,-0.00154486,0.00061270,-0.0
 0107547,-0.00006771,-0.00419537,0.00126385,-0.00057378,0.09629657,-0.0
 0005847,-0.00008247,-0.00014977,0.00003778,-0.00010805,0.00043508,-0.0
 0132077,-0.00065022,-0.00010546,-0.00032925,0.00030156,0.00013727,-0.0
 0009306,-0.00000715,0.00012962,-0.00025264,0.00057752,0.00021956,0.001
 25950,0.00082045,0.00044776,-0.00958029,-0.01639563,-0.00796506,0.0002
 1540,0.00007077,0.00002564,-0.00000677,-0.00001502,0.00003065,-0.00005
 427,0.00008243,0.00003533,-0.00010947,-0.00005605,-0.00008915,0.000030
 23,-0.00000050,-0.00002191,0.00017102,0.00005823,0.00006425,0.00000562
 ,0.00002459,0.00002412,0.00000050,0.00000246,0.00000720,0.00006539,-0.
 00000586,0.00000345,0.00008306,0.00002976,-0.00005357,-0.00028197,0.00
 002039,-0.00000345,-0.07199521,-0.28615579,-0.07223401,-0.00819916,0.0
 0313399,0.00115509,0.00184532,0.00327361,-0.00301291,0.00007590,0.0003
 2436,0.00046057,0.00468545,0.00023065,-0.00043440,0.08472737,0.2966695
 8,0.00006677,-0.00004217,-0.00021560,0.00031700,-0.00073137,0.00067361
 ,0.00082607,0.00124893,-0.00247027,-0.00038195,0.00056601,-0.00004581,
 -0.00001243,0.00000733,-0.00002161,-0.00041112,0.00017796,0.00014280,0
 .00031801,-0.00022908,0.00009525,-0.00241499,-0.00555808,0.00695691,0.
 00004039,0.00009777,-0.00008793,0.00005554,-0.00000924,0.00003443,-0.0
 0004590,0.00007094,-0.00002311,-0.00005005,-0.00002266,-0.00001097,-0.
 00000822,0.00001316,-0.00000287,0.00003874,0.00002650,0.00000284,0.000
 00330,0.00001254,0.00001237,-0.00000039,0.00000450,-0.00000121,0.00000
 511,0.00000344,0.00001872,0.00015618,-0.00003507,-0.00001522,-0.000079
 69,-0.00001000,0.00001103,-0.02441798,-0.07148598,-0.06743789,-0.00322
 923,-0.00188529,-0.00364240,-0.00130648,-0.00278554,0.01328298,-0.0000
 0862,0.00027844,-0.00117912,0.00013631,-0.00110552,0.00561629,0.030265
 11,0.08084772,0.05205987,-0.00006562,-0.00004061,-0.00003075,0.0001112
 0,-0.00008613,-0.00008874,0.00063371,-0.00171809,-0.00050694,0.0000175
 0,0.00006774,0.00003969,-0.00003499,-0.00001080,0.00007757,0.00014361,
 0.00028377,0.00011457,-0.00054518,-0.00009946,-0.00006138,-0.00631408,
 0.00129820,-0.00040839,0.00001815,-0.00002385,-0.00002434,-0.00001523,
 -0.00000548,0.00000480,0.00002582,0.00007869,0.00004330,-0.00012296,-0
 .00007611,-0.00018506,0.00000498,0.00001646,0.00001198,0.00039034,0.00
 001892,0.00009402,0.00003430,0.00001632,0.00002347,-0.00000771,0.00000
 500,0.00002442,0.00002449,-0.00001216,0.00000264,0.00000083,-0.0000007
 3,-0.00001735,-0.00052113,0.00010742,0.00001888,-0.00157436,0.00008808
 ,-0.00008232,-0.00197618,0.00666937,0.00105478,0.01931094,0.01780300,0
 .00774334,-0.12914181,-0.12621160,-0.04977541,-0.00757177,-0.03503875,
 -0.01227872,0.00012534,-0.00002989,0.00008388,0.12414190,-0.00006600,-
 0.00004708,-0.00011218,-0.00011519,-0.00018994,0.00025969,0.00042535,0
 .00043109,-0.00020822,0.00006596,0.00015474,-0.00005780,-0.00002716,0.
 00000127,0.00002164,0.00016830,-0.00005799,0.00007112,0.00006808,-0.00
 000866,0.00007707,0.00091202,0.00246252,-0.00090935,-0.00016910,0.0000
 4327,0.00001692,0.00003006,0.00000081,0.00001756,0.00010711,0.00005244
 ,0.00005655,-0.00002810,0.00001995,-0.00009199,0.00003333,0.00000527,0
 .00001306,0.00021061,-0.00013112,0.00002083,0.00002554,-0.00000370,0.0
 0000569,-0.00000778,0.00000046,0.00002473,-0.00003581,-0.00001338,-0.0
 0002501,-0.00004184,-0.00002851,0.00000116,-0.00039390,0.00020817,0.00
 004386,0.00109350,0.00045067,0.00055725,0.00336164,-0.00189097,-0.0018
 2256,-0.01091275,-0.01899323,-0.00658279,-0.12644160,-0.34709839,-0.11
 458204,-0.00396384,0.00482833,0.00051595,-0.00024123,-0.00011808,0.000
 19875,0.13679748,0.35942533,-0.00003027,-0.00003384,-0.00004734,0.0000
 5196,-0.00000789,0.00017251,0.00010032,-0.00034385,0.00031738,-0.00000
 306,0.00008330,-0.00010682,0.00000472,-0.00004273,0.00003747,0.0000468
 9,0.00015695,-0.00007148,0.00003098,0.00003938,-0.00008883,-0.00055587
 ,-0.00077384,0.00501454,-0.00007199,-0.00000773,-0.00000141,0.00001660
 ,-0.00000100,0.00000952,0.00000210,0.00004073,-0.00001182,0.00001184,-
 0.00002826,0.00004087,0.00000399,-0.00000223,0.00000074,0.00006214,-0.
 00001642,-0.00004664,0.00001205,0.00000390,0.00000016,-0.00001050,0.00
 001432,-0.00002133,-0.00000644,-0.00001212,0.00000411,-0.00000447,-0.0
 0000582,0.00001202,-0.00016106,0.00007245,0.00000578,0.00022654,0.0003
 9949,-0.00063976,0.00016741,-0.00123183,0.00493266,-0.00190559,-0.0023
 1674,-0.00198975,-0.04998187,-0.11699761,-0.06057867,-0.00236943,-0.00
 165125,0.00075657,0.00001248,0.00015261,-0.00080963,0.05330675,0.11995
 430,0.06001043,0.00038538,0.00027849,0.00067758,-0.00022996,0.00086944
 ,-0.00139678,0.00097557,-0.00039974,0.00098936,-0.00022862,-0.00093002
 ,0.00053622,0.00005558,-0.00000367,-0.00015693,-0.00139216,0.00045669,
 -0.00036013,-0.00021639,-0.00017035,-0.00012094,-0.01165203,0.00301544
 ,-0.00062399,0.00079520,-0.00019203,-0.00023595,-0.00016331,0.00003211
 ,-0.00008894,-0.00049614,-0.00041886,-0.00024982,0.00014491,-0.0000277
 6,0.00043218,-0.00021123,-0.00002600,-0.00005029,-0.00102614,0.0002947
 2,-0.00015720,-0.00012898,0.00001865,-0.00001590,0.00005801,0.00000419
 ,-0.00007496,0.00017508,0.00011037,0.00011733,0.00017637,0.00017343,-0
 .00002373,0.00150942,-0.00053549,-0.00009935,0.02476047,-0.01180786,-0
 .00043789,-0.06987566,-0.06035289,-0.02440943,-0.63230583,-0.06609225,
 -0.06736326,-0.09999587,0.02801247,-0.00380395,0.02301905,0.01393721,0
 .00518657,-0.00187413,-0.00046982,-0.00012061,-0.00158966,-0.00236819,
 -0.00013862,0.77913178,0.00016232,0.00016093,0.00077076,0.00006954,0.0
 0039381,-0.00198034,-0.00105312,0.00010109,0.00204531,-0.00008068,-0.0
 0041798,0.00040684,-0.00015505,-0.00005482,0.00016982,-0.00080899,0.00
 093736,-0.00038886,0.00041563,0.00015982,0.00003485,0.00084936,0.00168
 617,0.00034749,0.00035501,-0.00020985,-0.00024436,-0.00019312,0.000016
 62,-0.00013063,-0.00024501,-0.00007206,-0.00017623,-0.00027547,-0.0003
 1941,-0.00037060,-0.00012239,0.00004937,0.00002462,0.00074285,0.000317
 23,0.00021899,0.00004410,0.00005947,0.00006352,0.00000536,0.00003876,0
 .00001864,0.00010052,-0.00001098,0.00007065,0.00016373,0.00008387,0.00
 001100,-0.00109937,-0.00001678,0.00002845,-0.00049559,-0.00688121,-0.0
 0245922,-0.05981485,-0.01271050,-0.01445611,-0.07924045,-0.10359277,-0
 .01459424,0.05542310,0.01455078,0.00318110,-0.01206331,-0.00659574,-0.
 00415127,-0.00176291,-0.00012997,0.00019324,-0.00291122,0.00281794,0.0
 0149183,0.09529690,0.11163621,0.00007747,0.00009265,0.00030711,0.00002
 794,0.00029456,-0.00088850,-0.00030519,-0.00001053,0.00064337,0.000006
 32,-0.00030321,0.00025036,-0.00006797,-0.00000227,0.00005319,-0.000373
 00,0.00027222,-0.00011255,0.00010787,0.00006833,-0.00000769,-0.0008941
 5,0.00111550,-0.00051039,0.00019648,-0.00006701,-0.00007366,-0.0000809
 1,0.00001054,-0.00005133,-0.00009211,-0.00007725,-0.00004278,-0.000064
 56,-0.00008630,-0.00010947,-0.00004522,0.00001405,0.00000057,0.0001235
 3,0.00009343,0.00014179,0.00000357,0.00001804,0.00002422,0.00001060,0.
 00000028,0.00001539,0.00004346,0.00000980,0.00001982,0.00004671,0.0000
 4641,-0.00001112,-0.00016668,0.00000297,-0.00014161,0.00228335,-0.0037
 4675,0.00197582,-0.02439999,-0.01432847,0.01475944,-0.07047755,-0.0136
 0972,-0.08496565,0.00441967,0.00050134,0.02154397,-0.00163678,-0.00249
 608,0.00574231,-0.00042951,0.00043638,-0.00175218,-0.00080834,0.001636
 91,-0.00273196,0.09172541,0.02995227,0.04734174,0.00065052,0.00012625,
 -0.00135857,-0.00106061,0.00054505,0.00486610,-0.00037075,0.00690922,-
 0.00380873,-0.00023614,-0.00070892,-0.00068044,0.00058243,-0.00008691,
 -0.00188799,-0.00151006,-0.00717863,-0.00186658,0.00068033,-0.00022012
 ,0.00010263,0.01453405,0.01922482,0.00720908,0.00058393,0.00068077,0.0
 0039929,0.00049295,0.00007457,0.00025777,-0.00020362,-0.00100523,-0.00
 000663,0.00225046,0.00195457,0.00556574,-0.00011391,-0.00040021,-0.000
 24281,-0.01547205,0.00252611,-0.00170078,-0.00095708,-0.00035531,-0.00
 101262,0.00002683,-0.00012671,-0.00075996,-0.00014916,0.00032556,-0.00
 004572,-0.00028300,-0.00016235,-0.00001499,0.00046984,-0.00482421,-0.0
 0099882,0.00219201,-0.00504079,-0.00060577,-0.00140266,0.00823013,0.00
 180931,0.00876769,-0.02826467,-0.00682335,-0.07916103,0.07554539,0.018
 30041,-0.26792176,0.23317003,0.06687901,0.00066589,-0.00042150,0.00017
 525,0.00449755,0.00151351,0.00118240,-0.00980072,0.00669311,0.00076957
 ,0.34224807,0.00032824,0.00001362,0.00194246,0.00048809,0.00094547,-0.
 00431872,0.00253850,-0.00146202,0.00637714,-0.00043845,-0.00086093,0.0
 0080529,-0.00084059,-0.00106340,0.00055155,-0.00321939,0.00346702,-0.0
 0250896,0.00003194,0.00027596,-0.00004894,0.02810667,-0.05800547,-0.02
 517106,0.00133885,-0.00079936,-0.00061544,-0.00063982,-0.00007135,-0.0
 0031323,-0.00055726,0.00040843,-0.00043715,-0.00198035,-0.00222230,-0.
 00406743,-0.00032214,0.00041285,0.00020092,0.01196455,0.00247140,0.001
 48018,0.00064083,0.00045356,0.00064715,-0.00018590,0.00016992,0.000358
 39,0.00030028,-0.00019006,0.00018684,0.00044964,0.00014304,0.00009923,
 -0.01325133,-0.00027107,0.00140023,-0.01435023,-0.00221328,-0.00237291
 ,0.00547424,-0.00194274,-0.00018123,-0.00188017,0.00802078,0.00005413,
 0.04531660,0.00203174,-0.00391404,0.24352821,-0.44005876,-0.11318295,0
 .00157324,-0.00189555,0.00015277,0.00301443,-0.00232119,0.00106389,0.0
 0129484,-0.00199735,0.00016193,-0.30872354,0.49656104,-0.00057884,0.00
 051523,0.00053585,0.00133803,-0.00045565,-0.00322537,-0.00021726,0.000
 74772,-0.00041742,0.00015817,-0.00000852,0.00083671,-0.00071363,0.0000
 2689,0.00095496,-0.00397239,-0.00157750,-0.00159686,0.00011049,-0.0001
 2780,-0.00007827,0.01053610,-0.02522007,0.01138756,0.00161128,-0.00038
 862,-0.00061547,-0.00024623,-0.00007395,-0.00010108,0.00014591,0.00014
 720,0.00026062,0.00011247,-0.00087233,-0.00182163,-0.00032159,0.000112
 26,0.00011762,0.00359779,-0.00002472,0.00371550,0.00023122,0.00018595,
 0.00043333,0.00016573,-0.00007347,0.00040850,0.00016362,0.00003869,0.0
 0000525,0.00007454,0.00019802,-0.00002923,-0.00420513,0.00141776,-0.00
 410034,-0.00553127,-0.00168716,-0.00021223,0.00192160,-0.00031098,-0.0
 0013148,-0.00131942,-0.00003868,0.00662981,0.01000011,-0.00170456,0.01
 876261,0.06998997,-0.11275436,-0.10212004,0.00076386,-0.00054264,-0.00
 119128,0.00162364,0.00089888,-0.00416930,0.00026403,-0.00007753,-0.001
 42022,-0.08570281,0.14164995,0.07718192\\-0.00000111,-0.00000608,0.000
 00452,0.00001101,-0.00002739,0.00000085,0.00000722,0.00002414,-0.00001
 408,-0.00000429,0.00001481,-0.00000648,-0.00000353,0.00000707,0.000004
 34,0.00000202,-0.00001050,-0.00000206,-0.00000478,-0.00000356,-0.00000
 198,-0.00000774,-0.00002671,-0.00000353,-0.00000142,-0.00000199,0.0000
 0227,0.00000408,-0.00000173,0.00000086,-0.00000225,0.00000617,0.000001
 53,0.00000528,-0.00000615,0.00000764,-0.00000010,0.00000549,0.00000022
 ,0.00000104,0.00000853,-0.00000242,0.00000043,0.00000057,0.00000049,-0
 .00000023,0.00000162,-0.00000225,0.00000416,-0.00000344,0.00000138,0.0
 0000093,0.00000314,0.00000328,-0.00000548,-0.00000544,-0.00000532,0.00
 001088,0.00000392,0.00000640,-0.00001506,-0.00000821,-0.00000315,0.000
 03524,0.00001191,0.00000204,-0.00001354,0.00002108,-0.00000017,0.00000
 175,-0.00001492,-0.00000138,-0.00000368,0.00000178,0.00000219,0.000004
 44,-0.00000340,-0.00000103,-0.00002351,-0.00000612,-0.00000322,-0.0000
 0175,0.00001542,0.00000906\\\@
 The archive entry for this job was punched.


 IF IT'S NOT TRUE, IT'S WELL INVENTED -- DANTE
 Job cpu time:       0 days 17 hours 32 minutes 49.5 seconds.
 Elapsed time:       0 days  0 hours 26 minutes 33.9 seconds.
 File lengths (MBytes):  RWF=   1167 Int=      0 D2E=      0 Chk=     28 Scr=      1
 Normal termination of Gaussian 16 at Mon Oct 28 00:41:14 2024.
