 Entering Gaussian System, Link 0=g16
 Input=PseudoUridineAmSarrgPBE0aVDZ.gjf
 Output=PseudoUridineAmSarrgPBE0aVDZ.log
 Initial command:
 /sw/contrib/chem-src/g16/c01/g16/l1.exe "/scr/Gau-73387.inp" -scrdir="/scr/"
 Entering Link 1 = /sw/contrib/chem-src/g16/c01/g16/l1.exe PID=     73389.
  
 Copyright (c) 1988-2019, Gaussian, Inc.  All Rights Reserved.
  
 This is part of the Gaussian(R) 16 program.  It is based on
 the Gaussian(R) 09 system (copyright 2009, Gaussian, Inc.),
 the Gaussian(R) 03 system (copyright 2003, Gaussian, Inc.),
 the Gaussian(R) 98 system (copyright 1998, Gaussian, Inc.),
 the Gaussian(R) 94 system (copyright 1995, Gaussian, Inc.),
 the Gaussian 92(TM) system (copyright 1992, Gaussian, Inc.),
 the Gaussian 90(TM) system (copyright 1990, Gaussian, Inc.),
 the Gaussian 88(TM) system (copyright 1988, Gaussian, Inc.),
 the Gaussian 86(TM) system (copyright 1986, Carnegie Mellon
 University), and the Gaussian 82(TM) system (copyright 1983,
 Carnegie Mellon University). Gaussian is a federally registered
 trademark of Gaussian, Inc.
  
 This software contains proprietary and confidential information,
 including trade secrets, belonging to Gaussian, Inc.
  
 This software is provided under written license and may be
 used, copied, transmitted, or stored only in accord with that
 written license.
  
 The following legend is applicable only to US Government
 contracts under FAR:
  
                    RESTRICTED RIGHTS LEGEND
  
 Use, reproduction and disclosure by the US Government is
 subject to restrictions as set forth in subparagraphs (a)
 and (c) of the Commercial Computer Software - Restricted
 Rights clause in FAR 52.227-19.
  
 Gaussian, Inc.
 340 Quinnipiac St., Bldg. 40, Wallingford CT 06492
  
  
 ---------------------------------------------------------------
 Warning -- This program may not be used in any manner that
 competes with the business of Gaussian, Inc. or will provide
 assistance to any competitor of Gaussian, Inc.  The licensee
 of this program is prohibited from giving any competitor of
 Gaussian, Inc. access to this program.  By using this program,
 the user acknowledges that Gaussian, Inc. is engaged in the
 business of creating and licensing software in the field of
 computational chemistry and represents and warrants to the
 licensee that it is not a competitor of Gaussian, Inc. and that
 it will not use this program in any manner prohibited above.
 ---------------------------------------------------------------
  

 Cite this work as:
 Gaussian 16, Revision C.01,
 M. J. Frisch, G. W. Trucks, H. B. Schlegel, G. E. Scuseria, 
 M. A. Robb, J. R. Cheeseman, G. Scalmani, V. Barone, 
 G. A. Petersson, H. Nakatsuji, X. Li, M. Caricato, A. V. Marenich, 
 J. Bloino, B. G. Janesko, R. Gomperts, B. Mennucci, H. P. Hratchian, 
 J. V. Ortiz, A. F. Izmaylov, J. L. Sonnenberg, D. Williams-Young, 
 F. Ding, F. Lipparini, F. Egidi, J. Goings, B. Peng, A. Petrone, 
 T. Henderson, D. Ranasinghe, V. G. Zakrzewski, J. Gao, N. Rega, 
 G. Zheng, W. Liang, M. Hada, M. Ehara, K. Toyota, R. Fukuda, 
 J. Hasegawa, M. Ishida, T. Nakajima, Y. Honda, O. Kitao, H. Nakai, 
 T. Vreven, K. Throssell, J. A. Montgomery, Jr., J. E. Peralta, 
 F. Ogliaro, M. J. Bearpark, J. J. Heyd, E. N. Brothers, K. N. Kudin, 
 V. N. Staroverov, T. A. Keith, R. Kobayashi, J. Normand, 
 K. Raghavachari, A. P. Rendell, J. C. Burant, S. S. Iyengar, 
 J. Tomasi, M. Cossi, J. M. Millam, M. Klene, C. Adamo, R. Cammi, 
 J. W. Ochterski, R. L. Martin, K. Morokuma, O. Farkas, 
 J. B. Foresman, and D. J. Fox, Gaussian, Inc., Wallingford CT, 2019.
 
 ******************************************
 Gaussian 16:  EM64L-G16RevC.01  3-Jul-2019
                27-Oct-2024 
 ******************************************
 %nprocshared=40
 Will use up to   40 processors via shared memory.
 %mem=50gb
 ------------------------------------------------------
 # PBE1PBE/aug-cc-pVDZ opt freq EmpiricalDispersion=GD3
 ------------------------------------------------------
 1/18=20,19=15,26=3,38=1/1,3;
 2/9=110,12=2,17=6,18=5,40=1/2;
 3/5=16,7=10,11=2,25=1,30=1,71=1,74=-13,124=31/1,2,3;
 4//1;
 5/5=2,38=5/2;
 6/7=2,8=2,9=2,10=2,28=1/1;
 7//1,2,3,16;
 1/18=20,19=15,26=3/3(2);
 2/9=110/2;
 99//99;
 2/9=110/2;
 3/5=16,7=10,11=2,25=1,30=1,71=1,74=-13,124=31/1,2,3;
 4/5=5,16=3,69=1/1;
 5/5=2,38=5/2;
 7//1,2,3,16;
 1/18=20,19=15,26=3/3(-5);
 2/9=110/2;
 6/7=2,8=2,9=2,10=2,19=2,28=1/1;
 99/9=1/99;
 ----
 blah
 ----
 Symbolic Z-matrix:
 Charge = -1 Multiplicity = 1
 C                    -2.75121  -0.52517   0.2974 
 C                    -1.3368   -0.78663   0.81956 
 C                    -0.52676  -0.73781  -0.48906 
 O                    -1.19029  -1.98686   1.52569 
 H                    -1.03817   0.03814   1.47494 
 O                    -1.15015   0.25645  -1.2826 
 H                    -0.62242  -1.73055  -0.96819 
 C                     0.92666  -0.43096  -0.32983 
 C                    -2.51865   0.4265   -0.87913 
 H                    -3.39717  -0.08301   1.06775 
 O                    -3.2459   -1.79691  -0.12068 
 C                    -2.74705   1.88967  -0.54147 
 H                    -3.16804   0.1385   -1.72313 
 O                    -2.10094   2.28334   0.64153 
 H                    -3.82477   2.0583   -0.39452 
 H                    -2.42788   2.49576  -1.40759 
 H                    -4.18853  -1.73026  -0.29014 
 H                    -1.81989  -2.60913   1.13702 
 H                    -1.14227   2.15447   0.53058 
 C                     1.87292  -1.32984  -0.68955 
 N                     3.21141  -1.10657  -0.52746 
 C                     3.73073   0.06017   0.0026 
 N                     2.75478   0.96891   0.35282 
 C                     1.37156   0.83339   0.24727 
 H                     1.60598  -2.29105  -1.12677 
 H                     3.08862   1.83811   0.75262 
 O                     4.92133   0.25552   0.13968 
 O                     0.6594    1.74932   0.63904 
 

 GradGradGradGradGradGradGradGradGradGradGradGradGradGradGradGradGradGrad
 Berny optimization.
 Initialization pass.
                           ----------------------------
                           !    Initial Parameters    !
                           ! (Angstroms and Degrees)  !
 --------------------------                            --------------------------
 ! Name  Definition              Value          Derivative Info.                !
 --------------------------------------------------------------------------------
 ! R1    R(1,2)                  1.5302         estimate D2E/DX2                !
 ! R2    R(1,9)                  1.531          estimate D2E/DX2                !
 ! R3    R(1,10)                 1.0983         estimate D2E/DX2                !
 ! R4    R(1,11)                 1.4272         estimate D2E/DX2                !
 ! R5    R(2,3)                  1.5398         estimate D2E/DX2                !
 ! R6    R(2,4)                  1.4002         estimate D2E/DX2                !
 ! R7    R(2,5)                  1.095          estimate D2E/DX2                !
 ! R8    R(3,6)                  1.4166         estimate D2E/DX2                !
 ! R9    R(3,7)                  1.1065         estimate D2E/DX2                !
 ! R10   R(3,8)                  1.494          estimate D2E/DX2                !
 ! R11   R(4,18)                 0.9668         estimate D2E/DX2                !
 ! R12   R(6,9)                  1.4368         estimate D2E/DX2                !
 ! R13   R(8,20)                 1.3538         estimate D2E/DX2                !
 ! R14   R(8,24)                 1.4593         estimate D2E/DX2                !
 ! R15   R(9,12)                 1.5189         estimate D2E/DX2                !
 ! R16   R(9,13)                 1.1032         estimate D2E/DX2                !
 ! R17   R(11,17)                0.9601         estimate D2E/DX2                !
 ! R18   R(12,14)                1.4043         estimate D2E/DX2                !
 ! R19   R(12,15)                1.1007         estimate D2E/DX2                !
 ! R20   R(12,16)                1.1043         estimate D2E/DX2                !
 ! R21   R(14,19)                0.9736         estimate D2E/DX2                !
 ! R22   R(20,21)                1.3666         estimate D2E/DX2                !
 ! R23   R(20,25)                1.0892         estimate D2E/DX2                !
 ! R24   R(21,22)                1.3827         estimate D2E/DX2                !
 ! R25   R(22,23)                1.3787         estimate D2E/DX2                !
 ! R26   R(22,27)                1.2143         estimate D2E/DX2                !
 ! R27   R(23,24)                1.3938         estimate D2E/DX2                !
 ! R28   R(23,26)                1.0133         estimate D2E/DX2                !
 ! R29   R(24,28)                1.2246         estimate D2E/DX2                !
 ! A1    A(2,1,9)              103.181          estimate D2E/DX2                !
 ! A2    A(2,1,10)             111.9061         estimate D2E/DX2                !
 ! A3    A(2,1,11)             105.5507         estimate D2E/DX2                !
 ! A4    A(9,1,10)             112.2166         estimate D2E/DX2                !
 ! A5    A(9,1,11)             112.4226         estimate D2E/DX2                !
 ! A6    A(10,1,11)            111.1223         estimate D2E/DX2                !
 ! A7    A(1,2,3)              101.0018         estimate D2E/DX2                !
 ! A8    A(1,2,4)              114.5355         estimate D2E/DX2                !
 ! A9    A(1,2,5)              109.1246         estimate D2E/DX2                !
 ! A10   A(3,2,4)              113.623          estimate D2E/DX2                !
 ! A11   A(3,2,5)              109.9571         estimate D2E/DX2                !
 ! A12   A(4,2,5)              108.3771         estimate D2E/DX2                !
 ! A13   A(2,3,6)              105.4746         estimate D2E/DX2                !
 ! A14   A(2,3,7)              107.1025         estimate D2E/DX2                !
 ! A15   A(2,3,8)              115.3232         estimate D2E/DX2                !
 ! A16   A(6,3,7)              110.4319         estimate D2E/DX2                !
 ! A17   A(6,3,8)              110.0996         estimate D2E/DX2                !
 ! A18   A(7,3,8)              108.3335         estimate D2E/DX2                !
 ! A19   A(2,4,18)             106.3099         estimate D2E/DX2                !
 ! A20   A(3,6,9)              110.1748         estimate D2E/DX2                !
 ! A21   A(3,8,20)             121.0174         estimate D2E/DX2                !
 ! A22   A(3,8,24)             121.111          estimate D2E/DX2                !
 ! A23   A(20,8,24)            117.8559         estimate D2E/DX2                !
 ! A24   A(1,9,6)              106.6727         estimate D2E/DX2                !
 ! A25   A(1,9,12)             113.8981         estimate D2E/DX2                !
 ! A26   A(1,9,13)             109.6476         estimate D2E/DX2                !
 ! A27   A(6,9,12)             108.6419         estimate D2E/DX2                !
 ! A28   A(6,9,13)             108.3566         estimate D2E/DX2                !
 ! A29   A(12,9,13)            109.4539         estimate D2E/DX2                !
 ! A30   A(1,11,17)            109.2789         estimate D2E/DX2                !
 ! A31   A(9,12,14)            112.8395         estimate D2E/DX2                !
 ! A32   A(9,12,15)            108.9353         estimate D2E/DX2                !
 ! A33   A(9,12,16)            108.1131         estimate D2E/DX2                !
 ! A34   A(14,12,15)           107.1629         estimate D2E/DX2                !
 ! A35   A(14,12,16)           111.9567         estimate D2E/DX2                !
 ! A36   A(15,12,16)           107.6762         estimate D2E/DX2                !
 ! A37   A(12,14,19)           108.6587         estimate D2E/DX2                !
 ! A38   A(8,20,21)            122.9958         estimate D2E/DX2                !
 ! A39   A(8,20,25)            121.42           estimate D2E/DX2                !
 ! A40   A(21,20,25)           115.5832         estimate D2E/DX2                !
 ! A41   A(20,21,22)           123.447          estimate D2E/DX2                !
 ! A42   A(21,22,23)           112.8098         estimate D2E/DX2                !
 ! A43   A(21,22,27)           123.1801         estimate D2E/DX2                !
 ! A44   A(23,22,27)           124.0101         estimate D2E/DX2                !
 ! A45   A(22,23,24)           128.2532         estimate D2E/DX2                !
 ! A46   A(22,23,26)           115.6188         estimate D2E/DX2                !
 ! A47   A(24,23,26)           116.1183         estimate D2E/DX2                !
 ! A48   A(8,24,23)            114.6285         estimate D2E/DX2                !
 ! A49   A(8,24,28)            126.6736         estimate D2E/DX2                !
 ! A50   A(23,24,28)           118.6967         estimate D2E/DX2                !
 ! D1    D(9,1,2,3)            -33.5839         estimate D2E/DX2                !
 ! D2    D(9,1,2,4)           -156.0963         estimate D2E/DX2                !
 ! D3    D(9,1,2,5)             82.229          estimate D2E/DX2                !
 ! D4    D(10,1,2,3)          -154.4301         estimate D2E/DX2                !
 ! D5    D(10,1,2,4)            83.0574         estimate D2E/DX2                !
 ! D6    D(10,1,2,5)           -38.6173         estimate D2E/DX2                !
 ! D7    D(11,1,2,3)            84.5682         estimate D2E/DX2                !
 ! D8    D(11,1,2,4)           -37.9443         estimate D2E/DX2                !
 ! D9    D(11,1,2,5)          -159.619          estimate D2E/DX2                !
 ! D10   D(2,1,9,6)             21.1004         estimate D2E/DX2                !
 ! D11   D(2,1,9,12)           -98.746          estimate D2E/DX2                !
 ! D12   D(2,1,9,13)           138.2297         estimate D2E/DX2                !
 ! D13   D(10,1,9,6)           141.7351         estimate D2E/DX2                !
 ! D14   D(10,1,9,12)           21.8888         estimate D2E/DX2                !
 ! D15   D(10,1,9,13)         -101.1355         estimate D2E/DX2                !
 ! D16   D(11,1,9,6)           -92.1345         estimate D2E/DX2                !
 ! D17   D(11,1,9,12)          148.0191         estimate D2E/DX2                !
 ! D18   D(11,1,9,13)           24.9948         estimate D2E/DX2                !
 ! D19   D(2,1,11,17)          168.5022         estimate D2E/DX2                !
 ! D20   D(9,1,11,17)          -79.7282         estimate D2E/DX2                !
 ! D21   D(10,1,11,17)          46.9914         estimate D2E/DX2                !
 ! D22   D(1,2,3,6)             35.6516         estimate D2E/DX2                !
 ! D23   D(1,2,3,7)            -82.0047         estimate D2E/DX2                !
 ! D24   D(1,2,3,8)            157.3527         estimate D2E/DX2                !
 ! D25   D(4,2,3,6)            158.7961         estimate D2E/DX2                !
 ! D26   D(4,2,3,7)             41.1398         estimate D2E/DX2                !
 ! D27   D(4,2,3,8)            -79.5028         estimate D2E/DX2                !
 ! D28   D(5,2,3,6)            -79.5419         estimate D2E/DX2                !
 ! D29   D(5,2,3,7)            162.8018         estimate D2E/DX2                !
 ! D30   D(5,2,3,8)             42.1592         estimate D2E/DX2                !
 ! D31   D(1,2,4,18)            31.3331         estimate D2E/DX2                !
 ! D32   D(3,2,4,18)           -84.0467         estimate D2E/DX2                !
 ! D33   D(5,2,4,18)           153.4158         estimate D2E/DX2                !
 ! D34   D(2,3,6,9)            -23.7581         estimate D2E/DX2                !
 ! D35   D(7,3,6,9)             91.6311         estimate D2E/DX2                !
 ! D36   D(8,3,6,9)           -148.7811         estimate D2E/DX2                !
 ! D37   D(2,3,8,20)           117.0308         estimate D2E/DX2                !
 ! D38   D(2,3,8,24)           -61.5028         estimate D2E/DX2                !
 ! D39   D(6,3,8,20)          -123.7943         estimate D2E/DX2                !
 ! D40   D(6,3,8,24)            57.6721         estimate D2E/DX2                !
 ! D41   D(7,3,8,20)            -2.939          estimate D2E/DX2                !
 ! D42   D(7,3,8,24)           178.5274         estimate D2E/DX2                !
 ! D43   D(3,6,9,1)              1.6074         estimate D2E/DX2                !
 ! D44   D(3,6,9,12)           124.7921         estimate D2E/DX2                !
 ! D45   D(3,6,9,13)          -116.374          estimate D2E/DX2                !
 ! D46   D(3,8,20,21)         -178.1355         estimate D2E/DX2                !
 ! D47   D(3,8,20,25)            1.4952         estimate D2E/DX2                !
 ! D48   D(24,8,20,21)           0.4444         estimate D2E/DX2                !
 ! D49   D(24,8,20,25)        -179.9248         estimate D2E/DX2                !
 ! D50   D(3,8,24,23)          178.9836         estimate D2E/DX2                !
 ! D51   D(3,8,24,28)           -0.6149         estimate D2E/DX2                !
 ! D52   D(20,8,24,23)           0.405          estimate D2E/DX2                !
 ! D53   D(20,8,24,28)        -179.1935         estimate D2E/DX2                !
 ! D54   D(1,9,12,14)           48.3031         estimate D2E/DX2                !
 ! D55   D(1,9,12,15)          -70.5785         estimate D2E/DX2                !
 ! D56   D(1,9,12,16)          172.6801         estimate D2E/DX2                !
 ! D57   D(6,9,12,14)          -70.4256         estimate D2E/DX2                !
 ! D58   D(6,9,12,15)          170.6928         estimate D2E/DX2                !
 ! D59   D(6,9,12,16)           53.9514         estimate D2E/DX2                !
 ! D60   D(13,9,12,14)         171.433          estimate D2E/DX2                !
 ! D61   D(13,9,12,15)          52.5514         estimate D2E/DX2                !
 ! D62   D(13,9,12,16)         -64.19           estimate D2E/DX2                !
 ! D63   D(9,12,14,19)          60.8674         estimate D2E/DX2                !
 ! D64   D(15,12,14,19)       -179.2256         estimate D2E/DX2                !
 ! D65   D(16,12,14,19)        -61.3762         estimate D2E/DX2                !
 ! D66   D(8,20,21,22)          -0.7992         estimate D2E/DX2                !
 ! D67   D(25,20,21,22)        179.5502         estimate D2E/DX2                !
 ! D68   D(20,21,22,23)          0.2048         estimate D2E/DX2                !
 ! D69   D(20,21,22,27)       -179.7052         estimate D2E/DX2                !
 ! D70   D(21,22,23,24)          0.7696         estimate D2E/DX2                !
 ! D71   D(21,22,23,26)        179.5791         estimate D2E/DX2                !
 ! D72   D(27,22,23,24)       -179.3213         estimate D2E/DX2                !
 ! D73   D(27,22,23,26)         -0.5118         estimate D2E/DX2                !
 ! D74   D(22,23,24,8)          -1.0723         estimate D2E/DX2                !
 ! D75   D(22,23,24,28)        178.5606         estimate D2E/DX2                !
 ! D76   D(26,23,24,8)        -179.8767         estimate D2E/DX2                !
 ! D77   D(26,23,24,28)         -0.2438         estimate D2E/DX2                !
 --------------------------------------------------------------------------------
 Trust Radius=3.00D-01 FncErr=1.00D-07 GrdErr=1.00D-06 EigMax=2.50D+02 EigMin=1.00D-04
 Number of steps in this run=    166 maximum allowed number of steps=    168.
 GradGradGradGradGradGradGradGradGradGradGradGradGradGradGradGradGradGrad

                          Input orientation:                          
 ---------------------------------------------------------------------
 Center     Atomic      Atomic             Coordinates (Angstroms)
 Number     Number       Type             X           Y           Z
 ---------------------------------------------------------------------
      1          6           0       -2.751214   -0.525169    0.297398
      2          6           0       -1.336796   -0.786633    0.819557
      3          6           0       -0.526755   -0.737810   -0.489055
      4          8           0       -1.190288   -1.986856    1.525692
      5          1           0       -1.038169    0.038139    1.474939
      6          8           0       -1.150147    0.256450   -1.282601
      7          1           0       -0.622419   -1.730554   -0.968190
      8          6           0        0.926662   -0.430961   -0.329830
      9          6           0       -2.518650    0.426496   -0.879130
     10          1           0       -3.397168   -0.083006    1.067749
     11          8           0       -3.245902   -1.796913   -0.120680
     12          6           0       -2.747052    1.889669   -0.541467
     13          1           0       -3.168037    0.138498   -1.723126
     14          8           0       -2.100938    2.283344    0.641531
     15          1           0       -3.824774    2.058301   -0.394517
     16          1           0       -2.427875    2.495756   -1.407594
     17          1           0       -4.188528   -1.730257   -0.290142
     18          1           0       -1.819887   -2.609133    1.137016
     19          1           0       -1.142272    2.154473    0.530577
     20          6           0        1.872921   -1.329840   -0.689554
     21          7           0        3.211412   -1.106568   -0.527456
     22          6           0        3.730730    0.060169    0.002600
     23          7           0        2.754780    0.968910    0.352819
     24          6           0        1.371561    0.833387    0.247274
     25          1           0        1.605984   -2.291048   -1.126771
     26          1           0        3.088623    1.838106    0.752618
     27          8           0        4.921326    0.255517    0.139676
     28          8           0        0.659404    1.749316    0.639043
 ---------------------------------------------------------------------
                    Distance matrix (angstroms):
                    1          2          3          4          5
     1  C    0.000000
     2  C    1.530226   0.000000
     3  C    2.368954   1.539810   0.000000
     4  O    2.466115   1.400224   2.461625   0.000000
     5  H    2.153704   1.094967   2.172766   2.031335   0.000000
     6  O    2.381332   2.354130   1.416646   3.594516   2.768434
     7  H    2.754348   2.144146   1.106464   2.570528   3.044668
     8  C    3.732166   2.563364   1.493964   3.216403   2.708839
     9  C    1.531003   2.398749   2.339960   3.656772   2.807897
    10  H    1.098274   2.191306   3.330417   2.950369   2.396947
    11  O    1.427178   2.355716   2.941285   2.640486   3.284433
    12  C    2.556395   3.317198   3.440365   4.660913   3.227125
    13  H    2.167190   3.267193   3.044210   4.356999   3.843700
    14  O    2.903279   3.168654   3.589380   4.454844   2.620113
    15  H    2.881943   3.969592   4.324824   5.195288   3.916770
    16  H    3.483896   4.113968   3.861855   5.498145   4.034868
    17  H    1.965531   3.202223   3.799092   3.514618   4.020883
    18  H    2.432125   1.911979   2.796095   0.966795   2.780885
    19  H    3.134254   2.961664   3.127908   4.259479   2.319812
    20  C    4.796269   3.588143   2.479747   3.836956   3.876963
    21  N    6.047422   4.754261   3.756508   4.936121   4.835171
    22  C    6.514992   5.202337   4.359435   5.543152   4.991059
    23  N    5.705376   4.476692   3.793431   5.067124   4.063490
    24  C    4.341136   3.207362   2.571856   4.018855   2.818932
    25  H    4.912409   3.835546   2.714370   3.866165   4.380132
    26  H    6.316327   5.145684   4.609561   5.791119   4.559829
    27  O    7.713768   6.380627   5.573472   6.655907   6.111118
    28  O    4.113675   3.232404   2.977478   4.262216   2.551196
                    6          7          8          9         10
     6  O    0.000000
     7  H    2.079792   0.000000
     8  C    2.386093   2.120400   0.000000
     9  C    1.436839   2.873411   3.592651   0.000000
    10  H    3.269324   3.815586   4.557390   2.195842   0.000000
    11  O    3.155717   2.757778   4.395436   2.459205   2.091105
    12  C    2.401414   4.219262   4.350435   1.518901   2.627484
    13  H    2.068781   3.247069   4.362581   1.103166   2.809012
    14  O    2.952048   4.570404   4.180593   2.436140   2.731572
    15  H    3.344995   4.993956   5.364397   2.145600   2.627977
    16  H    2.581221   4.616757   4.580411   2.137604   3.703629
    17  H    3.763474   3.629998   5.277775   2.790517   2.276742
    18  H    3.809812   2.576378   3.799948   3.710547   2.978914
    19  H    2.624913   4.196425   3.421295   2.620610   3.221711
    20  C    3.465106   2.542623   1.353806   4.733556   5.693553
    21  N    4.631550   3.909203   2.390729   5.942017   6.875005
    22  C    5.051062   4.806145   2.866098   6.321898   7.208465
    23  N    4.293094   4.520801   2.401596   5.442516   6.282047
    24  C    3.005393   3.468011   1.459301   4.070392   4.924808
    25  H    3.756366   2.303276   2.134600   4.945602   5.892614
    26  H    4.960940   5.428476   3.315786   6.008057   6.771666
    27  O    6.235837   5.992074   4.080322   7.511354   8.376948
    28  O    3.032464   4.041753   2.400781   3.762277   4.471797
                   11         12         13         14         15
    11  O    0.000000
    12  C    3.743902   0.000000
    13  H    2.513904   2.154100   0.000000
    14  O    4.305857   1.404253   3.366106   0.000000
    15  H    3.908037   1.100689   2.425314   2.023771   0.000000
    16  H    4.555472   1.104261   2.490796   2.085886   1.780174
    17  H    0.960054   3.904469   2.566533   4.618987   3.807412
    18  H    2.067612   4.890415   4.188961   4.925528   5.305667
    19  H    4.523588   1.948004   3.639651   0.973632   2.839166
    20  C    5.171472   5.633056   5.351219   5.533393   6.635531
    21  N    6.506838   6.669402   6.608872   6.409298   7.716345
    22  C    7.220619   6.753128   7.111769   6.273682   7.825335
    23  N    6.624361   5.649575   6.330789   5.038759   6.710873
    24  C    5.326803   4.324444   4.997329   3.783657   5.377193
    25  H    4.979677   6.063819   5.389769   6.147619   6.996154
    26  H    7.355421   5.977660   6.940012   5.209810   7.011381
    27  O    8.425192   7.870097   8.301898   7.326400   8.945930
    28  O    5.329572   3.607942   4.777435   2.811526   4.612111
                   16         17         18         19         20
    16  H    0.000000
    17  H    4.712514   0.000000
    18  H    5.736251   2.901666   0.000000
    19  H    2.350693   5.004436   4.849626   0.000000
    20  C    5.800656   6.087777   4.313905   4.766607   0.000000
    21  N    6.749292   7.429968   5.508370   5.541515   1.366632
    22  C    6.771200   8.124406   6.262701   5.330199   2.421292
    23  N    5.682449   7.477194   5.860455   4.077275   2.673662
    24  C    4.465173   6.146192   4.777858   2.853925   2.410095
    25  H    6.266129   5.881395   4.118556   5.482916   1.089190
    26  H    5.960769   8.171749   6.634694   4.248513   3.686960
    27  O    7.837313   9.333675   7.392216   6.366008   3.534650
    28  O    3.778517   6.039309   5.038942   1.849852   3.566370
                   21         22         23         24         25
    21  N    0.000000
    22  C    1.382724   0.000000
    23  N    2.300219   1.378747   0.000000
    24  C    2.783646   2.494676   1.393844   0.000000
    25  H    2.083164   3.364260   3.759820   3.421264   0.000000
    26  H    3.213218   2.033688   1.013307   2.052592   4.772864
    27  O    2.285639   1.214277   2.290913   3.598103   4.368109
    28  O    4.003691   3.562488   2.254231   1.224572   4.509840
                   26         27         28
    26  H    0.000000
    27  O    2.497816   0.000000
    28  O    2.433493   4.543653   0.000000
 Stoichiometry    C9H11N2O6(1-)
 Framework group  C1[X(C9H11N2O6)]
 Deg. of freedom    78
 Full point group                 C1      NOp   1
 Largest Abelian subgroup         C1      NOp   1
 Largest concise Abelian subgroup C1      NOp   1
                         Standard orientation:                         
 ---------------------------------------------------------------------
 Center     Atomic      Atomic             Coordinates (Angstroms)
 Number     Number       Type             X           Y           Z
 ---------------------------------------------------------------------
      1          6           0       -2.725634   -0.509159    0.297760
      2          6           0       -1.312291   -0.792787    0.811189
      3          6           0       -0.507282   -0.741061   -0.500414
      4          8           0       -1.177376   -2.001501    1.505045
      5          1           0       -1.000886    0.021902    1.473201
      6          8           0       -1.121916    0.268336   -1.281585
      7          1           0       -0.617033   -1.727872   -0.988698
      8          6           0        0.950418   -0.453391   -0.344576
      9          6           0       -2.486526    0.451008   -0.870520
     10          1           0       -3.362891   -0.066714    1.075160
     11          8           0       -3.237505   -1.770699   -0.130426
     12          6           0       -2.695701    1.913489   -0.517738
     13          1           0       -3.142942    0.179106   -1.714417
     14          8           0       -2.039833    2.287800    0.666177
     15          1           0       -3.770661    2.093719   -0.364463
     16          1           0       -2.372867    2.524054   -1.379353
     17          1           0       -4.179963   -1.690993   -0.295119
     18          1           0       -1.816132   -2.612304    1.113126
     19          1           0       -1.083284    2.148417    0.549799
     20          6           0        1.884152   -1.360122   -0.717097
     21          7           0        3.225932   -1.154655   -0.558693
     22          6           0        3.761632    0.000504   -0.019658
     23          7           0        2.798289    0.917547    0.343583
     24          6           0        1.413090    0.799811    0.242772
     25          1           0        1.603703   -2.313734   -1.162414
     26          1           0        3.144361    1.778713    0.750303
     27          8           0        4.955084    0.180084    0.114101
     28          8           0        0.713782    1.720444    0.646480
 ---------------------------------------------------------------------
 Rotational constants (GHZ):           0.9384398           0.3046568           0.2603934
 Standard basis: Aug-CC-pVDZ (5D, 7F)
 There are   524 symmetry adapted cartesian basis functions of A   symmetry.
 There are   490 symmetry adapted basis functions of A   symmetry.
   490 basis functions,   852 primitive gaussians,   524 cartesian basis functions
    64 alpha electrons       64 beta electrons
       nuclear repulsion energy      1306.5906872391 Hartrees.
 NAtoms=   28 NActive=   28 NUniq=   28 SFac= 1.00D+00 NAtFMM=   60 NAOKFM=F Big=F
 Integral buffers will be    131072 words long.
 Raffenetti 2 integral format.
 Two-electron integral symmetry is turned on.
 Nuclear repulsion after empirical dispersion term =     1306.5708895458 Hartrees.
 One-electron integrals computed using PRISM.
 NBasis=   490 RedAO= T EigKep=  3.02D-06  NBF=   490
 NBsUse=   490 1.00D-06 EigRej= -1.00D+00 NBFU=   490
 ExpMin= 2.97D-02 ExpMax= 1.17D+04 ExpMxC= 4.01D+02 IAcc=3 IRadAn=         5 AccDes= 0.00D+00
 Harris functional with IExCor= 1009 and IRadAn=       5 diagonalized for initial guess.
 HarFok:  IExCor= 1009 AccDes= 0.00D+00 IRadAn=         5 IDoV= 1 UseB2=F ITyADJ=14
 ICtDFT=  3500011 ScaDFX=  1.000000  1.000000  1.000000  1.000000
 FoFCou: FMM=F IPFlag=           0 FMFlag=      100000 FMFlg1=           0
         NFxFlg=           0 DoJE=T BraDBF=F KetDBF=T FulRan=T
         wScrn=  0.000000 ICntrl=       500 IOpCl=  0 I1Cent=   200000004 NGrid=           0
         NMat0=    1 NMatS0=      1 NMatT0=    0 NMatD0=    1 NMtDS0=    0 NMtDT0=    0
 Petite list used in FoFCou.
 Requested convergence on RMS density matrix=1.00D-08 within 128 cycles.
 Requested convergence on MAX density matrix=1.00D-06.
 Requested convergence on             energy=1.00D-06.
 No special actions if energy rises.
 SCF Done:  E(RPBE1PBE) =  -909.684858045     A.U. after   14 cycles
            NFock= 14  Conv=0.59D-08     -V/T= 2.0052

 **********************************************************************

            Population analysis using the SCF Density.

 **********************************************************************

 Orbital symmetries:
       Occupied  (A) (A) (A) (A) (A) (A) (A) (A) (A) (A) (A) (A)
                 (A) (A) (A) (A) (A) (A) (A) (A) (A) (A) (A) (A)
                 (A) (A) (A) (A) (A) (A) (A) (A) (A) (A) (A) (A)
                 (A) (A) (A) (A) (A) (A) (A) (A) (A) (A) (A) (A)
                 (A) (A) (A) (A) (A) (A) (A) (A) (A) (A) (A) (A)
                 (A) (A) (A) (A)
       Virtual   (A) (A) (A) (A) (A) (A) (A) (A) (A) (A) (A) (A)
                 (A) (A) (A) (A) (A) (A) (A) (A) (A) (A) (A) (A)
                 (A) (A) (A) (A) (A) (A) (A) (A) (A) (A) (A) (A)
                 (A) (A) (A) (A) (A) (A) (A) (A) (A) (A) (A) (A)
                 (A) (A) (A) (A) (A) (A) (A) (A) (A) (A) (A) (A)
                 (A) (A) (A) (A) (A) (A) (A) (A) (A) (A) (A) (A)
                 (A) (A) (A) (A) (A) (A) (A) (A) (A) (A) (A) (A)
                 (A) (A) (A) (A) (A) (A) (A) (A) (A) (A) (A) (A)
                 (A) (A) (A) (A) (A) (A) (A) (A) (A) (A) (A) (A)
                 (A) (A) (A) (A) (A) (A) (A) (A) (A) (A) (A) (A)
                 (A) (A) (A) (A) (A) (A) (A) (A) (A) (A) (A) (A)
                 (A) (A) (A) (A) (A) (A) (A) (A) (A) (A) (A) (A)
                 (A) (A) (A) (A) (A) (A) (A) (A) (A) (A) (A) (A)
                 (A) (A) (A) (A) (A) (A) (A) (A) (A) (A) (A) (A)
                 (A) (A) (A) (A) (A) (A) (A) (A) (A) (A) (A) (A)
                 (A) (A) (A) (A) (A) (A) (A) (A) (A) (A) (A) (A)
                 (A) (A) (A) (A) (A) (A) (A) (A) (A) (A) (A) (A)
                 (A) (A) (A) (A) (A) (A) (A) (A) (A) (A) (A) (A)
                 (A) (A) (A) (A) (A) (A) (A) (A) (A) (A) (A) (A)
                 (A) (A) (A) (A) (A) (A) (A) (A) (A) (A) (A) (A)
                 (A) (A) (A) (A) (A) (A) (A) (A) (A) (A) (A) (A)
                 (A) (A) (A) (A) (A) (A) (A) (A) (A) (A) (A) (A)
                 (A) (A) (A) (A) (A) (A) (A) (A) (A) (A) (A) (A)
                 (A) (A) (A) (A) (A) (A) (A) (A) (A) (A) (A) (A)
                 (A) (A) (A) (A) (A) (A) (A) (A) (A) (A) (A) (A)
                 (A) (A) (A) (A) (A) (A) (A) (A) (A) (A) (A) (A)
                 (A) (A) (A) (A) (A) (A) (A) (A) (A) (A) (A) (A)
                 (A) (A) (A) (A) (A) (A) (A) (A) (A) (A) (A) (A)
                 (A) (A) (A) (A) (A) (A) (A) (A) (A) (A) (A) (A)
                 (A) (A) (A) (A) (A) (A) (A) (A) (A) (A) (A) (A)
                 (A) (A) (A) (A) (A) (A) (A) (A) (A) (A) (A) (A)
                 (A) (A) (A) (A) (A) (A) (A) (A) (A) (A) (A) (A)
                 (A) (A) (A) (A) (A) (A) (A) (A) (A) (A) (A) (A)
                 (A) (A) (A) (A) (A) (A) (A) (A) (A) (A) (A) (A)
                 (A) (A) (A) (A) (A) (A) (A) (A) (A) (A) (A) (A)
                 (A) (A) (A) (A) (A) (A)
 The electronic state is 1-A.
 Alpha  occ. eigenvalues --  -19.15792 -19.12160 -19.11823 -19.10381 -19.06050
 Alpha  occ. eigenvalues --  -19.03101 -14.29339 -14.21339 -10.20179 -10.19510
 Alpha  occ. eigenvalues --  -10.19325 -10.18294 -10.17717 -10.16997 -10.16419
 Alpha  occ. eigenvalues --  -10.13200 -10.08611  -0.99760  -0.96611  -0.95124
 Alpha  occ. eigenvalues --   -0.94738  -0.93600  -0.92113  -0.82243  -0.75486
 Alpha  occ. eigenvalues --   -0.70175  -0.69068  -0.64166  -0.57802  -0.53188
 Alpha  occ. eigenvalues --   -0.52596  -0.51769  -0.49124  -0.47216  -0.43897
 Alpha  occ. eigenvalues --   -0.42383  -0.40887  -0.40038  -0.37216  -0.36872
 Alpha  occ. eigenvalues --   -0.36478  -0.35039  -0.34264  -0.32683  -0.32422
 Alpha  occ. eigenvalues --   -0.30897  -0.29935  -0.29456  -0.28158  -0.27929
 Alpha  occ. eigenvalues --   -0.26956  -0.26152  -0.24331  -0.23331  -0.21288
 Alpha  occ. eigenvalues --   -0.19682  -0.19248  -0.17112  -0.16662  -0.14951
 Alpha  occ. eigenvalues --   -0.14612  -0.12712  -0.10828  -0.07235
 Alpha virt. eigenvalues --    0.05939   0.08316   0.09214   0.10230   0.11203
 Alpha virt. eigenvalues --    0.11485   0.11769   0.12059   0.12646   0.13129
 Alpha virt. eigenvalues --    0.13866   0.14239   0.15025   0.15920   0.16123
 Alpha virt. eigenvalues --    0.16682   0.16806   0.17417   0.17829   0.18126
 Alpha virt. eigenvalues --    0.18530   0.18741   0.19235   0.19641   0.19963
 Alpha virt. eigenvalues --    0.20320   0.20446   0.20833   0.21285   0.21911
 Alpha virt. eigenvalues --    0.22168   0.22400   0.22766   0.23107   0.23294
 Alpha virt. eigenvalues --    0.23708   0.24575   0.24738   0.25072   0.25400
 Alpha virt. eigenvalues --    0.25959   0.26672   0.27236   0.27716   0.27900
 Alpha virt. eigenvalues --    0.28469   0.29363   0.29451   0.29970   0.30374
 Alpha virt. eigenvalues --    0.30611   0.31090   0.31718   0.32305   0.32886
 Alpha virt. eigenvalues --    0.33212   0.33275   0.33625   0.33835   0.34456
 Alpha virt. eigenvalues --    0.34925   0.35123   0.35394   0.35848   0.35977
 Alpha virt. eigenvalues --    0.36468   0.36817   0.37273   0.37694   0.37800
 Alpha virt. eigenvalues --    0.38052   0.38341   0.38549   0.38879   0.39315
 Alpha virt. eigenvalues --    0.40220   0.40403   0.40598   0.41027   0.41397
 Alpha virt. eigenvalues --    0.41514   0.41927   0.42402   0.42704   0.42892
 Alpha virt. eigenvalues --    0.43328   0.43806   0.44492   0.44750   0.44937
 Alpha virt. eigenvalues --    0.45165   0.45297   0.45696   0.46201   0.47174
 Alpha virt. eigenvalues --    0.47515   0.48152   0.48538   0.48830   0.49474
 Alpha virt. eigenvalues --    0.50035   0.50387   0.51208   0.51989   0.52209
 Alpha virt. eigenvalues --    0.52936   0.53136   0.53884   0.54277   0.54421
 Alpha virt. eigenvalues --    0.55011   0.55370   0.56291   0.56848   0.57237
 Alpha virt. eigenvalues --    0.57746   0.58170   0.59064   0.59263   0.59806
 Alpha virt. eigenvalues --    0.60667   0.61404   0.61991   0.62647   0.62815
 Alpha virt. eigenvalues --    0.63121   0.63651   0.64459   0.64935   0.66089
 Alpha virt. eigenvalues --    0.66681   0.67039   0.67421   0.67917   0.68660
 Alpha virt. eigenvalues --    0.69234   0.69728   0.70440   0.70779   0.71501
 Alpha virt. eigenvalues --    0.72207   0.73020   0.73324   0.73427   0.74367
 Alpha virt. eigenvalues --    0.74771   0.75115   0.75261   0.76241   0.76628
 Alpha virt. eigenvalues --    0.77060   0.77527   0.77719   0.78358   0.78466
 Alpha virt. eigenvalues --    0.79080   0.79955   0.80252   0.80956   0.81111
 Alpha virt. eigenvalues --    0.82215   0.82581   0.82895   0.83302   0.84020
 Alpha virt. eigenvalues --    0.84821   0.85084   0.85762   0.86607   0.87064
 Alpha virt. eigenvalues --    0.87729   0.87762   0.88765   0.90406   0.90498
 Alpha virt. eigenvalues --    0.91166   0.91885   0.92668   0.93035   0.94306
 Alpha virt. eigenvalues --    0.95545   0.96115   0.96263   0.97070   0.97516
 Alpha virt. eigenvalues --    0.97711   0.98768   0.99688   1.00115   1.01110
 Alpha virt. eigenvalues --    1.01503   1.01921   1.03087   1.03416   1.03793
 Alpha virt. eigenvalues --    1.04487   1.05742   1.06236   1.08259   1.08544
 Alpha virt. eigenvalues --    1.09326   1.10209   1.10703   1.12127   1.13108
 Alpha virt. eigenvalues --    1.14033   1.15161   1.15307   1.15862   1.17020
 Alpha virt. eigenvalues --    1.18118   1.18458   1.19380   1.20377   1.21272
 Alpha virt. eigenvalues --    1.22253   1.23778   1.23997   1.24331   1.24661
 Alpha virt. eigenvalues --    1.26180   1.26536   1.27383   1.28808   1.29442
 Alpha virt. eigenvalues --    1.30337   1.30646   1.31878   1.32851   1.33153
 Alpha virt. eigenvalues --    1.33767   1.34729   1.36217   1.37309   1.37505
 Alpha virt. eigenvalues --    1.39771   1.40785   1.41268   1.42001   1.42551
 Alpha virt. eigenvalues --    1.42835   1.44552   1.45847   1.47405   1.47939
 Alpha virt. eigenvalues --    1.48965   1.50236   1.51126   1.52730   1.53430
 Alpha virt. eigenvalues --    1.54291   1.54483   1.55586   1.57109   1.58124
 Alpha virt. eigenvalues --    1.59118   1.60382   1.60410   1.62867   1.64126
 Alpha virt. eigenvalues --    1.65424   1.65721   1.67150   1.68420   1.69268
 Alpha virt. eigenvalues --    1.70343   1.70526   1.71289   1.71743   1.73077
 Alpha virt. eigenvalues --    1.74112   1.74710   1.75143   1.76385   1.77762
 Alpha virt. eigenvalues --    1.78909   1.79981   1.80792   1.82264   1.82750
 Alpha virt. eigenvalues --    1.84514   1.84802   1.85781   1.87653   1.88322
 Alpha virt. eigenvalues --    1.89500   1.90497   1.91187   1.92164   1.93123
 Alpha virt. eigenvalues --    1.93689   1.94820   1.95183   1.96035   1.96743
 Alpha virt. eigenvalues --    1.97883   1.98916   2.00881   2.01257   2.02815
 Alpha virt. eigenvalues --    2.03444   2.03747   2.05213   2.06430   2.06839
 Alpha virt. eigenvalues --    2.07702   2.09119   2.09547   2.10694   2.11291
 Alpha virt. eigenvalues --    2.12493   2.13467   2.14813   2.16095   2.17213
 Alpha virt. eigenvalues --    2.18057   2.19813   2.21163   2.22313   2.23174
 Alpha virt. eigenvalues --    2.24174   2.25570   2.25858   2.26551   2.28271
 Alpha virt. eigenvalues --    2.29763   2.30658   2.32049   2.33524   2.34348
 Alpha virt. eigenvalues --    2.35884   2.36922   2.38033   2.38128   2.39303
 Alpha virt. eigenvalues --    2.41307   2.42119   2.42468   2.43650   2.44986
 Alpha virt. eigenvalues --    2.47452   2.49960   2.50161   2.52288   2.53659
 Alpha virt. eigenvalues --    2.54048   2.55448   2.56905   2.58612   2.59244
 Alpha virt. eigenvalues --    2.59876   2.62696   2.64288   2.65242   2.65931
 Alpha virt. eigenvalues --    2.67668   2.68940   2.69364   2.70999   2.71732
 Alpha virt. eigenvalues --    2.72275   2.75460   2.76137   2.78409   2.78887
 Alpha virt. eigenvalues --    2.79990   2.81124   2.84876   2.85665   2.88511
 Alpha virt. eigenvalues --    2.89693   2.92765   2.93628   2.96120   2.98885
 Alpha virt. eigenvalues --    3.01505   3.05461   3.06983   3.08510   3.11445
 Alpha virt. eigenvalues --    3.14111   3.15454   3.19012   3.23228   3.29984
 Alpha virt. eigenvalues --    3.30335   3.35233   3.42646   3.47446   3.47658
 Alpha virt. eigenvalues --    3.52216   3.53736   3.54251   3.57771   3.58437
 Alpha virt. eigenvalues --    3.58990   3.60135   3.60662   3.62175   3.62546
 Alpha virt. eigenvalues --    3.63045   3.65324   3.66151   3.67336   3.69312
 Alpha virt. eigenvalues --    3.70758   3.71557   3.73906   3.76882   3.78455
 Alpha virt. eigenvalues --    3.80060   3.82646   3.85029   3.86331   3.92455
 Alpha virt. eigenvalues --    3.93432   3.97986   4.00585   4.02194   4.06834
 Alpha virt. eigenvalues --    4.13652   4.15628   4.23978   4.36276   4.40823
 Alpha virt. eigenvalues --    4.71324
          Condensed to atoms (all electrons):
               1          2          3          4          5          6
     1  C    9.308556  -2.169136   0.791948   0.073271  -0.051577   0.138087
     2  C   -2.169136   9.239882  -3.481879  -0.452751  -0.083169   0.020675
     3  C    0.791948  -3.481879  22.035700   0.424610  -0.939528  -0.961808
     4  O    0.073271  -0.452751   0.424610   8.636393  -0.208739  -0.015207
     5  H   -0.051577  -0.083169  -0.939528  -0.208739   2.307223   0.065714
     6  O    0.138087   0.020675  -0.961808  -0.015207   0.065714   9.495924
     7  H   -0.206971   0.754048  -2.554308  -0.042886   0.147845   0.073448
     8  C    0.072344   0.881267  -5.831080  -0.128256   0.361823   0.220591
     9  C   -1.766418   1.039062  -3.456607  -0.053712   0.112444   0.088405
    10  H   -1.069956   0.341184   0.230729   0.034145  -0.147029  -0.010731
    11  O   -0.493118   0.021791   0.069733  -0.025810   0.038811   0.016287
    12  C   -0.060450  -0.070834   0.400267  -0.012558   0.019542  -0.003232
    13  H    0.000982   0.074606   0.605698   0.006263  -0.013377  -0.313059
    14  O   -0.019134  -0.044250  -0.076189   0.005166  -0.011601  -0.020726
    15  H    0.023035   0.018608  -0.018418  -0.001884   0.020676   0.101680
    16  H    0.022240  -0.001538  -0.017350  -0.000908  -0.004682  -0.026932
    17  H    0.088093  -0.032441  -0.020959   0.003017   0.003244   0.004374
    18  H   -0.001108  -0.087601  -0.066831   0.321366   0.054538   0.009867
    19  H    0.022865  -0.032493   0.060879   0.001787   0.005470   0.015068
    20  C    0.164285  -0.515218  -1.867603   0.039544  -0.001598  -0.045947
    21  N   -0.001260  -0.016045   0.298896  -0.000890  -0.003840  -0.000697
    22  C   -0.001828   0.040558  -0.691320   0.004094   0.009310   0.011342
    23  N    0.038731  -0.087840   0.425524  -0.005478   0.007169  -0.020390
    24  C   -0.186149  -0.011306  -0.494831   0.067327  -0.229152   0.007324
    25  H   -0.031818   0.133743  -0.068743  -0.001007   0.016567   0.046846
    26  H   -0.003563   0.003739  -0.036541   0.000748   0.001507   0.000226
    27  O   -0.000490  -0.002162   0.034695  -0.000155  -0.000266   0.000036
    28  O    0.074761  -0.013955  -0.005660  -0.008817   0.061146  -0.011143
               7          8          9         10         11         12
     1  C   -0.206971   0.072344  -1.766418  -1.069956  -0.493118  -0.060450
     2  C    0.754048   0.881267   1.039062   0.341184   0.021791  -0.070834
     3  C   -2.554308  -5.831080  -3.456607   0.230729   0.069733   0.400267
     4  O   -0.042886  -0.128256  -0.053712   0.034145  -0.025810  -0.012558
     5  H    0.147845   0.361823   0.112444  -0.147029   0.038811   0.019542
     6  O    0.073448   0.220591   0.088405  -0.010731   0.016287  -0.003232
     7  H    2.851683   0.586060   0.163593  -0.017467  -0.010466  -0.024143
     8  C    0.586060  14.982373   0.564855  -0.090529  -0.020773  -0.174182
     9  C    0.163593   0.564855   9.767392   0.059547   0.142509  -0.331773
    10  H   -0.017467  -0.090529   0.059547   2.161974  -0.073446  -0.096208
    11  O   -0.010466  -0.020773   0.142509  -0.073446   8.711283  -0.010505
    12  C   -0.024143  -0.174182  -0.331773  -0.096208  -0.010505   5.038184
    13  H    0.001922  -0.179196  -0.957853   0.114429   0.002425   0.000179
    14  O    0.002992   0.038720   0.072351   0.045855   0.003993   0.054319
    15  H   -0.003186   0.023833  -0.154391  -0.060609   0.001755   0.215353
    16  H    0.003691  -0.009376   0.176198   0.027298   0.000162   0.048792
    17  H    0.007332   0.018206  -0.051138  -0.100174   0.372938  -0.004705
    18  H   -0.004739   0.001972   0.025179  -0.005451   0.023863   0.003193
    19  H   -0.007013  -0.018128  -0.065567  -0.011695  -0.000688  -0.000247
    20  C    0.161086  -3.461670  -0.141432   0.006890  -0.004925  -0.003388
    21  N   -0.021772   0.005807  -0.004565   0.000148   0.000717   0.004834
    22  C    0.008969   0.458238   0.017533   0.000019  -0.000322  -0.013449
    23  N   -0.001029  -0.306484  -0.009957   0.000620  -0.000524  -0.012015
    24  C   -0.099538  -3.673839   0.013366   0.031204   0.007134   0.001297
    25  H   -0.039423   0.278685   0.021309   0.000026   0.000190   0.001737
    26  H    0.001773   0.208424   0.003282   0.000105   0.000056  -0.001266
    27  O    0.000231  -0.027303   0.000186  -0.000039   0.000005   0.000345
    28  O    0.005993   0.130696  -0.065378  -0.005815  -0.001537   0.007298
              13         14         15         16         17         18
     1  C    0.000982  -0.019134   0.023035   0.022240   0.088093  -0.001108
     2  C    0.074606  -0.044250   0.018608  -0.001538  -0.032441  -0.087601
     3  C    0.605698  -0.076189  -0.018418  -0.017350  -0.020959  -0.066831
     4  O    0.006263   0.005166  -0.001884  -0.000908   0.003017   0.321366
     5  H   -0.013377  -0.011601   0.020676  -0.004682   0.003244   0.054538
     6  O   -0.313059  -0.020726   0.101680  -0.026932   0.004374   0.009867
     7  H    0.001922   0.002992  -0.003186   0.003691   0.007332  -0.004739
     8  C   -0.179196   0.038720   0.023833  -0.009376   0.018206   0.001972
     9  C   -0.957853   0.072351  -0.154391   0.176198  -0.051138   0.025179
    10  H    0.114429   0.045855  -0.060609   0.027298  -0.100174  -0.005451
    11  O    0.002425   0.003993   0.001755   0.000162   0.372938   0.023863
    12  C    0.000179   0.054319   0.215353   0.048792  -0.004705   0.003193
    13  H    2.279380   0.026118  -0.137944   0.007967  -0.028079  -0.001068
    14  O    0.026118   8.517670  -0.184056  -0.059129  -0.000591  -0.001964
    15  H   -0.137944  -0.184056   1.845576  -0.385978   0.007264   0.000502
    16  H    0.007967  -0.059129  -0.385978   1.505307  -0.002243  -0.000197
    17  H   -0.028079  -0.000591   0.007264  -0.002243   0.625168  -0.004524
    18  H   -0.001068  -0.001964   0.000502  -0.000197  -0.004524   0.650520
    19  H    0.011329   0.176687   0.017067  -0.048478  -0.000086  -0.000148
    20  C    0.000982   0.003842  -0.003459  -0.001724   0.003008  -0.009601
    21  N   -0.000160  -0.000044   0.000163   0.000420  -0.000252   0.001196
    22  C    0.000046   0.000864  -0.000681  -0.000082   0.000248  -0.000572
    23  N   -0.001275  -0.011322  -0.000563  -0.000776   0.000109  -0.000020
    24  C    0.021521   0.040286  -0.016047   0.022598  -0.003509  -0.006545
    25  H    0.001734   0.000343   0.000210  -0.000095  -0.000199   0.001047
    26  H    0.000232   0.000133  -0.000201   0.000103  -0.000022  -0.000108
    27  O    0.000009  -0.000007   0.000022   0.000027  -0.000007   0.000034
    28  O   -0.001556  -0.052735   0.000561   0.003770   0.000591  -0.000270
              19         20         21         22         23         24
     1  C    0.022865   0.164285  -0.001260  -0.001828   0.038731  -0.186149
     2  C   -0.032493  -0.515218  -0.016045   0.040558  -0.087840  -0.011306
     3  C    0.060879  -1.867603   0.298896  -0.691320   0.425524  -0.494831
     4  O    0.001787   0.039544  -0.000890   0.004094  -0.005478   0.067327
     5  H    0.005470  -0.001598  -0.003840   0.009310   0.007169  -0.229152
     6  O    0.015068  -0.045947  -0.000697   0.011342  -0.020390   0.007324
     7  H   -0.007013   0.161086  -0.021772   0.008969  -0.001029  -0.099538
     8  C   -0.018128  -3.461670   0.005807   0.458238  -0.306484  -3.673839
     9  C   -0.065567  -0.141432  -0.004565   0.017533  -0.009957   0.013366
    10  H   -0.011695   0.006890   0.000148   0.000019   0.000620   0.031204
    11  O   -0.000688  -0.004925   0.000717  -0.000322  -0.000524   0.007134
    12  C   -0.000247  -0.003388   0.004834  -0.013449  -0.012015   0.001297
    13  H    0.011329   0.000982  -0.000160   0.000046  -0.001275   0.021521
    14  O    0.176687   0.003842  -0.000044   0.000864  -0.011322   0.040286
    15  H    0.017067  -0.003459   0.000163  -0.000681  -0.000563  -0.016047
    16  H   -0.048478  -0.001724   0.000420  -0.000082  -0.000776   0.022598
    17  H   -0.000086   0.003008  -0.000252   0.000248   0.000109  -0.003509
    18  H   -0.000148  -0.009601   0.001196  -0.000572  -0.000020  -0.006545
    19  H    0.577993   0.022194  -0.000309  -0.002636   0.005429  -0.048347
    20  C    0.022194  14.335741  -0.685164  -0.383699   0.398086  -1.826878
    21  N   -0.000309  -0.685164   8.108367  -0.114202   0.008218   0.253635
    22  C   -0.002636  -0.383699  -0.114202   6.486375  -0.068714  -0.300403
    23  N    0.005429   0.398086   0.008218  -0.068714   7.823436  -0.748580
    24  C   -0.048347  -1.826878   0.253635  -0.300403  -0.748580  12.858906
    25  H   -0.001295  -0.655376  -0.031386  -0.003451  -0.037361   0.017860
    26  H   -0.003806  -0.149766   0.030867  -0.152474   0.392644  -0.275124
    27  O    0.000320   0.029018  -0.088584   0.056796  -0.134436   0.128540
    28  O    0.064236  -0.051650   0.006563   0.008459  -0.269865  -0.052644
              25         26         27         28
     1  C   -0.031818  -0.003563  -0.000490   0.074761
     2  C    0.133743   0.003739  -0.002162  -0.013955
     3  C   -0.068743  -0.036541   0.034695  -0.005660
     4  O   -0.001007   0.000748  -0.000155  -0.008817
     5  H    0.016567   0.001507  -0.000266   0.061146
     6  O    0.046846   0.000226   0.000036  -0.011143
     7  H   -0.039423   0.001773   0.000231   0.005993
     8  C    0.278685   0.208424  -0.027303   0.130696
     9  C    0.021309   0.003282   0.000186  -0.065378
    10  H    0.000026   0.000105  -0.000039  -0.005815
    11  O    0.000190   0.000056   0.000005  -0.001537
    12  C    0.001737  -0.001266   0.000345   0.007298
    13  H    0.001734   0.000232   0.000009  -0.001556
    14  O    0.000343   0.000133  -0.000007  -0.052735
    15  H    0.000210  -0.000201   0.000022   0.000561
    16  H   -0.000095   0.000103   0.000027   0.003770
    17  H   -0.000199  -0.000022  -0.000007   0.000591
    18  H    0.001047  -0.000108   0.000034  -0.000270
    19  H   -0.001295  -0.003806   0.000320   0.064236
    20  C   -0.655376  -0.149766   0.029018  -0.051650
    21  N   -0.031386   0.030867  -0.088584   0.006563
    22  C   -0.003451  -0.152474   0.056796   0.008459
    23  N   -0.037361   0.392644  -0.134436  -0.269865
    24  C    0.017860  -0.275124   0.128540  -0.052644
    25  H    2.070503  -0.003786   0.002581  -0.007045
    26  H   -0.003786   1.141828  -0.005085  -0.041485
    27  O    0.002581  -0.005085   8.711060  -0.008901
    28  O   -0.007045  -0.041485  -0.008901   9.163836
 Mulliken charges:
               1
     1  C    1.243780
     2  C    0.533454
     3  C    1.210976
     4  O   -0.658672
     5  H   -0.538471
     6  O   -0.886024
     7  H   -0.737726
     8  C    1.086923
     9  C    0.791579
    10  H   -0.365027
    11  O   -0.771537
    12  C    1.023614
    13  H   -0.522254
    14  O   -0.507591
    15  H   -0.308887
    16  H   -0.259083
    17  H    0.115336
    18  H    0.097470
    19  H    0.259611
    20  C    0.644422
    21  N   -0.750663
    22  C    0.630979
    23  N   -0.383339
    24  C    0.501891
    25  H   -0.712399
    26  H   -0.112440
    27  O   -0.696468
    28  O   -0.929456
 Sum of Mulliken charges =  -1.00000
 Mulliken charges with hydrogens summed into heavy atoms:
               1
     1  C    0.878753
     2  C   -0.005017
     3  C    0.473250
     4  O   -0.561201
     6  O   -0.886024
     8  C    1.086923
     9  C    0.269325
    11  O   -0.656201
    12  C    0.455643
    14  O   -0.247980
    20  C   -0.067977
    21  N   -0.750663
    22  C    0.630979
    23  N   -0.495778
    24  C    0.501891
    27  O   -0.696468
    28  O   -0.929456
 Electronic spatial extent (au):  <R**2>=           4202.1576
 Charge=             -1.0000 electrons
 Dipole moment (field-independent basis, Debye):
    X=            -13.0275    Y=             -0.4273    Z=             -1.1340  Tot=             13.0838
 Quadrupole moment (field-independent basis, Debye-Ang):
   XX=           -154.9493   YY=           -114.7611   ZZ=           -109.0684
   XY=             12.7255   XZ=              6.7355   YZ=             -1.6245
 Traceless Quadrupole moment (field-independent basis, Debye-Ang):
   XX=            -28.6897   YY=             11.4985   ZZ=             17.1912
   XY=             12.7255   XZ=              6.7355   YZ=             -1.6245
 Octapole moment (field-independent basis, Debye-Ang**2):
  XXX=           -393.6654  YYY=            -14.7184  ZZZ=              4.4319  XYY=             -3.8334
  XXY=             15.8218  XXZ=              4.8599  XZZ=             -2.5399  YZZ=              5.9782
  YYZ=            -14.0782  XYZ=              1.5432
 Hexadecapole moment (field-independent basis, Debye-Ang**3):
 XXXX=          -5238.8201 YYYY=          -1168.5213 ZZZZ=           -455.5924 XXXY=            220.6545
 XXXZ=             71.7382 YYYX=            111.2692 YYYZ=            -25.2889 ZZZX=             17.1058
 ZZZY=              9.8340 XXYY=           -895.9918 XXZZ=           -745.0428 YYZZ=           -280.3953
 XXYZ=            -31.1735 YYXZ=             31.9414 ZZXY=             17.5182
 N-N= 1.306570889546D+03 E-N=-4.763305569598D+03  KE= 9.049507466882D+02
 Calling FoFJK, ICntrl=      2127 FMM=F ISym2X=0 I1Cent= 0 IOpClX= 0 NMat=1 NMatS=1 NMatT=0.
 ***** Axes restored to original set *****
 -------------------------------------------------------------------
 Center     Atomic                   Forces (Hartrees/Bohr)
 Number     Number              X              Y              Z
 -------------------------------------------------------------------
      1        6           0.001700954    0.001839330    0.002914072
      2        6          -0.000696245    0.004120342   -0.006260806
      3        6           0.013773559    0.001060272    0.008630489
      4        8          -0.003415531   -0.003410468    0.003280430
      5        1           0.001061689    0.000018763   -0.000668806
      6        8          -0.014816441    0.005428120   -0.002331491
      7        1          -0.000281031   -0.000493155   -0.000419510
      8        6          -0.024085571    0.023854930    0.010247054
      9        6           0.007734541   -0.001602924   -0.002059322
     10        1          -0.001750377   -0.000035307    0.000195468
     11        8          -0.004182812   -0.003146687   -0.000880262
     12        6           0.001331507   -0.000447650    0.002439831
     13        1          -0.002220291   -0.000215761   -0.000848885
     14        8          -0.006453480    0.002349527   -0.001060871
     15        1          -0.001451674    0.000326434    0.000221232
     16        1           0.000506084    0.000066827   -0.000605438
     17        1           0.000940890    0.000873274   -0.000251948
     18        1           0.001933291    0.000873960   -0.000733912
     19        1           0.009078594   -0.003208640    0.000055340
     20        6           0.063996492    0.017470872    0.010331628
     21        7          -0.004249906   -0.021666735   -0.010510489
     22        6          -0.044677599   -0.047697171   -0.022530706
     23        7          -0.005773664    0.018286248    0.007690516
     24        6           0.015672980   -0.035432165   -0.014714863
     25        1          -0.001178013   -0.003438079   -0.001578928
     26        1          -0.003584819    0.001475542    0.000433260
     27        8           0.023000732    0.016278122    0.008056309
     28        8          -0.021913861    0.026472180    0.010960607
 -------------------------------------------------------------------
 Cartesian Forces:  Max     0.063996492 RMS     0.013957140

 GradGradGradGradGradGradGradGradGradGradGradGradGradGradGradGradGradGrad
 Berny optimization.
 FormGI is forming the generalized inverse of G from B-inverse, IUseBI=4.
 Internal  Forces:  Max     0.036050915 RMS     0.007660723
 Search for a local minimum.
 Step number   1 out of a maximum of  166
 All quantities printed in internal units (Hartrees-Bohrs-Radians)
 Mixed Optimization -- RFO/linear search
 Second derivative matrix not updated -- first step.
 ITU=  0
     Eigenvalues ---    0.00498   0.00516   0.00841   0.00846   0.01332
     Eigenvalues ---    0.01476   0.01531   0.01636   0.01689   0.01697
     Eigenvalues ---    0.01864   0.01952   0.01957   0.02298   0.02541
     Eigenvalues ---    0.03100   0.03712   0.04334   0.04899   0.04928
     Eigenvalues ---    0.05065   0.05432   0.05545   0.05869   0.06084
     Eigenvalues ---    0.06229   0.06897   0.07722   0.08366   0.09841
     Eigenvalues ---    0.11643   0.13211   0.14011   0.15998   0.16000
     Eigenvalues ---    0.16000   0.16000   0.16000   0.16003   0.16829
     Eigenvalues ---    0.18317   0.20261   0.22069   0.22928   0.23834
     Eigenvalues ---    0.24991   0.24998   0.24999   0.25000   0.26189
     Eigenvalues ---    0.28345   0.28529   0.30473   0.32977   0.33019
     Eigenvalues ---    0.33215   0.33334   0.33606   0.33874   0.34245
     Eigenvalues ---    0.34906   0.36254   0.38179   0.40831   0.41397
     Eigenvalues ---    0.44096   0.44923   0.45423   0.45583   0.46819
     Eigenvalues ---    0.48268   0.50710   0.52642   0.53196   0.54037
     Eigenvalues ---    0.55462   0.93386   0.97964
 RFO step:  Lambda=-2.45284407D-02 EMin= 4.97556150D-03
 Linear search not attempted -- first point.
 Iteration  1 RMS(Cart)=  0.10843235 RMS(Int)=  0.00316168
 Iteration  2 RMS(Cart)=  0.00513634 RMS(Int)=  0.00015839
 Iteration  3 RMS(Cart)=  0.00001322 RMS(Int)=  0.00015828
 Iteration  4 RMS(Cart)=  0.00000000 RMS(Int)=  0.00015828
 Variable       Old X    -DE/DX   Delta X   Delta X   Delta X     New X
                                 (Linear)    (Quad)   (Total)
    R1        2.89171   0.00122   0.00000   0.00261   0.00264   2.89435
    R2        2.89318   0.00020   0.00000  -0.00385  -0.00384   2.88934
    R3        2.07544   0.00115   0.00000   0.00317   0.00317   2.07861
    R4        2.69698   0.00348   0.00000   0.00794   0.00794   2.70491
    R5        2.90982  -0.00033   0.00000   0.00206   0.00200   2.91182
    R6        2.64604   0.00330   0.00000   0.00688   0.00688   2.65292
    R7        2.06919  -0.00010   0.00000  -0.00026  -0.00026   2.06893
    R8        2.67707   0.00747   0.00000   0.01913   0.01913   2.69620
    R9        2.09091   0.00065   0.00000   0.00183   0.00183   2.09274
   R10        2.82318  -0.00379   0.00000  -0.01069  -0.01069   2.81249
   R11        1.82698  -0.00153   0.00000  -0.00270  -0.00270   1.82427
   R12        2.71523  -0.00789   0.00000  -0.01928  -0.01927   2.69597
   R13        2.55832   0.03520   0.00000   0.06166   0.06187   2.62019
   R14        2.75768  -0.02162   0.00000  -0.05354  -0.05357   2.70411
   R15        2.87031  -0.00110   0.00000  -0.00335  -0.00335   2.86696
   R16        2.08468   0.00201   0.00000   0.00563   0.00563   2.09031
   R17        1.81424  -0.00082   0.00000  -0.00141  -0.00141   1.81283
   R18        2.65365   0.00012   0.00000   0.00025   0.00025   2.65390
   R19        2.08000   0.00150   0.00000   0.00416   0.00416   2.08416
   R20        2.08675   0.00066   0.00000   0.00185   0.00185   2.08860
   R21        1.83990   0.00936   0.00000   0.01698   0.01698   1.85688
   R22        2.58256  -0.03109   0.00000  -0.05878  -0.05853   2.52403
   R23        2.05827   0.00396   0.00000   0.01059   0.01059   2.06886
   R24        2.61297  -0.01299   0.00000  -0.02643  -0.02639   2.58658
   R25        2.60545   0.02056   0.00000   0.04022   0.04001   2.64546
   R26        2.29465   0.02608   0.00000   0.02597   0.02597   2.32062
   R27        2.63398  -0.01041   0.00000  -0.01981  -0.02006   2.61393
   R28        1.91487   0.00026   0.00000   0.00053   0.00053   1.91541
   R29        2.31411   0.03605   0.00000   0.03762   0.03762   2.35172
    A1        1.80085  -0.00255   0.00000  -0.00964  -0.00955   1.79130
    A2        1.95313  -0.00008   0.00000  -0.00117  -0.00122   1.95191
    A3        1.84221   0.00373   0.00000   0.02481   0.02477   1.86697
    A4        1.95855   0.00073   0.00000  -0.00194  -0.00184   1.95671
    A5        1.96214  -0.00026   0.00000  -0.00125  -0.00144   1.96070
    A6        1.93945  -0.00142   0.00000  -0.00902  -0.00905   1.93040
    A7        1.76281   0.00303   0.00000   0.02439   0.02418   1.78700
    A8        1.99902  -0.00105   0.00000  -0.00348  -0.00390   1.99512
    A9        1.90458  -0.00169   0.00000  -0.01561  -0.01535   1.88924
   A10        1.98310   0.00042   0.00000   0.00951   0.00966   1.99275
   A11        1.91911  -0.00175   0.00000  -0.01664  -0.01664   1.90247
   A12        1.89154   0.00090   0.00000   0.00090   0.00083   1.89237
   A13        1.84088  -0.00368   0.00000  -0.01476  -0.01522   1.82566
   A14        1.86929   0.00050   0.00000   0.00434   0.00443   1.87372
   A15        2.01277  -0.00000   0.00000  -0.00687  -0.00693   2.00584
   A16        1.92740  -0.00003   0.00000  -0.00149  -0.00127   1.92613
   A17        1.92160   0.00147   0.00000  -0.00616  -0.00632   1.91528
   A18        1.89078   0.00161   0.00000   0.02420   0.02413   1.91491
   A19        1.85546  -0.00093   0.00000  -0.00503  -0.00503   1.85042
   A20        1.92291   0.00129   0.00000   0.01705   0.01675   1.93966
   A21        2.11215   0.01268   0.00000   0.04630   0.04623   2.15838
   A22        2.11379  -0.01247   0.00000  -0.04535  -0.04544   2.06835
   A23        2.05697  -0.00021   0.00000  -0.00081  -0.00068   2.05630
   A24        1.86179   0.00318   0.00000   0.00796   0.00748   1.86927
   A25        1.98790   0.00039   0.00000  -0.00272  -0.00260   1.98530
   A26        1.91371  -0.00162   0.00000  -0.00213  -0.00235   1.91136
   A27        1.89616  -0.00572   0.00000  -0.03712  -0.03705   1.85911
   A28        1.89118   0.00154   0.00000   0.01695   0.01713   1.90831
   A29        1.91033   0.00225   0.00000   0.01738   0.01748   1.92782
   A30        1.90728  -0.00146   0.00000  -0.00792  -0.00792   1.89936
   A31        1.96942  -0.00361   0.00000  -0.01582  -0.01592   1.95350
   A32        1.90128   0.00203   0.00000   0.01489   0.01496   1.91624
   A33        1.88693  -0.00040   0.00000  -0.00892  -0.00907   1.87786
   A34        1.87035   0.00148   0.00000   0.01237   0.01244   1.88279
   A35        1.95401   0.00088   0.00000  -0.00394  -0.00418   1.94983
   A36        1.87930  -0.00017   0.00000   0.00312   0.00316   1.88247
   A37        1.89645   0.00064   0.00000   0.00347   0.00347   1.89992
   A38        2.14668   0.02098   0.00000   0.08106   0.08146   2.22814
   A39        2.11918  -0.01071   0.00000  -0.04172  -0.04192   2.07726
   A40        2.01731  -0.01027   0.00000  -0.03932  -0.03952   1.97779
   A41        2.15456  -0.02991   0.00000  -0.11669  -0.11630   2.03826
   A42        1.96890   0.02156   0.00000   0.07659   0.07641   2.04531
   A43        2.14990   0.00456   0.00000   0.01758   0.01766   2.16756
   A44        2.16438  -0.02612   0.00000  -0.09417  -0.09408   2.07030
   A45        2.23844  -0.00198   0.00000  -0.00560  -0.00604   2.23240
   A46        2.01793   0.00472   0.00000   0.02302   0.02324   2.04117
   A47        2.02665  -0.00274   0.00000  -0.01738  -0.01716   2.00948
   A48        2.00065  -0.01044   0.00000  -0.03450  -0.03482   1.96583
   A49        2.21087   0.00386   0.00000   0.01231   0.01246   2.22333
   A50        2.07165   0.00658   0.00000   0.02222   0.02238   2.09402
    D1       -0.58615   0.00082   0.00000   0.01421   0.01464  -0.57151
    D2       -2.72440  -0.00117   0.00000  -0.01177  -0.01149  -2.73589
    D3        1.43517  -0.00035   0.00000   0.00118   0.00137   1.43653
    D4       -2.69531   0.00153   0.00000   0.02299   0.02319  -2.67213
    D5        1.44962  -0.00045   0.00000  -0.00299  -0.00295   1.44668
    D6       -0.67400   0.00037   0.00000   0.00995   0.00991  -0.66409
    D7        1.47599   0.00094   0.00000   0.01884   0.01901   1.49501
    D8       -0.66225  -0.00104   0.00000  -0.00714  -0.00712  -0.66937
    D9       -2.78588  -0.00022   0.00000   0.00581   0.00574  -2.78014
   D10        0.36827  -0.00053   0.00000   0.00931   0.00924   0.37751
   D11       -1.72344   0.00421   0.00000   0.05180   0.05173  -1.67171
   D12        2.41256   0.00222   0.00000   0.03266   0.03252   2.44509
   D13        2.47374  -0.00181   0.00000   0.00100   0.00107   2.47481
   D14        0.38203   0.00292   0.00000   0.04350   0.04356   0.42559
   D15       -1.76515   0.00094   0.00000   0.02435   0.02435  -1.74080
   D16       -1.60805  -0.00335   0.00000  -0.01375  -0.01372  -1.62177
   D17        2.58342   0.00138   0.00000   0.02875   0.02878   2.61220
   D18        0.43624  -0.00060   0.00000   0.00960   0.00957   0.44581
   D19        2.94092   0.00119   0.00000   0.01182   0.01176   2.95268
   D20       -1.39152   0.00013   0.00000   0.01367   0.01366  -1.37786
   D21        0.82016  -0.00024   0.00000   0.00284   0.00291   0.82307
   D22        0.62224  -0.00229   0.00000  -0.04321  -0.04311   0.57912
   D23       -1.43125  -0.00068   0.00000  -0.03628  -0.03627  -1.46752
   D24        2.74632  -0.00311   0.00000  -0.06599  -0.06597   2.68035
   D25        2.77151  -0.00138   0.00000  -0.02665  -0.02644   2.74508
   D26        0.71802   0.00023   0.00000  -0.01972  -0.01959   0.69844
   D27       -1.38759  -0.00220   0.00000  -0.04943  -0.04929  -1.43688
   D28       -1.38827  -0.00120   0.00000  -0.03115  -0.03099  -1.41925
   D29        2.84143   0.00041   0.00000  -0.02422  -0.02414   2.81729
   D30        0.73582  -0.00202   0.00000  -0.05392  -0.05384   0.68198
   D31        0.54687   0.00283   0.00000   0.04140   0.04131   0.58817
   D32       -1.46689  -0.00069   0.00000   0.00527   0.00533  -1.46156
   D33        2.67761   0.00061   0.00000   0.01956   0.01959   2.69720
   D34       -0.41466   0.00233   0.00000   0.05421   0.05414  -0.36051
   D35        1.59926   0.00091   0.00000   0.05055   0.05052   1.64978
   D36       -2.59672   0.00382   0.00000   0.07571   0.07563  -2.52109
   D37        2.04257   0.00222   0.00000   0.02688   0.02704   2.06961
   D38       -1.07343   0.00199   0.00000   0.02074   0.02093  -1.05250
   D39       -2.16062  -0.00147   0.00000  -0.00160  -0.00179  -2.16241
   D40        1.00657  -0.00170   0.00000  -0.00774  -0.00790   0.99867
   D41       -0.05129   0.00038   0.00000   0.00796   0.00795  -0.04334
   D42        3.11589   0.00016   0.00000   0.00182   0.00184   3.11774
   D43        0.02805  -0.00111   0.00000  -0.03898  -0.03941  -0.01136
   D44        2.17803  -0.00205   0.00000  -0.05896  -0.05911   2.11892
   D45       -2.03111  -0.00171   0.00000  -0.04949  -0.04980  -2.08091
   D46       -3.10905  -0.00007   0.00000  -0.00738  -0.00767  -3.11672
   D47        0.02610   0.00008   0.00000  -0.00223  -0.00240   0.02369
   D48        0.00776  -0.00004   0.00000  -0.00210  -0.00225   0.00551
   D49       -3.14028   0.00011   0.00000   0.00305   0.00302  -3.13726
   D50        3.12385   0.00054   0.00000   0.00691   0.00660   3.13046
   D51       -0.01073   0.00024   0.00000   0.00132   0.00119  -0.00954
   D52        0.00707   0.00013   0.00000   0.00026   0.00013   0.00720
   D53       -3.12752  -0.00017   0.00000  -0.00533  -0.00528  -3.13280
   D54        0.84305   0.00133   0.00000   0.01491   0.01491   0.85796
   D55       -1.23183   0.00037   0.00000  -0.00068  -0.00060  -1.23243
   D56        3.01384  -0.00030   0.00000  -0.00752  -0.00738   3.00646
   D57       -1.22916   0.00103   0.00000   0.03220   0.03203  -1.19713
   D58        2.97915   0.00006   0.00000   0.01661   0.01651   2.99566
   D59        0.94163  -0.00061   0.00000   0.00977   0.00973   0.95136
   D60        2.99207   0.00121   0.00000   0.02341   0.02336   3.01543
   D61        0.91719   0.00024   0.00000   0.00781   0.00785   0.92504
   D62       -1.12033  -0.00043   0.00000   0.00098   0.00107  -1.11926
   D63        1.06234  -0.00260   0.00000  -0.04643  -0.04637   1.01597
   D64       -3.12808  -0.00126   0.00000  -0.02923  -0.02925   3.12586
   D65       -1.07122  -0.00005   0.00000  -0.01999  -0.02003  -1.09125
   D66       -0.01395   0.00028   0.00000   0.00482   0.00474  -0.00921
   D67        3.13374   0.00014   0.00000  -0.00001  -0.00023   3.13351
   D68        0.00357  -0.00021   0.00000  -0.00393  -0.00387  -0.00030
   D69       -3.13645  -0.00003   0.00000  -0.00103  -0.00080  -3.13724
   D70        0.01343   0.00005   0.00000   0.00097   0.00110   0.01454
   D71        3.13425   0.00019   0.00000   0.00340   0.00347   3.13772
   D72       -3.12975  -0.00009   0.00000  -0.00184  -0.00169  -3.13144
   D73       -0.00893   0.00005   0.00000   0.00059   0.00068  -0.00825
   D74       -0.01871   0.00015   0.00000   0.00114   0.00119  -0.01752
   D75        3.11647   0.00043   0.00000   0.00624   0.00614   3.12261
   D76       -3.13944  -0.00007   0.00000  -0.00171  -0.00155  -3.14099
   D77       -0.00426   0.00021   0.00000   0.00338   0.00340  -0.00086
         Item               Value     Threshold  Converged?
 Maximum Force            0.036051     0.000450     NO 
 RMS     Force            0.007661     0.000300     NO 
 Maximum Displacement     0.469254     0.001800     NO 
 RMS     Displacement     0.110285     0.001200     NO 
 Predicted change in Energy=-1.374661D-02
 GradGradGradGradGradGradGradGradGradGradGradGradGradGradGradGradGradGrad

                          Input orientation:                          
 ---------------------------------------------------------------------
 Center     Atomic      Atomic             Coordinates (Angstroms)
 Number     Number       Type             X           Y           Z
 ---------------------------------------------------------------------
      1          6           0       -2.761385   -0.518641    0.308881
      2          6           0       -1.344061   -0.826287    0.801232
      3          6           0       -0.526894   -0.797354   -0.504783
      4          8           0       -1.230623   -2.024437    1.524002
      5          1           0       -1.018074   -0.002192    1.444075
      6          8           0       -1.169297    0.190487   -1.309241
      7          1           0       -0.619009   -1.796086   -0.974310
      8          6           0        0.911064   -0.451906   -0.337443
      9          6           0       -2.508862    0.416910   -0.873798
     10          1           0       -3.371671   -0.042574    1.090422
     11          8           0       -3.342276   -1.762667   -0.095856
     12          6           0       -2.604306    1.889017   -0.519573
     13          1           0       -3.207581    0.170872   -1.695266
     14          8           0       -1.852619    2.202957    0.624413
     15          1           0       -3.654972    2.157374   -0.318443
     16          1           0       -2.269517    2.466911   -1.400201
     17          1           0       -4.280240   -1.631277   -0.248264
     18          1           0       -1.868200   -2.633795    1.131437
     19          1           0       -0.914887    1.955785    0.465967
     20          6           0        1.950858   -1.303361   -0.678557
     21          7           0        3.261571   -1.087580   -0.539090
     22          6           0        3.635186    0.116808   -0.006767
     23          7           0        2.612518    1.007514    0.340457
     24          6           0        1.246824    0.819110    0.227717
     25          1           0        1.716446   -2.279091   -1.116251
     26          1           0        2.893099    1.896882    0.737525
     27          8           0        4.800328    0.458455    0.176972
     28          8           0        0.463115    1.709950    0.603121
 ---------------------------------------------------------------------
                    Distance matrix (angstroms):
                    1          2          3          4          5
     1  C    0.000000
     2  C    1.531621   0.000000
     3  C    2.394302   1.540868   0.000000
     4  O    2.467220   1.403862   2.473244   0.000000
     5  H    2.143484   1.094828   2.161386   2.034955   0.000000
     6  O    2.378219   2.349142   1.426768   3.596793   2.764190
     7  H    2.805035   2.149129   1.107433   2.582204   3.037416
     8  C    3.729487   2.553885   1.488308   3.244172   2.664136
     9  C    1.528972   2.389148   2.353467   3.652878   2.787586
    10  H    1.099953   2.192953   3.347705   2.949553   2.380362
    11  O    1.431379   2.382108   3.004235   2.674237   3.297360
    12  C    2.551045   3.271945   3.395946   4.623671   3.154159
    13  H    2.165901   3.271015   3.088818   4.369375   3.831365
    14  O    2.886609   3.076721   3.469077   4.366578   2.496196
    15  H    2.890171   3.936524   4.306973   5.172970   3.837112
    16  H    3.475115   4.067915   3.807090   5.459165   3.968940
    17  H    1.963489   3.220342   3.853419   3.549038   4.019908
    18  H    2.438904   1.910718   2.801577   0.965364   2.783127
    19  H    3.091443   2.834875   2.944939   4.130532   2.191122
    20  C    4.878120   3.643331   2.534856   3.936120   3.874682
    21  N    6.108908   4.803809   3.799721   5.031288   4.840080
    22  C    6.435803   5.131783   4.290294   5.532114   4.875647
    23  N    5.586500   4.385163   3.718587   5.036193   3.926662
    24  C    4.226335   3.122329   2.509101   3.987965   2.698857
    25  H    5.018083   3.892824   2.757174   3.964972   4.383735
    26  H    6.163739   5.037185   4.527537   5.744595   4.404880
    27  O    7.625721   6.308230   5.515536   6.659700   5.972565
    28  O    3.930725   3.120518   2.914471   4.202668   2.415068
                    6          7          8          9         10
     6  O    0.000000
     7  H    2.088414   0.000000
     8  C    2.384316   2.133904   0.000000
     9  C    1.426643   2.911872   3.569091   0.000000
    10  H    3.265448   3.862004   4.533009   2.194021   0.000000
    11  O    3.163693   2.861639   4.457282   2.459742   2.089699
    12  C    2.359625   4.210484   4.227401   1.517130   2.629064
    13  H    2.074608   3.330076   4.381184   1.106143   2.798669
    14  O    2.873322   4.479961   3.951127   2.421828   2.750835
    15  H    3.320980   5.027632   5.259029   2.156665   2.627723
    16  H    2.529992   4.591155   4.445789   2.129998   3.703440
    17  H    3.757987   3.736163   5.324331   2.779234   2.267500
    18  H    3.797624   2.587741   3.826559   3.706511   2.996087
    19  H    2.516418   4.029699   3.126745   2.589182   3.227874
    20  C    3.516349   2.633337   1.386545   4.783989   5.748755
    21  N    4.675381   3.968665   2.443283   5.972723   6.909939
    22  C    4.978447   4.763768   2.802432   6.212176   7.094032
    23  N    4.206086   4.475662   2.341879   5.296391   6.121736
    24  C    2.931731   3.430081   1.430951   3.934498   4.776742
    25  H    3.803101   2.389098   2.143313   5.018011   5.979996
    26  H    4.858405   5.376179   3.255891   5.828195   6.567600
    27  O    6.157683   5.981439   4.027375   7.384450   8.238142
    28  O    2.937799   3.993942   2.399779   3.561726   4.244336
                   11         12         13         14         15
    11  O    0.000000
    12  C    3.749524   0.000000
    13  H    2.512933   2.167537   0.000000
    14  O    4.296980   1.404384   3.368412   0.000000
    15  H    3.938787   1.102891   2.458046   2.034584   0.000000
    16  H    4.554280   1.105238   2.497763   2.083876   1.784798
    17  H    0.959306   3.908303   2.547971   4.621283   3.840542
    18  H    2.106660   4.870679   4.201233   4.863279   5.315074
    19  H    4.476019   1.957009   3.621227   0.982620   2.857272
    20  C    5.344882   5.564717   5.460453   5.334644   6.597856
    21  N    6.653044   6.577920   6.691067   6.191633   7.643101
    22  C    7.226711   6.506533   7.048221   5.904779   7.576772
    23  N    6.582085   5.360220   6.222354   4.631109   6.406072
    24  C    5.275426   4.066245   4.894875   3.417448   5.110465
    25  H    5.186383   6.033079   5.530246   5.988062   7.012193
    26  H    7.277824   5.639311   6.790867   4.756923   6.637783
    27  O    8.444514   7.573658   8.228887   6.892401   8.638510
    28  O    5.198908   3.271327   4.596232   2.367728   4.243596
                   16         17         18         19         20
    16  H    0.000000
    17  H    4.707984   0.000000
    18  H    5.708542   2.954075   0.000000
    19  H    2.361960   4.970185   4.734543   0.000000
    20  C    5.705022   6.254539   4.430726   4.488258   0.000000
    21  N    6.630901   7.566975   5.612129   5.264505   1.335658
    22  C    6.506163   8.109754   6.256883   4.930363   2.303290
    23  N    5.384607   7.404048   5.827659   3.654799   2.610809
[...]
 ,0.00001359,0.00000978,0.00010797,-0.00001071,0.00004058,0.00007399,0.
 00007072,-0.00008203,-0.00047869,0.00000791,-0.00007736,-0.00823062,-0
 .02235851,-0.07332057,0.03945479,0.13879141,0.14024626,-0.00046174,-0.
 00043716,-0.00107768,0.00055977,-0.00124682,0.00179219,-0.00562429,-0.
 00002262,-0.00214364,0.00068456,0.00121487,-0.00098443,-0.00036693,-0.
 00000895,0.00029905,0.00412567,-0.00139945,0.00105359,0.00047517,0.000
 89390,0.00030576,0.00520161,0.00431620,0.00122631,-0.00190285,0.000580
 64,0.00077468,0.00044222,-0.00004193,-0.00000676,0.00105342,0.00079982
 ,0.00045992,-0.00043437,0.00002667,-0.00097018,0.00065774,-0.00001423,
 0.00017992,0.00276537,-0.00081045,0.00033952,0.00044508,-0.00010682,0.
 00000596,-0.00016494,-0.00000668,0.00020281,-0.00047600,-0.00027976,-0
 .00023175,-0.00031101,-0.00024231,0.00021328,-0.00409666,0.00120290,0.
 00013604,-0.03468996,-0.04836248,-0.02087483,-0.11990020,-0.02318147,-
 0.00902244,0.89088792,0.00004735,-0.00012785,-0.00125594,0.00108049,-0
 .00048408,0.00240917,-0.00501655,-0.00354375,-0.00408814,0.00031756,0.
 00039825,-0.00072483,-0.00008850,0.00018081,-0.00005927,0.00478962,-0.
 00218643,0.00124112,-0.00019315,0.00010660,0.00003400,0.01867574,-0.04
 838189,-0.02230027,-0.00126409,0.00079791,0.00112782,0.00052161,-0.000
 00132,0.00002762,0.00049893,0.00012426,0.00024161,0.00053942,0.0006430
 1,0.00077735,0.00061305,-0.00016592,-0.00002203,-0.00227907,-0.0004971
 2,-0.00052253,-0.00001503,-0.00018474,-0.00017105,-0.00004577,-0.00005
 991,-0.00000855,-0.00029807,-0.00007991,-0.00012290,-0.00023225,-0.000
 14700,0.00010200,0.00286007,-0.00006308,-0.00003706,-0.08017925,-0.001
 71299,0.00418508,-0.03367099,-0.23157976,-0.06650263,0.14502964,0.5418
 8975,0.00008218,-0.00008738,-0.00054477,0.00062401,-0.00004390,0.00117
 474,-0.00204975,-0.00169037,-0.00143547,0.00002382,0.00023419,-0.00043
 761,0.00002854,0.00007741,-0.00004337,0.00184800,-0.00097030,0.0000785
 9,-0.00014795,0.00017546,0.00011823,0.00810239,-0.02055897,-0.01293085
 ,-0.00060502,0.00028932,0.00048062,0.00023421,-0.00001004,0.00000621,0
 .00012706,0.00006714,0.00002128,0.00020700,0.00025294,0.00037599,0.000
 24406,-0.00007086,-0.00001762,-0.00080847,-0.00013387,-0.00051468,-0.0
 0001312,-0.00007496,-0.00008801,-0.00002576,0.00000491,-0.00003638,-0.
 00012216,-0.00004741,-0.00002125,-0.00007077,-0.00006874,0.00006765,0.
 00104104,-0.00025041,0.00061266,-0.03515782,0.00287230,-0.00317374,-0.
 01382564,-0.06710612,-0.10999087,0.04709552,0.13726390,0.28550542,0.00
 051186,0.00036602,0.00007337,-0.00006554,0.00118480,0.00033509,0.00263
 446,-0.00168184,-0.00055948,-0.00024706,-0.00097372,0.00031962,0.00032
 532,0.00045038,-0.00055400,-0.00021265,-0.00048686,-0.00046822,-0.0003
 2188,-0.00042731,-0.00010937,-0.01563137,-0.04909246,-0.02160125,0.000
 55033,0.00032455,0.00013204,0.00001146,0.00006996,-0.00000750,-0.00051
 686,-0.00072074,-0.00023115,0.00114074,0.00072970,0.00250977,-0.000133
 06,-0.00018729,-0.00020308,-0.00677847,0.00075161,-0.00120601,-0.00057
 396,-0.00008762,-0.00032418,0.00010781,-0.00001137,-0.00038590,0.00014
 571,0.00018588,0.00010133,0.00010362,0.00004303,-0.00009079,0.01016905
 ,-0.00257639,0.00008179,-0.04516444,0.00799801,0.00481987,0.04278719,0
 .02665216,0.01127887,-0.15356278,-0.00319828,0.00139204,0.72009314,-0.
 00024718,-0.00021615,-0.00009302,0.00120509,-0.00028419,-0.00072564,0.
 00009101,-0.00565450,-0.00337136,-0.00012960,0.00043850,0.00024085,-0.
 00019294,-0.00015753,0.00055339,-0.00040734,0.00140345,0.00008940,-0.0
 0176171,-0.00071820,-0.00023827,-0.03909643,0.00552815,-0.00126173,0.0
 0028239,-0.00035449,-0.00025601,-0.00009198,-0.00003134,0.00004323,-0.
 00002124,0.00046527,0.00011785,-0.00058545,-0.00062826,-0.00136430,-0.
 00006572,0.00011889,0.00006992,0.00453379,-0.00039291,0.00084665,0.000
 29713,0.00011029,0.00025665,-0.00002153,0.00002626,0.00018375,0.000210
 61,-0.00008251,0.00005905,0.00012615,0.00002295,-0.00009120,-0.0061117
 1,0.00156144,-0.00064996,0.01567698,-0.00642898,-0.00242817,0.00554866
 ,-0.04719701,-0.02857043,0.04953417,-0.17410535,-0.05236636,0.07214107
 ,0.68690716,-0.00020266,-0.00018150,0.00008772,-0.00033954,-0.00035632
 ,-0.00042576,0.00002230,-0.00417561,0.00227257,-0.00002902,0.00015490,
 0.00023687,-0.00009862,-0.00014116,0.00006252,0.00088817,0.00061479,0.
 00047346,-0.00088241,-0.00004667,-0.00035510,-0.01658404,-0.00102421,0
 .01120453,0.00024351,-0.00011191,0.00006878,-0.00008019,-0.00001164,-0
 .00000848,0.00002268,0.00019170,0.00006506,-0.00044099,-0.00022667,-0.
 00088002,0.00005070,0.00005674,0.00002331,0.00263708,-0.00023682,0.000
 20686,0.00010873,0.00005509,0.00012804,-0.00002193,-0.00000841,0.00013
 166,0.00009968,-0.00003835,0.00001451,0.00005237,0.00001655,-0.0000515
 8,-0.00343365,0.00055995,0.00064485,0.00839936,-0.00236021,-0.00259430
 ,0.00156784,-0.02920066,0.00285826,0.02433571,-0.05024922,-0.08235590,
 0.01431179,0.27239385,0.18362919,-0.00113839,-0.00058489,0.00059535,0.
 00021149,-0.00293060,-0.00343274,-0.00708274,-0.03291686,-0.01135869,0
 .00052037,0.00197463,0.00032163,-0.00227746,-0.00089373,0.00267632,0.0
 0022000,0.00462385,0.00083168,-0.00611256,-0.00170376,-0.00016507,-0.1
 4342329,-0.04222717,-0.01540688,-0.00080508,-0.00079903,-0.00114232,-0
 .00029588,0.00002674,-0.00006103,0.00055801,0.00145804,0.00054639,-0.0
 0270232,-0.00087851,-0.00287856,0.00004973,0.00025958,0.00031789,0.004
 82348,-0.00072614,0.00079547,0.00062323,0.00012006,0.00014520,-0.00020
 827,0.00011500,0.00032649,0.00037204,-0.00025397,0.00008195,0.00007405
 ,0.00022618,-0.00022393,-0.00893449,0.00533429,0.00263930,0.06098348,0
 .01587125,0.00509529,-0.03325284,-0.03571195,-0.01537238,-0.03966190,0
 .07240684,0.03272125,-0.26744192,-0.06445239,-0.02311626,0.67714022,0.
 00160769,0.00070732,-0.00205731,0.00139145,0.00120382,0.00348173,-0.02
 158969,0.00264081,-0.00514500,0.00072024,-0.00243046,-0.00085606,0.001
 48282,0.00182955,-0.00208642,0.00863081,-0.00976316,0.00143839,0.00042
 930,0.00128526,-0.00091374,-0.06431852,-0.20748185,-0.05485584,-0.0017
 6657,0.00179195,0.00236448,0.00115798,0.00003046,-0.00003956,0.0001867
 8,-0.00160135,-0.00007256,0.00428720,0.00309553,0.00635909,0.00075463,
 -0.00070406,-0.00039147,-0.01956123,0.00108954,-0.00322828,-0.00117527
 ,-0.00066958,-0.00100332,0.00018482,-0.00019105,-0.00075977,-0.0007604
 3,0.00025359,-0.00020461,-0.00057940,-0.00034376,0.00036641,0.02737832
 ,-0.00741948,-0.00014364,0.05399174,-0.04116325,-0.01966645,-0.0421806
 0,-0.02567923,-0.00980918,0.01104416,0.06145917,0.03286498,-0.01436285
 ,-0.14490166,-0.03879283,-0.09244603,0.72757936,0.00094003,0.00024566,
 -0.00079910,0.00063824,0.00191680,0.00296399,-0.01126125,0.00303356,-0
 .00349171,0.00028889,-0.00113375,-0.00078793,0.00156562,0.00072390,-0.
 00129863,0.00503000,-0.00514228,0.00118273,0.00101496,-0.00054959,0.00
 140229,-0.02376425,-0.05447792,-0.10327263,-0.00175091,0.00082589,0.00
 150337,0.00046917,0.00005848,-0.00008005,-0.00010438,-0.00077731,-0.00
 035328,0.00232382,0.00138215,0.00352043,0.00050814,-0.00040291,-0.0002
 2677,-0.01034730,0.00032198,-0.00095638,-0.00048877,-0.00031281,-0.000
 56541,0.00013085,0.00005213,-0.00045971,-0.00042623,0.00001602,-0.0000
 0865,-0.00020761,-0.00025761,0.00015545,0.01399326,-0.00227842,-0.0019
 9656,0.02117120,-0.01962896,-0.00810385,-0.01705616,-0.00878349,-0.005
 83557,0.00561861,0.02967306,0.00096532,-0.00161227,-0.03743819,-0.0727
 7278,-0.05322415,0.22943491,0.30920316,-0.00002762,0.00000915,-0.00003
 445,-0.00013569,-0.00020302,0.00005865,0.00077916,0.00319074,0.0009317
 4,0.00002298,0.00008029,-0.00010847,0.00002458,0.00000787,-0.00007881,
 0.00026594,-0.00052285,0.00019147,0.00006132,-0.00075322,-0.00025111,0
 .00667719,0.01526826,0.00706859,-0.00017614,0.00006687,0.00006801,0.00
 002804,-0.00000049,-0.00001145,0.00008308,0.00003065,0.00000830,0.0000
 0620,0.00001785,-0.00000596,0.00005551,0.00000206,0.00001511,0.0000286
 1,-0.00003437,-0.00000771,0.00001994,-0.00001262,-0.00000748,-0.000009
 61,0.00000020,0.00000730,-0.00006743,-0.00001798,-0.00002805,-0.000010
 90,-0.00003262,0.00003608,-0.00002714,0.00001362,0.00000801,-0.0677513
 7,-0.05699166,-0.02551513,-0.02005974,-0.03076832,-0.01333819,-0.00396
 888,-0.00105202,-0.00000633,0.00001954,-0.00050111,-0.00024087,-0.0033
 7805,0.00255079,0.00149105,0.08784841,-0.00004627,-0.00006236,-0.00003
 068,0.00020196,0.00045290,-0.00008821,-0.00266819,-0.00105549,0.001517
 40,-0.00011106,0.00010204,0.00013869,-0.00021534,-0.00002574,0.0002386
 4,0.00020223,0.00023601,0.00003091,0.00141119,0.00117886,0.00032583,-0
 .00884555,-0.01553549,-0.01093222,0.00024226,-0.00000584,0.00007151,-0
 .00002574,-0.00000815,0.00000642,-0.00002716,0.00013678,0.00004172,-0.
 00015050,-0.00009331,-0.00018740,0.00004700,0.00000486,-0.00000964,0.0
 0045117,0.00006286,0.00012511,0.00002259,0.00002586,0.00002814,-0.0000
 0369,0.00000280,0.00001920,0.00008526,-0.00004667,-0.00000727,0.000115
 77,-0.00000862,-0.00005775,-0.00067411,0.00008741,-0.00002780,-0.05512
 525,-0.25457528,-0.09314975,-0.01012441,-0.00131848,0.00002409,0.00041
 605,0.00501984,-0.00238917,0.00084533,0.00027890,0.00038991,0.00425761
 ,0.00095238,-0.00360009,0.07040045,0.26781714,0.00006997,-0.00008602,-
 0.00021777,0.00045490,-0.00040290,0.00044255,-0.00078028,0.00065524,-0
 .00302923,-0.00028015,0.00031989,0.00002964,-0.00007576,0.00002033,0.0
 0005690,-0.00046974,0.00058861,0.00028527,0.00073608,0.00034298,0.0000
 4485,-0.00386265,-0.01159867,0.00425433,0.00003657,0.00009155,-0.00011
 162,0.00004533,-0.00000363,0.00002733,-0.00003436,0.00009606,0.0000033
 2,-0.00008927,-0.00004059,-0.00005344,-0.00001464,0.00000923,-0.000005
 29,0.00018149,0.00002104,0.00003891,0.00001081,0.00002364,0.00001563,-
 0.00000354,0.00000991,-0.00000178,0.00003118,-0.00002602,0.00002337,0.
 00012301,-0.00003488,-0.00002628,-0.00029825,0.00005083,0.00000964,-0.
 02477518,-0.09252324,-0.08830547,-0.00414205,0.00041325,-0.00015544,0.
 00055095,-0.00245543,0.00937656,0.00042131,0.00049152,-0.00050988,0.00
 242175,-0.00336102,0.00663783,0.03022201,0.10722574,0.07509791,-0.0000
 6952,-0.00005055,0.00002384,0.00014575,-0.00007770,-0.00023201,0.00039
 717,-0.00174143,-0.00052248,0.00000021,0.00007818,0.00006772,-0.000046
 28,-0.00004282,0.00010140,-0.00002094,0.00036578,0.00004994,-0.0005475
 0,-0.00021560,-0.00007664,-0.00644414,0.00136844,0.00093865,0.00007011
 ,-0.00008517,-0.00006764,-0.00003007,-0.00000271,0.00000301,-0.0000004
 1,0.00008904,0.00002519,-0.00017332,-0.00011566,-0.00027010,-0.0000152
 3,0.00002720,0.00001739,0.00074000,-0.00003298,0.00013947,0.00005492,0
 .00002174,0.00004000,-0.00000864,0.00000539,0.00003295,0.00004663,-0.0
 0001023,0.00001427,0.00001699,0.00001346,-0.00002214,-0.00094893,0.000
 25462,-0.00001313,-0.00160662,0.00005420,0.00007869,-0.00300727,0.0055
 2961,0.00269462,0.01951144,0.01974513,0.00806980,-0.11625402,-0.114838
 17,-0.04779987,-0.00550940,-0.03607343,-0.01571951,0.00008460,0.000026
 50,-0.00001052,0.11085996,-0.00001610,-0.00000124,-0.00004834,0.000025
 92,-0.00001508,0.00006998,0.00025236,0.00027981,-0.00040857,0.00004119
 ,0.00001558,0.00000732,-0.00004214,-0.00000046,0.00001454,0.00009640,-
 0.00004798,0.00003531,-0.00000628,-0.00007394,0.00003916,-0.00014560,0
 .00362801,-0.00061793,-0.00007904,0.00001189,0.00001428,0.00001707,-0.
 00000018,-0.00000037,0.00005049,0.00000981,0.00002856,-0.00001078,0.00
 000827,-0.00007304,0.00001671,-0.00000227,0.00000799,0.00019177,-0.000
 09654,-0.00000210,0.00001885,-0.00000402,0.00000651,-0.00000719,-0.000
 00122,0.00002469,-0.00001899,-0.00000662,-0.00001100,-0.00001396,-0.00
 001048,-0.00000243,-0.00030301,0.00011401,0.00007235,0.00195948,0.0008
 2270,0.00046851,0.00398953,-0.00117215,-0.00265893,-0.01297181,-0.0171
 9358,-0.00678824,-0.11575340,-0.34360497,-0.14051393,-0.00324901,-0.00
 091561,-0.00024211,-0.00018483,-0.00025648,0.00029712,0.12554243,0.357
 19180,-0.00001762,-0.00000610,0.00000995,-0.00001749,-0.00000319,0.000
 07292,0.00021094,-0.00038571,0.00081322,0.00000456,0.00004258,-0.00007
 410,-0.00000956,-0.00005023,0.00001860,0.00014655,0.00008460,-0.000086
 50,-0.00003312,0.00006426,-0.00013275,0.00017790,-0.00070378,0.0047527
 4,-0.00003536,-0.00000616,0.00001746,0.00000719,0.00000014,-0.00000165
 ,0.00000470,0.00002798,-0.00001862,0.00002387,-0.00002898,0.00009875,0
 .00000734,-0.00000152,-0.00000478,-0.00005594,0.00000682,-0.00003927,0
 .00000814,0.00000207,-0.00000745,-0.00000317,0.00001549,-0.00003874,-0
 .00000251,-0.00001215,0.00000363,-0.00000326,0.00000046,0.00001074,0.0
 0001431,0.00003314,-0.00006574,0.00091001,0.00052140,-0.00015756,0.001
 93238,-0.00275516,0.00329656,-0.00610494,-0.00775063,-0.00426709,-0.04
 835471,-0.14028035,-0.07710501,-0.00104435,0.00048578,0.00022963,-0.00
 010519,0.00030301,-0.00077137,0.05256689,0.14616186,0.07976443,0.00037
 629,0.00037065,0.00123799,-0.00083436,0.00126426,-0.00208546,0.0058924
 3,0.00022739,0.00242575,-0.00050315,-0.00107493,0.00092586,0.00026202,
 -0.00001494,-0.00023611,-0.00435639,0.00169392,-0.00107731,-0.00027708
 ,-0.00051550,-0.00008728,-0.00756071,0.00016196,0.00098177,0.00177930,
 -0.00059110,-0.00093705,-0.00047494,0.00004406,-0.00001714,-0.00092604
 ,-0.00069209,-0.00041783,0.00020201,-0.00010799,0.00074183,-0.00065857
 ,0.00004162,-0.00012811,-0.00222755,0.00085055,-0.00023109,-0.00036774
 ,0.00011699,-0.00000152,0.00012801,0.00001941,-0.00018186,0.00042704,0
 .00024752,0.00020666,0.00028046,0.00022976,-0.00019371,0.00330389,-0.0
 0116639,-0.00003696,0.01357724,-0.00167828,-0.00122626,-0.04033533,-0.
 04704240,-0.01967569,-0.57129915,-0.12052689,-0.04060570,-0.09364573,0
 .01422524,0.00944260,0.01193402,0.00302928,0.00142805,-0.00132264,-0.0
 0084817,-0.00037310,-0.00182841,-0.00095340,-0.00057619,0.69789984,0.0
 0002581,0.00006229,0.00053763,-0.00047861,0.00027988,-0.00097009,0.002
 04656,0.00076416,0.00181616,-0.00019826,-0.00020184,0.00032847,0.00004
 925,-0.00006239,-0.00000280,-0.00186743,0.00091341,-0.00047779,0.00014
 408,0.00002207,0.00000651,-0.00460083,0.00989006,0.00561244,0.00064455
 ,-0.00031004,-0.00042701,-0.00022193,0.00000878,-0.00001040,-0.0002866
 7,-0.00009881,-0.00013937,-0.00014475,-0.00022100,-0.00012097,-0.00025
 420,0.00005505,-0.00001567,0.00034272,0.00030550,0.00012601,-0.0000466
 8,0.00007294,0.00005249,0.00003403,0.00002438,-0.00002926,0.00015760,0
 .00004293,0.00007022,0.00013090,0.00006609,-0.00005795,-0.00036598,-0.
 00015887,-0.00001904,0.01494144,-0.00640530,-0.00669845,-0.06726856,-0
 .02051361,-0.01578053,-0.11982023,-0.12346947,-0.01538118,0.04453184,0
 .01955077,-0.00201101,-0.01323595,-0.01183248,-0.00751241,-0.00151115,
 -0.00093386,0.00009805,-0.00344169,0.00248715,0.00267284,0.14729929,0.
 12748108,0.00000695,0.00003773,0.00014117,-0.00003755,0.00011136,-0.00
 038151,0.00093535,0.00077181,-0.00016626,-0.00003774,-0.00013323,0.000
 21438,-0.00001439,-0.00000693,0.00001643,-0.00098019,0.00036309,-0.000
 05233,0.00008603,-0.00003199,-0.00001042,-0.00202381,0.00504057,0.0010
 8929,0.00026289,-0.00010590,-0.00023455,-0.00007520,0.00000096,0.00000
 922,-0.00006329,-0.00004737,0.00001128,-0.00007759,-0.00008038,-0.0001
 4120,-0.00011370,0.00002927,0.00000846,0.00018512,0.00007695,0.0001770
 6,-0.00000820,0.00003008,0.00003254,0.00001002,-0.00001069,0.00002098,
 0.00005488,0.00002897,0.00000328,0.00003285,0.00002768,-0.00004399,-0.
 00021277,0.00001718,-0.00015421,0.00646420,-0.00612028,0.00432937,-0.0
 2854761,-0.01624721,0.01190103,-0.04044976,-0.01541628,-0.08749352,0.0
 2279074,-0.00105666,0.02015542,-0.00595827,-0.00826014,0.00315388,-0.0
 0068611,0.00005495,-0.00101384,-0.00153478,0.00264554,-0.00227694,0.04
 825328,0.03701278,0.05125811,0.00147417,0.00107359,-0.00113634,0.00058
 800,0.00180885,0.00317653,-0.00927862,0.00490824,-0.00234218,0.0000179
 7,-0.00265715,-0.00026930,0.00003244,0.00001429,-0.00203682,0.00475444
 ,-0.00688407,-0.00018038,0.00058527,-0.00006230,-0.00023248,0.01995615
 ,0.01746825,0.00710006,-0.00082240,0.00149795,0.00156634,0.00068965,0.
 00010389,-0.00009031,-0.00041855,-0.00179611,-0.00028863,0.00372895,0.
 00353452,0.00982066,0.00029191,-0.00074366,-0.00050010,-0.03506228,0.0
 0615645,-0.00394317,-0.00185526,-0.00060078,-0.00185336,0.00017337,-0.
 00000462,-0.00148191,-0.00033433,0.00034616,-0.00001377,-0.00023574,-0
 .00022906,0.00014654,0.00960327,-0.00946257,-0.00332280,-0.00317989,-0
 .00584584,-0.00178717,0.00003312,0.00852886,0.00365994,0.01011167,-0.0
 1906551,-0.00840243,-0.07805049,0.06465221,0.03108752,-0.23528552,0.17
 598601,0.07935090,0.00093013,0.00014007,-0.00009588,0.00458291,0.00155
 333,0.00034859,-0.00944475,0.00339486,0.00173864,0.31641441,-0.0004196
 2,-0.00079222,0.00129671,-0.00114515,0.00005541,-0.00078484,0.01121806
 ,-0.00076622,0.00549069,-0.00097623,0.00036912,0.00027166,-0.00108177,
 -0.00213300,0.00035497,-0.00581242,0.00531132,-0.00176438,0.00019427,0
 .00018701,0.00022367,0.02763322,-0.05287693,-0.03298171,0.00237459,-0.
 00140310,-0.00118638,-0.00080985,-0.00014483,0.00005767,-0.00049541,0.
 00106802,-0.00027685,-0.00243126,-0.00293244,-0.00621742,-0.00051831,0
 .00064597,0.00026178,0.02303563,0.00307058,0.00329197,0.00114927,0.000
 60160,0.00114804,-0.00033396,0.00006558,0.00067232,0.00049822,-0.00021
 314,0.00018337,0.00050291,-0.00009679,-0.00010920,-0.02479383,-0.00231
 479,0.00012095,-0.02093931,0.00246869,-0.00112664,0.01350689,0.0044899
 1,0.00255828,-0.00610586,-0.00663546,-0.00606426,0.03328579,0.00834602
 ,-0.00474636,0.18633593,-0.34882177,-0.12514669,0.00094744,-0.00243285
 ,-0.00022258,0.00360641,-0.00116621,0.00156154,0.00539018,0.00218115,0
 .00126815,-0.24381585,0.39386934,-0.00085787,0.00026046,0.00032137,0.0
 0061868,-0.00134528,-0.00229332,0.00523441,0.00188756,-0.00087746,0.00
 002087,0.00098819,0.00073053,-0.00096959,-0.00025764,0.00098023,-0.004
 26716,0.00020029,-0.00105409,-0.00003445,0.00011459,0.00011224,0.01149
 355,-0.03292771,0.00643782,0.00189583,-0.00011072,-0.00096582,-0.00028
 340,-0.00001960,0.00003541,0.00040235,0.00042410,0.00049565,0.00030002
 ,-0.00116570,-0.00211747,-0.00034853,0.00023339,0.00015911,0.00548040,
 0.00027726,0.00629442,0.00038763,0.00020711,0.00055576,0.00021415,-0.0
 0016664,0.00058713,0.00020579,0.00005737,-0.00006074,0.00005330,0.0002
 2704,-0.00012221,-0.00903415,0.00101768,-0.00822058,-0.00856921,-0.001
 20256,0.00532750,0.00562195,0.00240196,-0.00068406,-0.00272341,-0.0053
 9594,0.00456788,0.01714027,-0.00515447,0.01479519,0.08386867,-0.125148
 57,-0.12990908,0.00031899,-0.00006126,-0.00214265,0.00140502,0.0014732
 4,-0.00404106,0.00244458,0.00132033,-0.00055313,-0.11001868,0.16186555
 ,0.11164142\\-0.00002054,-0.00004262,-0.00000547,0.00001383,0.00002269
 ,-0.00000095,-0.00003208,0.00004132,-0.00004464,0.00001390,-0.00000871
 ,0.00000437,-0.00000102,-0.00000202,0.00000637,0.00001206,-0.00003130,
 0.00004037,-0.00000196,-0.00000209,0.00000436,0.00001389,-0.00000109,0
 .00002081,0.00002514,-0.00001625,-0.00000884,0.00000319,-0.00000032,-0
 .00000590,-0.00000142,0.00001891,-0.00000004,-0.00000978,0.00002433,-0
 .00000363,-0.00000239,0.00000308,0.00000417,0.00001285,-0.00001799,0.0
 0001562,0.00000398,0.00000087,-0.00000178,0.00000508,-0.00000554,0.000
 00069,0.00000070,-0.00000052,0.00001439,-0.00000920,0.00001519,-0.0000
 0080,0.00000299,-0.00000066,-0.00001293,-0.00001367,0.00003087,-0.0000
 6314,0.00001173,0.00000339,0.00002107,0.00000042,-0.00003513,-0.000002
 57,-0.00002171,0.00001151,-0.00000503,0.00003195,-0.00003596,-0.000002
 02,0.00000497,-0.00000754,0.00002352,-0.00000054,-0.00000208,-0.000001
 14,0.00000376,0.00000624,-0.00000307,-0.00004611,0.00003141,0.00000623
 \\\@
 The archive entry for this job was punched.


 DESK:  A WASTEBASKET WITH DRAWERS.
 Job cpu time:       0 days  9 hours 52 minutes 35.8 seconds.
 Elapsed time:       0 days  0 hours 14 minutes 57.0 seconds.
 File lengths (MBytes):  RWF=    600 Int=      0 D2E=      0 Chk=     20 Scr=      1
 Normal termination of Gaussian 16 at Sun Oct 27 02:21:19 2024.
