 Entering Gaussian System, Link 0=g16
 Input=PseudoUridineAnSarrgPBE0aVDZ.gjf
 Output=PseudoUridineAnSarrgPBE0aVDZ.log
 Initial command:
 /sw/contrib/chem-src/g16/c01/g16/l1.exe "/scr/Gau-5574.inp" -scrdir="/scr/"
 Entering Link 1 = /sw/contrib/chem-src/g16/c01/g16/l1.exe PID=      5576.
  
 Copyright (c) 1988-2019, Gaussian, Inc.  All Rights Reserved.
  
 This is part of the Gaussian(R) 16 program.  It is based on
 the Gaussian(R) 09 system (copyright 2009, Gaussian, Inc.),
 the Gaussian(R) 03 system (copyright 2003, Gaussian, Inc.),
 the Gaussian(R) 98 system (copyright 1998, Gaussian, Inc.),
 the Gaussian(R) 94 system (copyright 1995, Gaussian, Inc.),
 the Gaussian 92(TM) system (copyright 1992, Gaussian, Inc.),
 the Gaussian 90(TM) system (copyright 1990, Gaussian, Inc.),
 the Gaussian 88(TM) system (copyright 1988, Gaussian, Inc.),
 the Gaussian 86(TM) system (copyright 1986, Carnegie Mellon
 University), and the Gaussian 82(TM) system (copyright 1983,
 Carnegie Mellon University). Gaussian is a federally registered
 trademark of Gaussian, Inc.
  
 This software contains proprietary and confidential information,
 including trade secrets, belonging to Gaussian, Inc.
  
 This software is provided under written license and may be
 used, copied, transmitted, or stored only in accord with that
 written license.
  
 The following legend is applicable only to US Government
 contracts under FAR:
  
                    RESTRICTED RIGHTS LEGEND
  
 Use, reproduction and disclosure by the US Government is
 subject to restrictions as set forth in subparagraphs (a)
 and (c) of the Commercial Computer Software - Restricted
 Rights clause in FAR 52.227-19.
  
 Gaussian, Inc.
 340 Quinnipiac St., Bldg. 40, Wallingford CT 06492
  
  
 ---------------------------------------------------------------
 Warning -- This program may not be used in any manner that
 competes with the business of Gaussian, Inc. or will provide
 assistance to any competitor of Gaussian, Inc.  The licensee
 of this program is prohibited from giving any competitor of
 Gaussian, Inc. access to this program.  By using this program,
 the user acknowledges that Gaussian, Inc. is engaged in the
 business of creating and licensing software in the field of
 computational chemistry and represents and warrants to the
 licensee that it is not a competitor of Gaussian, Inc. and that
 it will not use this program in any manner prohibited above.
 ---------------------------------------------------------------
  

 Cite this work as:
 Gaussian 16, Revision C.01,
 M. J. Frisch, G. W. Trucks, H. B. Schlegel, G. E. Scuseria, 
 M. A. Robb, J. R. Cheeseman, G. Scalmani, V. Barone, 
 G. A. Petersson, H. Nakatsuji, X. Li, M. Caricato, A. V. Marenich, 
 J. Bloino, B. G. Janesko, R. Gomperts, B. Mennucci, H. P. Hratchian, 
 J. V. Ortiz, A. F. Izmaylov, J. L. Sonnenberg, D. Williams-Young, 
 F. Ding, F. Lipparini, F. Egidi, J. Goings, B. Peng, A. Petrone, 
 T. Henderson, D. Ranasinghe, V. G. Zakrzewski, J. Gao, N. Rega, 
 G. Zheng, W. Liang, M. Hada, M. Ehara, K. Toyota, R. Fukuda, 
 J. Hasegawa, M. Ishida, T. Nakajima, Y. Honda, O. Kitao, H. Nakai, 
 T. Vreven, K. Throssell, J. A. Montgomery, Jr., J. E. Peralta, 
 F. Ogliaro, M. J. Bearpark, J. J. Heyd, E. N. Brothers, K. N. Kudin, 
 V. N. Staroverov, T. A. Keith, R. Kobayashi, J. Normand, 
 K. Raghavachari, A. P. Rendell, J. C. Burant, S. S. Iyengar, 
 J. Tomasi, M. Cossi, J. M. Millam, M. Klene, C. Adamo, R. Cammi, 
 J. W. Ochterski, R. L. Martin, K. Morokuma, O. Farkas, 
 J. B. Foresman, and D. J. Fox, Gaussian, Inc., Wallingford CT, 2019.
 
 ******************************************
 Gaussian 16:  EM64L-G16RevC.01  3-Jul-2019
                27-Oct-2024 
 ******************************************
 %nprocshared=40
 Will use up to   40 processors via shared memory.
 %mem=50gb
 ------------------------------------------------------
 # PBE1PBE/aug-cc-pVDZ opt freq EmpiricalDispersion=GD3
 ------------------------------------------------------
 1/18=20,19=15,26=3,38=1/1,3;
 2/9=110,12=2,17=6,18=5,40=1/2;
 3/5=16,7=10,11=2,25=1,30=1,71=1,74=-13,124=31/1,2,3;
 4//1;
 5/5=2,38=5/2;
 6/7=2,8=2,9=2,10=2,28=1/1;
 7//1,2,3,16;
 1/18=20,19=15,26=3/3(2);
 2/9=110/2;
 99//99;
 2/9=110/2;
 3/5=16,7=10,11=2,25=1,30=1,71=1,74=-13,124=31/1,2,3;
 4/5=5,16=3,69=1/1;
 5/5=2,38=5/2;
 7//1,2,3,16;
 1/18=20,19=15,26=3/3(-5);
 2/9=110/2;
 6/7=2,8=2,9=2,10=2,19=2,28=1/1;
 99/9=1/99;
 ----
 blah
 ----
 Symbolic Z-matrix:
 Charge = -1 Multiplicity = 1
 C                    -2.75121  -0.52517   0.2974 
 C                    -1.3368   -0.78663   0.81956 
 C                    -0.52676  -0.73781  -0.48906 
 O                    -1.19029  -1.98686   1.52569 
 H                    -1.03817   0.03814   1.47494 
 O                    -1.15015   0.25645  -1.2826 
 H                    -0.62242  -1.73055  -0.96819 
 C                     0.92666  -0.43096  -0.32983 
 C                    -2.51865   0.4265   -0.87913 
 H                    -3.39717  -0.08301   1.06775 
 O                    -3.2459   -1.79691  -0.12068 
 C                    -2.74705   1.88967  -0.54147 
 H                    -3.16804   0.1385   -1.72313 
 O                    -2.10094   2.28334   0.64153 
 H                    -3.82477   2.0583   -0.39452 
 H                    -2.42788   2.49576  -1.40759 
 H                    -4.18853  -1.73026  -0.29014 
 H                    -1.81989  -2.60913   1.13702 
 H                    -1.14227   2.15447   0.53058 
 C                     1.87292  -1.32984  -0.68955 
 N                     3.21141  -1.10657  -0.52746 
 C                     3.73073   0.06017   0.0026 
 N                     2.75478   0.96891   0.35282 
 C                     1.37156   0.83339   0.24727 
 H                     1.60598  -2.29105  -1.12677 
 H                     3.89509  -1.79838  -0.79813 
 O                     4.92133   0.25552   0.13968 
 O                     0.6594    1.74932   0.63904 
 

 GradGradGradGradGradGradGradGradGradGradGradGradGradGradGradGradGradGrad
 Berny optimization.
 Initialization pass.
                           ----------------------------
                           !    Initial Parameters    !
                           ! (Angstroms and Degrees)  !
 --------------------------                            --------------------------
 ! Name  Definition              Value          Derivative Info.                !
 --------------------------------------------------------------------------------
 ! R1    R(1,2)                  1.5302         estimate D2E/DX2                !
 ! R2    R(1,9)                  1.531          estimate D2E/DX2                !
 ! R3    R(1,10)                 1.0983         estimate D2E/DX2                !
 ! R4    R(1,11)                 1.4272         estimate D2E/DX2                !
 ! R5    R(2,3)                  1.5398         estimate D2E/DX2                !
 ! R6    R(2,4)                  1.4002         estimate D2E/DX2                !
 ! R7    R(2,5)                  1.095          estimate D2E/DX2                !
 ! R8    R(3,6)                  1.4166         estimate D2E/DX2                !
 ! R9    R(3,7)                  1.1065         estimate D2E/DX2                !
 ! R10   R(3,8)                  1.494          estimate D2E/DX2                !
 ! R11   R(4,18)                 0.9668         estimate D2E/DX2                !
 ! R12   R(6,9)                  1.4368         estimate D2E/DX2                !
 ! R13   R(8,20)                 1.3538         estimate D2E/DX2                !
 ! R14   R(8,24)                 1.4593         estimate D2E/DX2                !
 ! R15   R(9,12)                 1.5189         estimate D2E/DX2                !
 ! R16   R(9,13)                 1.1032         estimate D2E/DX2                !
 ! R17   R(11,17)                0.9601         estimate D2E/DX2                !
 ! R18   R(12,14)                1.4043         estimate D2E/DX2                !
 ! R19   R(12,15)                1.1007         estimate D2E/DX2                !
 ! R20   R(12,16)                1.1043         estimate D2E/DX2                !
 ! R21   R(14,19)                0.9736         estimate D2E/DX2                !
 ! R22   R(20,21)                1.3666         estimate D2E/DX2                !
 ! R23   R(20,25)                1.0892         estimate D2E/DX2                !
 ! R24   R(21,22)                1.3827         estimate D2E/DX2                !
 ! R25   R(21,26)                1.0096         estimate D2E/DX2                !
 ! R26   R(22,23)                1.3787         estimate D2E/DX2                !
 ! R27   R(22,27)                1.2143         estimate D2E/DX2                !
 ! R28   R(23,24)                1.3938         estimate D2E/DX2                !
 ! R29   R(24,28)                1.2246         estimate D2E/DX2                !
 ! A1    A(2,1,9)              103.181          estimate D2E/DX2                !
 ! A2    A(2,1,10)             111.9061         estimate D2E/DX2                !
 ! A3    A(2,1,11)             105.5507         estimate D2E/DX2                !
 ! A4    A(9,1,10)             112.2166         estimate D2E/DX2                !
 ! A5    A(9,1,11)             112.4226         estimate D2E/DX2                !
 ! A6    A(10,1,11)            111.1223         estimate D2E/DX2                !
 ! A7    A(1,2,3)              101.0018         estimate D2E/DX2                !
 ! A8    A(1,2,4)              114.5355         estimate D2E/DX2                !
 ! A9    A(1,2,5)              109.1246         estimate D2E/DX2                !
 ! A10   A(3,2,4)              113.623          estimate D2E/DX2                !
 ! A11   A(3,2,5)              109.9571         estimate D2E/DX2                !
 ! A12   A(4,2,5)              108.3771         estimate D2E/DX2                !
 ! A13   A(2,3,6)              105.4746         estimate D2E/DX2                !
 ! A14   A(2,3,7)              107.1025         estimate D2E/DX2                !
 ! A15   A(2,3,8)              115.3232         estimate D2E/DX2                !
 ! A16   A(6,3,7)              110.4319         estimate D2E/DX2                !
 ! A17   A(6,3,8)              110.0996         estimate D2E/DX2                !
 ! A18   A(7,3,8)              108.3335         estimate D2E/DX2                !
 ! A19   A(2,4,18)             106.3099         estimate D2E/DX2                !
 ! A20   A(3,6,9)              110.1748         estimate D2E/DX2                !
 ! A21   A(3,8,20)             121.0174         estimate D2E/DX2                !
 ! A22   A(3,8,24)             121.111          estimate D2E/DX2                !
 ! A23   A(20,8,24)            117.8559         estimate D2E/DX2                !
 ! A24   A(1,9,6)              106.6727         estimate D2E/DX2                !
 ! A25   A(1,9,12)             113.8981         estimate D2E/DX2                !
 ! A26   A(1,9,13)             109.6476         estimate D2E/DX2                !
 ! A27   A(6,9,12)             108.6419         estimate D2E/DX2                !
 ! A28   A(6,9,13)             108.3566         estimate D2E/DX2                !
 ! A29   A(12,9,13)            109.4539         estimate D2E/DX2                !
 ! A30   A(1,11,17)            109.2789         estimate D2E/DX2                !
 ! A31   A(9,12,14)            112.8395         estimate D2E/DX2                !
 ! A32   A(9,12,15)            108.9353         estimate D2E/DX2                !
 ! A33   A(9,12,16)            108.1131         estimate D2E/DX2                !
 ! A34   A(14,12,15)           107.1629         estimate D2E/DX2                !
 ! A35   A(14,12,16)           111.9567         estimate D2E/DX2                !
 ! A36   A(15,12,16)           107.6762         estimate D2E/DX2                !
 ! A37   A(12,14,19)           108.6587         estimate D2E/DX2                !
 ! A38   A(8,20,21)            122.9958         estimate D2E/DX2                !
 ! A39   A(8,20,25)            121.42           estimate D2E/DX2                !
 ! A40   A(21,20,25)           115.5832         estimate D2E/DX2                !
 ! A41   A(20,21,22)           123.447          estimate D2E/DX2                !
 ! A42   A(20,21,26)           121.2979         estimate D2E/DX2                !
 ! A43   A(22,21,26)           115.2545         estimate D2E/DX2                !
 ! A44   A(21,22,23)           112.8098         estimate D2E/DX2                !
 ! A45   A(21,22,27)           123.1801         estimate D2E/DX2                !
 ! A46   A(23,22,27)           124.0101         estimate D2E/DX2                !
 ! A47   A(22,23,24)           128.2532         estimate D2E/DX2                !
 ! A48   A(8,24,23)            114.6285         estimate D2E/DX2                !
 ! A49   A(8,24,28)            126.6736         estimate D2E/DX2                !
 ! A50   A(23,24,28)           118.6967         estimate D2E/DX2                !
 ! D1    D(9,1,2,3)            -33.5839         estimate D2E/DX2                !
 ! D2    D(9,1,2,4)           -156.0963         estimate D2E/DX2                !
 ! D3    D(9,1,2,5)             82.229          estimate D2E/DX2                !
 ! D4    D(10,1,2,3)          -154.4301         estimate D2E/DX2                !
 ! D5    D(10,1,2,4)            83.0574         estimate D2E/DX2                !
 ! D6    D(10,1,2,5)           -38.6173         estimate D2E/DX2                !
 ! D7    D(11,1,2,3)            84.5682         estimate D2E/DX2                !
 ! D8    D(11,1,2,4)           -37.9443         estimate D2E/DX2                !
 ! D9    D(11,1,2,5)          -159.619          estimate D2E/DX2                !
 ! D10   D(2,1,9,6)             21.1004         estimate D2E/DX2                !
 ! D11   D(2,1,9,12)           -98.746          estimate D2E/DX2                !
 ! D12   D(2,1,9,13)           138.2297         estimate D2E/DX2                !
 ! D13   D(10,1,9,6)           141.7351         estimate D2E/DX2                !
 ! D14   D(10,1,9,12)           21.8888         estimate D2E/DX2                !
 ! D15   D(10,1,9,13)         -101.1355         estimate D2E/DX2                !
 ! D16   D(11,1,9,6)           -92.1345         estimate D2E/DX2                !
 ! D17   D(11,1,9,12)          148.0191         estimate D2E/DX2                !
 ! D18   D(11,1,9,13)           24.9948         estimate D2E/DX2                !
 ! D19   D(2,1,11,17)          168.5022         estimate D2E/DX2                !
 ! D20   D(9,1,11,17)          -79.7282         estimate D2E/DX2                !
 ! D21   D(10,1,11,17)          46.9914         estimate D2E/DX2                !
 ! D22   D(1,2,3,6)             35.6516         estimate D2E/DX2                !
 ! D23   D(1,2,3,7)            -82.0047         estimate D2E/DX2                !
 ! D24   D(1,2,3,8)            157.3527         estimate D2E/DX2                !
 ! D25   D(4,2,3,6)            158.7961         estimate D2E/DX2                !
 ! D26   D(4,2,3,7)             41.1398         estimate D2E/DX2                !
 ! D27   D(4,2,3,8)            -79.5028         estimate D2E/DX2                !
 ! D28   D(5,2,3,6)            -79.5419         estimate D2E/DX2                !
 ! D29   D(5,2,3,7)            162.8018         estimate D2E/DX2                !
 ! D30   D(5,2,3,8)             42.1592         estimate D2E/DX2                !
 ! D31   D(1,2,4,18)            31.3331         estimate D2E/DX2                !
 ! D32   D(3,2,4,18)           -84.0467         estimate D2E/DX2                !
 ! D33   D(5,2,4,18)           153.4158         estimate D2E/DX2                !
 ! D34   D(2,3,6,9)            -23.7581         estimate D2E/DX2                !
 ! D35   D(7,3,6,9)             91.6311         estimate D2E/DX2                !
 ! D36   D(8,3,6,9)           -148.7811         estimate D2E/DX2                !
 ! D37   D(2,3,8,20)           117.0308         estimate D2E/DX2                !
 ! D38   D(2,3,8,24)           -61.5028         estimate D2E/DX2                !
 ! D39   D(6,3,8,20)          -123.7943         estimate D2E/DX2                !
 ! D40   D(6,3,8,24)            57.6721         estimate D2E/DX2                !
 ! D41   D(7,3,8,20)            -2.939          estimate D2E/DX2                !
 ! D42   D(7,3,8,24)           178.5274         estimate D2E/DX2                !
 ! D43   D(3,6,9,1)              1.6074         estimate D2E/DX2                !
 ! D44   D(3,6,9,12)           124.7921         estimate D2E/DX2                !
 ! D45   D(3,6,9,13)          -116.374          estimate D2E/DX2                !
 ! D46   D(3,8,20,21)         -178.1355         estimate D2E/DX2                !
 ! D47   D(3,8,20,25)            1.4952         estimate D2E/DX2                !
 ! D48   D(24,8,20,21)           0.4444         estimate D2E/DX2                !
 ! D49   D(24,8,20,25)        -179.9248         estimate D2E/DX2                !
 ! D50   D(3,8,24,23)          178.9836         estimate D2E/DX2                !
 ! D51   D(3,8,24,28)           -0.6149         estimate D2E/DX2                !
 ! D52   D(20,8,24,23)           0.405          estimate D2E/DX2                !
 ! D53   D(20,8,24,28)        -179.1935         estimate D2E/DX2                !
 ! D54   D(1,9,12,14)           48.3031         estimate D2E/DX2                !
 ! D55   D(1,9,12,15)          -70.5785         estimate D2E/DX2                !
 ! D56   D(1,9,12,16)          172.6801         estimate D2E/DX2                !
 ! D57   D(6,9,12,14)          -70.4256         estimate D2E/DX2                !
 ! D58   D(6,9,12,15)          170.6928         estimate D2E/DX2                !
 ! D59   D(6,9,12,16)           53.9514         estimate D2E/DX2                !
 ! D60   D(13,9,12,14)         171.433          estimate D2E/DX2                !
 ! D61   D(13,9,12,15)          52.5514         estimate D2E/DX2                !
 ! D62   D(13,9,12,16)         -64.19           estimate D2E/DX2                !
 ! D63   D(9,12,14,19)          60.8674         estimate D2E/DX2                !
 ! D64   D(15,12,14,19)       -179.2256         estimate D2E/DX2                !
 ! D65   D(16,12,14,19)        -61.3762         estimate D2E/DX2                !
 ! D66   D(8,20,21,22)          -0.7992         estimate D2E/DX2                !
 ! D67   D(8,20,21,26)         179.5011         estimate D2E/DX2                !
 ! D68   D(25,20,21,22)        179.5502         estimate D2E/DX2                !
 ! D69   D(25,20,21,26)         -0.1495         estimate D2E/DX2                !
 ! D70   D(20,21,22,23)          0.2048         estimate D2E/DX2                !
 ! D71   D(20,21,22,27)       -179.7052         estimate D2E/DX2                !
 ! D72   D(26,21,22,23)        179.9211         estimate D2E/DX2                !
 ! D73   D(26,21,22,27)          0.0111         estimate D2E/DX2                !
 ! D74   D(21,22,23,24)          0.7696         estimate D2E/DX2                !
 ! D75   D(27,22,23,24)       -179.3213         estimate D2E/DX2                !
 ! D76   D(22,23,24,8)          -1.0723         estimate D2E/DX2                !
 ! D77   D(22,23,24,28)        178.5606         estimate D2E/DX2                !
 --------------------------------------------------------------------------------
 Trust Radius=3.00D-01 FncErr=1.00D-07 GrdErr=1.00D-06 EigMax=2.50D+02 EigMin=1.00D-04
 Number of steps in this run=    166 maximum allowed number of steps=    168.
 GradGradGradGradGradGradGradGradGradGradGradGradGradGradGradGradGradGrad

                          Input orientation:                          
 ---------------------------------------------------------------------
 Center     Atomic      Atomic             Coordinates (Angstroms)
 Number     Number       Type             X           Y           Z
 ---------------------------------------------------------------------
      1          6           0       -2.751214   -0.525169    0.297398
      2          6           0       -1.336796   -0.786633    0.819557
      3          6           0       -0.526755   -0.737810   -0.489055
      4          8           0       -1.190288   -1.986856    1.525692
      5          1           0       -1.038169    0.038139    1.474939
      6          8           0       -1.150147    0.256450   -1.282601
      7          1           0       -0.622419   -1.730554   -0.968190
      8          6           0        0.926662   -0.430961   -0.329830
      9          6           0       -2.518650    0.426496   -0.879130
     10          1           0       -3.397168   -0.083006    1.067749
     11          8           0       -3.245902   -1.796913   -0.120680
     12          6           0       -2.747052    1.889669   -0.541467
     13          1           0       -3.168037    0.138498   -1.723126
     14          8           0       -2.100938    2.283344    0.641531
     15          1           0       -3.824774    2.058301   -0.394517
     16          1           0       -2.427875    2.495756   -1.407594
     17          1           0       -4.188528   -1.730257   -0.290142
     18          1           0       -1.819887   -2.609133    1.137016
     19          1           0       -1.142272    2.154473    0.530577
     20          6           0        1.872921   -1.329840   -0.689554
     21          7           0        3.211412   -1.106568   -0.527456
     22          6           0        3.730730    0.060169    0.002600
     23          7           0        2.754780    0.968910    0.352819
     24          6           0        1.371561    0.833387    0.247274
     25          1           0        1.605984   -2.291048   -1.126771
     26          1           0        3.895092   -1.798378   -0.798134
     27          8           0        4.921326    0.255517    0.139676
     28          8           0        0.659404    1.749316    0.639043
 ---------------------------------------------------------------------
                    Distance matrix (angstroms):
                    1          2          3          4          5
     1  C    0.000000
     2  C    1.530226   0.000000
     3  C    2.368954   1.539810   0.000000
     4  O    2.466115   1.400224   2.461625   0.000000
     5  H    2.153704   1.094967   2.172766   2.031335   0.000000
     6  O    2.381332   2.354130   1.416646   3.594516   2.768434
     7  H    2.754348   2.144146   1.106464   2.570528   3.044668
     8  C    3.732166   2.563364   1.493964   3.216403   2.708839
     9  C    1.531003   2.398749   2.339960   3.656772   2.807897
    10  H    1.098274   2.191306   3.330417   2.950369   2.396947
    11  O    1.427178   2.355716   2.941285   2.640486   3.284433
    12  C    2.556395   3.317198   3.440365   4.660913   3.227125
    13  H    2.167190   3.267193   3.044210   4.356999   3.843700
    14  O    2.903279   3.168654   3.589380   4.454844   2.620113
    15  H    2.881943   3.969592   4.324824   5.195288   3.916770
    16  H    3.483896   4.113968   3.861855   5.498145   4.034868
    17  H    1.965531   3.202223   3.799092   3.514618   4.020883
    18  H    2.432125   1.911979   2.796095   0.966795   2.780885
    19  H    3.134254   2.961664   3.127908   4.259479   2.319812
    20  C    4.796269   3.588143   2.479747   3.836956   3.876963
    21  N    6.047422   4.754261   3.756508   4.936121   4.835171
    22  C    6.514992   5.202337   4.359435   5.543152   4.991059
    23  N    5.705376   4.476692   3.793431   5.067124   4.063490
    24  C    4.341136   3.207362   2.571856   4.018855   2.818932
    25  H    4.912409   3.835546   2.714370   3.866165   4.380132
    26  H    6.855263   5.568950   4.557748   5.594353   5.733822
    27  O    7.713768   6.380627   5.573472   6.655907   6.111118
    28  O    4.113675   3.232404   2.977478   4.262216   2.551196
                    6          7          8          9         10
     6  O    0.000000
     7  H    2.079792   0.000000
     8  C    2.386093   2.120400   0.000000
     9  C    1.436839   2.873411   3.592651   0.000000
    10  H    3.269324   3.815586   4.557390   2.195842   0.000000
    11  O    3.155717   2.757778   4.395436   2.459205   2.091105
    12  C    2.401414   4.219262   4.350435   1.518901   2.627484
    13  H    2.068781   3.247069   4.362581   1.103166   2.809012
    14  O    2.952048   4.570404   4.180593   2.436140   2.731572
    15  H    3.344995   4.993956   5.364397   2.145600   2.627977
    16  H    2.581221   4.616757   4.580411   2.137604   3.703629
    17  H    3.763474   3.629998   5.277775   2.790517   2.276742
    18  H    3.809812   2.576378   3.799948   3.710547   2.978914
    19  H    2.624913   4.196425   3.421295   2.620610   3.221711
    20  C    3.465106   2.542623   1.353806   4.733556   5.693553
    21  N    4.631550   3.909203   2.390729   5.942017   6.875005
    22  C    5.051062   4.806145   2.866098   6.321898   7.208465
    23  N    4.293094   4.520801   2.401596   5.442516   6.282047
    24  C    3.005393   3.468011   1.459301   4.070392   4.924808
    25  H    3.756366   2.303276   2.134600   4.945602   5.892614
    26  H    5.469137   4.521219   3.301623   6.789161   7.720173
    27  O    6.235837   5.992074   4.080322   7.511354   8.376948
    28  O    3.032464   4.041753   2.400781   3.762277   4.471797
                   11         12         13         14         15
    11  O    0.000000
    12  C    3.743902   0.000000
    13  H    2.513904   2.154100   0.000000
    14  O    4.305857   1.404253   3.366106   0.000000
    15  H    3.908037   1.100689   2.425314   2.023771   0.000000
    16  H    4.555472   1.104261   2.490796   2.085886   1.780174
    17  H    0.960054   3.904469   2.566533   4.618987   3.807412
    18  H    2.067612   4.890415   4.188961   4.925528   5.305667
    19  H    4.523588   1.948004   3.639651   0.973632   2.839166
    20  C    5.171472   5.633056   5.351219   5.533393   6.635531
    21  N    6.506838   6.669402   6.608872   6.409298   7.716345
    22  C    7.220619   6.753128   7.111769   6.273682   7.825335
    23  N    6.624361   5.649575   6.330789   5.038759   6.710873
    24  C    5.326803   4.324444   4.997329   3.783657   5.377193
    25  H    4.979677   6.063819   5.389769   6.147619   6.996154
    26  H    7.173057   7.601687   7.382065   7.394962   8.639051
    27  O    8.425192   7.870097   8.301898   7.326400   8.945930
    28  O    5.329572   3.607942   4.777435   2.811526   4.612111
                   16         17         18         19         20
    16  H    0.000000
    17  H    4.712514   0.000000
    18  H    5.736251   2.901666   0.000000
    19  H    2.350693   5.004436   4.849626   0.000000
    20  C    5.800656   6.087777   4.313905   4.766607   0.000000
    21  N    6.749292   7.429968   5.508370   5.541515   1.366632
    22  C    6.771200   8.124406   6.262701   5.330199   2.421292
    23  N    5.682449   7.477194   5.860455   4.077275   2.673662
    24  C    4.465173   6.146192   4.777858   2.853925   2.410095
    25  H    6.266129   5.881395   4.118556   5.482916   1.089190
    26  H    7.667525   8.099852   6.087948   6.539537   2.078580
    27  O    7.837313   9.333675   7.392216   6.366008   3.534650
    28  O    3.778517   6.039309   5.038942   1.849852   3.566370
                   21         22         23         24         25
    21  N    0.000000
    22  C    1.382724   0.000000
    23  N    2.300219   1.378747   0.000000
    24  C    2.783646   2.494676   1.393844   0.000000
    25  H    2.083164   3.364260   3.759820   3.421264   0.000000
    26  H    1.009597   2.030366   3.206694   3.793056   2.364475
    27  O    2.285639   1.214277   2.290913   3.598103   4.368109
    28  O    4.003691   3.562488   2.254231   1.224572   4.509840
                   26         27         28
    26  H    0.000000
    27  O    2.480147   0.000000
    28  O    5.012114   4.543653   0.000000
 Stoichiometry    C9H11N2O6(1-)
 Framework group  C1[X(C9H11N2O6)]
 Deg. of freedom    78
 Full point group                 C1      NOp   1
 Largest Abelian subgroup         C1      NOp   1
 Largest concise Abelian subgroup C1      NOp   1
                         Standard orientation:                         
 ---------------------------------------------------------------------
 Center     Atomic      Atomic             Coordinates (Angstroms)
 Number     Number       Type             X           Y           Z
 ---------------------------------------------------------------------
      1          6           0       -2.722728   -0.539971    0.289743
      2          6           0       -1.307481   -0.792512    0.814042
      3          6           0       -0.493834   -0.723668   -0.491429
      4          8           0       -1.151504   -1.997760    1.509510
      5          1           0       -1.018976    0.029002    1.477994
      6          8           0       -1.124386    0.271811   -1.277756
      7          1           0       -0.578304   -1.712803   -0.980039
      8          6           0        0.956013   -0.404199   -0.324660
      9          6           0       -2.495746    0.424794   -0.877167
     10          1           0       -3.375387   -0.111280    1.062055
     11          8           0       -3.203674   -1.812526   -0.141689
     12          6           0       -2.739466    1.882479   -0.526719
     13          1           0       -3.139632    0.138348   -1.725893
     14          8           0       -2.100952    2.271413    0.661960
     15          1           0       -3.819238    2.039256   -0.381709
     16          1           0       -2.423485    2.499657   -1.386160
     17          1           0       -4.146366   -1.753464   -0.313582
     18          1           0       -1.773779   -2.622491    1.113052
     19          1           0       -1.140730    2.152902    0.552927
     20          6           0        1.912120   -1.290459   -0.689618
     21          7           0        3.247853   -1.055703   -0.521123
     22          6           0        3.754098    0.111054    0.021390
     23          7           0        2.768236    1.006975    0.376838
     24          6           0        1.386744    0.859000    0.265560
     25          1           0        1.655946   -2.250115   -1.136576
     26          1           0        3.939095   -1.738291   -0.795974
     27          8           0        4.942295    0.316684    0.164127
     28          8           0        0.664460    1.764286    0.663479
 ---------------------------------------------------------------------
 Rotational constants (GHZ):           0.9381163           0.3036492           0.2596548
 Standard basis: Aug-CC-pVDZ (5D, 7F)
 There are   524 symmetry adapted cartesian basis functions of A   symmetry.
 There are   490 symmetry adapted basis functions of A   symmetry.
   490 basis functions,   852 primitive gaussians,   524 cartesian basis functions
    64 alpha electrons       64 beta electrons
       nuclear repulsion energy      1305.1795272545 Hartrees.
 NAtoms=   28 NActive=   28 NUniq=   28 SFac= 1.00D+00 NAtFMM=   60 NAOKFM=F Big=F
 Integral buffers will be    131072 words long.
 Raffenetti 2 integral format.
 Two-electron integral symmetry is turned on.
 Nuclear repulsion after empirical dispersion term =     1305.1598981548 Hartrees.
 One-electron integrals computed using PRISM.
 NBasis=   490 RedAO= T EigKep=  2.35D-06  NBF=   490
 NBsUse=   490 1.00D-06 EigRej= -1.00D+00 NBFU=   490
 ExpMin= 2.97D-02 ExpMax= 1.17D+04 ExpMxC= 4.01D+02 IAcc=3 IRadAn=         5 AccDes= 0.00D+00
 Harris functional with IExCor= 1009 and IRadAn=       5 diagonalized for initial guess.
 HarFok:  IExCor= 1009 AccDes= 0.00D+00 IRadAn=         5 IDoV= 1 UseB2=F ITyADJ=14
 ICtDFT=  3500011 ScaDFX=  1.000000  1.000000  1.000000  1.000000
 FoFCou: FMM=F IPFlag=           0 FMFlag=      100000 FMFlg1=           0
         NFxFlg=           0 DoJE=T BraDBF=F KetDBF=T FulRan=T
         wScrn=  0.000000 ICntrl=       500 IOpCl=  0 I1Cent=   200000004 NGrid=           0
         NMat0=    1 NMatS0=      1 NMatT0=    0 NMatD0=    1 NMtDS0=    0 NMtDT0=    0
 Petite list used in FoFCou.
 Requested convergence on RMS density matrix=1.00D-08 within 128 cycles.
 Requested convergence on MAX density matrix=1.00D-06.
 Requested convergence on             energy=1.00D-06.
 No special actions if energy rises.
 EnCoef did     2 forward-backward iterations
 SCF Done:  E(RPBE1PBE) =  -909.666521664     A.U. after   16 cycles
            NFock= 16  Conv=0.40D-08     -V/T= 2.0052

 **********************************************************************

            Population analysis using the SCF Density.

 **********************************************************************

 Orbital symmetries:
       Occupied  (A) (A) (A) (A) (A) (A) (A) (A) (A) (A) (A) (A)
                 (A) (A) (A) (A) (A) (A) (A) (A) (A) (A) (A) (A)
                 (A) (A) (A) (A) (A) (A) (A) (A) (A) (A) (A) (A)
                 (A) (A) (A) (A) (A) (A) (A) (A) (A) (A) (A) (A)
                 (A) (A) (A) (A) (A) (A) (A) (A) (A) (A) (A) (A)
                 (A) (A) (A) (A)
       Virtual   (A) (A) (A) (A) (A) (A) (A) (A) (A) (A) (A) (A)
                 (A) (A) (A) (A) (A) (A) (A) (A) (A) (A) (A) (A)
                 (A) (A) (A) (A) (A) (A) (A) (A) (A) (A) (A) (A)
                 (A) (A) (A) (A) (A) (A) (A) (A) (A) (A) (A) (A)
                 (A) (A) (A) (A) (A) (A) (A) (A) (A) (A) (A) (A)
                 (A) (A) (A) (A) (A) (A) (A) (A) (A) (A) (A) (A)
                 (A) (A) (A) (A) (A) (A) (A) (A) (A) (A) (A) (A)
                 (A) (A) (A) (A) (A) (A) (A) (A) (A) (A) (A) (A)
                 (A) (A) (A) (A) (A) (A) (A) (A) (A) (A) (A) (A)
                 (A) (A) (A) (A) (A) (A) (A) (A) (A) (A) (A) (A)
                 (A) (A) (A) (A) (A) (A) (A) (A) (A) (A) (A) (A)
                 (A) (A) (A) (A) (A) (A) (A) (A) (A) (A) (A) (A)
                 (A) (A) (A) (A) (A) (A) (A) (A) (A) (A) (A) (A)
                 (A) (A) (A) (A) (A) (A) (A) (A) (A) (A) (A) (A)
                 (A) (A) (A) (A) (A) (A) (A) (A) (A) (A) (A) (A)
                 (A) (A) (A) (A) (A) (A) (A) (A) (A) (A) (A) (A)
                 (A) (A) (A) (A) (A) (A) (A) (A) (A) (A) (A) (A)
                 (A) (A) (A) (A) (A) (A) (A) (A) (A) (A) (A) (A)
                 (A) (A) (A) (A) (A) (A) (A) (A) (A) (A) (A) (A)
                 (A) (A) (A) (A) (A) (A) (A) (A) (A) (A) (A) (A)
                 (A) (A) (A) (A) (A) (A) (A) (A) (A) (A) (A) (A)
                 (A) (A) (A) (A) (A) (A) (A) (A) (A) (A) (A) (A)
                 (A) (A) (A) (A) (A) (A) (A) (A) (A) (A) (A) (A)
                 (A) (A) (A) (A) (A) (A) (A) (A) (A) (A) (A) (A)
                 (A) (A) (A) (A) (A) (A) (A) (A) (A) (A) (A) (A)
                 (A) (A) (A) (A) (A) (A) (A) (A) (A) (A) (A) (A)
                 (A) (A) (A) (A) (A) (A) (A) (A) (A) (A) (A) (A)
                 (A) (A) (A) (A) (A) (A) (A) (A) (A) (A) (A) (A)
                 (A) (A) (A) (A) (A) (A) (A) (A) (A) (A) (A) (A)
                 (A) (A) (A) (A) (A) (A) (A) (A) (A) (A) (A) (A)
                 (A) (A) (A) (A) (A) (A) (A) (A) (A) (A) (A) (A)
                 (A) (A) (A) (A) (A) (A) (A) (A) (A) (A) (A) (A)
                 (A) (A) (A) (A) (A) (A) (A) (A) (A) (A) (A) (A)
                 (A) (A) (A) (A) (A) (A) (A) (A) (A) (A) (A) (A)
                 (A) (A) (A) (A) (A) (A) (A) (A) (A) (A) (A) (A)
                 (A) (A) (A) (A) (A) (A)
 The electronic state is 1-A.
 Alpha  occ. eigenvalues --  -19.15907 -19.12421 -19.12066 -19.09569 -19.02947
 Alpha  occ. eigenvalues --  -19.02525 -14.30802 -14.19378 -10.19410 -10.19008
 Alpha  occ. eigenvalues --  -10.18304 -10.17317 -10.17183 -10.16952 -10.16711
 Alpha  occ. eigenvalues --  -10.16160 -10.10305  -0.99900  -0.96665  -0.95342
 Alpha  occ. eigenvalues --   -0.92972  -0.92788  -0.90226  -0.84548  -0.72237
 Alpha  occ. eigenvalues --   -0.70580  -0.69672  -0.65181  -0.58510  -0.53364
 Alpha  occ. eigenvalues --   -0.52122  -0.50801  -0.49082  -0.47280  -0.44668
 Alpha  occ. eigenvalues --   -0.42849  -0.41944  -0.39890  -0.37492  -0.36828
 Alpha  occ. eigenvalues --   -0.36311  -0.34768  -0.33725  -0.32838  -0.31772
 Alpha  occ. eigenvalues --   -0.30921  -0.29327  -0.29221  -0.28159  -0.28073
 Alpha  occ. eigenvalues --   -0.26900  -0.25103  -0.23914  -0.23188  -0.21532
 Alpha  occ. eigenvalues --   -0.21192  -0.19345  -0.17201  -0.16025  -0.13846
 Alpha  occ. eigenvalues --   -0.10980  -0.10645  -0.08850  -0.08597
 Alpha virt. eigenvalues --    0.05875   0.08258   0.08570   0.09442   0.10479
 Alpha virt. eigenvalues --    0.11489   0.11712   0.11787   0.12341   0.13371
 Alpha virt. eigenvalues --    0.14049   0.14215   0.15523   0.15733   0.15974
 Alpha virt. eigenvalues --    0.16523   0.16613   0.17039   0.17821   0.18098
 Alpha virt. eigenvalues --    0.18350   0.18795   0.18990   0.19220   0.19407
 Alpha virt. eigenvalues --    0.20095   0.20257   0.20980   0.21249   0.21702
 Alpha virt. eigenvalues --    0.22097   0.22451   0.22730   0.23052   0.23491
 Alpha virt. eigenvalues --    0.24243   0.24436   0.24929   0.25429   0.25648
 Alpha virt. eigenvalues --    0.26366   0.26831   0.27222   0.27895   0.28150
 Alpha virt. eigenvalues --    0.29006   0.29167   0.29607   0.29963   0.30174
 Alpha virt. eigenvalues --    0.30439   0.30519   0.31448   0.32153   0.32615
 Alpha virt. eigenvalues --    0.33001   0.33138   0.33893   0.34066   0.34559
 Alpha virt. eigenvalues --    0.34967   0.35281   0.35649   0.35862   0.36260
 Alpha virt. eigenvalues --    0.36400   0.36728   0.36987   0.37291   0.37607
 Alpha virt. eigenvalues --    0.38085   0.38488   0.38723   0.39149   0.39242
 Alpha virt. eigenvalues --    0.39740   0.40248   0.40880   0.41218   0.41467
 Alpha virt. eigenvalues --    0.41930   0.42486   0.42603   0.42677   0.43069
 Alpha virt. eigenvalues --    0.43545   0.43868   0.44433   0.44660   0.44928
 Alpha virt. eigenvalues --    0.45305   0.45381   0.45870   0.46790   0.46860
 Alpha virt. eigenvalues --    0.47637   0.48491   0.48878   0.49473   0.49958
 Alpha virt. eigenvalues --    0.50170   0.50598   0.51010   0.52061   0.52773
 Alpha virt. eigenvalues --    0.53024   0.53188   0.53627   0.54154   0.54716
 Alpha virt. eigenvalues --    0.55149   0.55493   0.56142   0.56940   0.57474
 Alpha virt. eigenvalues --    0.58006   0.58392   0.58836   0.59401   0.60197
 Alpha virt. eigenvalues --    0.60466   0.61566   0.61813   0.62432   0.62987
 Alpha virt. eigenvalues --    0.63500   0.63680   0.64372   0.64939   0.65049
 Alpha virt. eigenvalues --    0.66050   0.66641   0.67782   0.67996   0.68358
 Alpha virt. eigenvalues --    0.68923   0.69514   0.70201   0.70977   0.71684
 Alpha virt. eigenvalues --    0.71983   0.72608   0.73538   0.73903   0.74436
 Alpha virt. eigenvalues --    0.74575   0.75212   0.75559   0.75940   0.76531
 Alpha virt. eigenvalues --    0.76971   0.77436   0.77858   0.78305   0.79240
 Alpha virt. eigenvalues --    0.79344   0.79711   0.80522   0.81147   0.81356
 Alpha virt. eigenvalues --    0.82210   0.82528   0.82761   0.83451   0.83703
 Alpha virt. eigenvalues --    0.84690   0.85206   0.85609   0.86454   0.87210
 Alpha virt. eigenvalues --    0.87888   0.88751   0.88903   0.89838   0.90513
 Alpha virt. eigenvalues --    0.91043   0.91756   0.93008   0.94009   0.94101
 Alpha virt. eigenvalues --    0.94815   0.95891   0.96145   0.97307   0.97644
 Alpha virt. eigenvalues --    0.98264   0.98752   0.99312   0.99706   1.00533
 Alpha virt. eigenvalues --    1.01918   1.02314   1.02359   1.03316   1.04378
 Alpha virt. eigenvalues --    1.05249   1.06451   1.07989   1.08350   1.09238
 Alpha virt. eigenvalues --    1.09581   1.10497   1.11508   1.11842   1.12995
 Alpha virt. eigenvalues --    1.13736   1.15168   1.15515   1.16289   1.17264
 Alpha virt. eigenvalues --    1.17805   1.18848   1.19010   1.21072   1.21512
 Alpha virt. eigenvalues --    1.21999   1.23848   1.24178   1.24714   1.25431
 Alpha virt. eigenvalues --    1.26346   1.26908   1.27752   1.28625   1.29421
 Alpha virt. eigenvalues --    1.30206   1.30872   1.31359   1.32995   1.33293
 Alpha virt. eigenvalues --    1.33925   1.35182   1.36228   1.37990   1.39016
 Alpha virt. eigenvalues --    1.39579   1.40795   1.41740   1.42339   1.43485
 Alpha virt. eigenvalues --    1.44204   1.44912   1.46276   1.47604   1.48170
 Alpha virt. eigenvalues --    1.49463   1.50221   1.51850   1.52100   1.52634
 Alpha virt. eigenvalues --    1.53775   1.54154   1.54846   1.57259   1.58409
 Alpha virt. eigenvalues --    1.59343   1.60308   1.60924   1.62380   1.63658
 Alpha virt. eigenvalues --    1.65203   1.65279   1.67402   1.67823   1.68674
 Alpha virt. eigenvalues --    1.69272   1.70562   1.71771   1.72661   1.72936
 Alpha virt. eigenvalues --    1.74155   1.74480   1.75300   1.76610   1.77678
 Alpha virt. eigenvalues --    1.78214   1.79761   1.81560   1.83072   1.83668
 Alpha virt. eigenvalues --    1.85484   1.85686   1.86048   1.87301   1.88023
 Alpha virt. eigenvalues --    1.89359   1.91003   1.91397   1.91671   1.92447
 Alpha virt. eigenvalues --    1.93416   1.94520   1.95220   1.96908   1.97369
 Alpha virt. eigenvalues --    1.98436   1.99520   2.01095   2.01719   2.03302
 Alpha virt. eigenvalues --    2.04108   2.04262   2.05006   2.05852   2.07377
 Alpha virt. eigenvalues --    2.07565   2.08534   2.09336   2.11307   2.12603
 Alpha virt. eigenvalues --    2.12862   2.14673   2.15111   2.15223   2.16925
 Alpha virt. eigenvalues --    2.18687   2.19972   2.21340   2.21761   2.23147
 Alpha virt. eigenvalues --    2.23437   2.24579   2.25804   2.27365   2.28118
 Alpha virt. eigenvalues --    2.28321   2.30557   2.31809   2.33320   2.33672
 Alpha virt. eigenvalues --    2.35557   2.36931   2.37709   2.38433   2.39494
 Alpha virt. eigenvalues --    2.41414   2.41943   2.42908   2.44007   2.44898
 Alpha virt. eigenvalues --    2.47668   2.49405   2.51459   2.52578   2.53224
 Alpha virt. eigenvalues --    2.54130   2.54698   2.57493   2.57820   2.59143
 Alpha virt. eigenvalues --    2.60062   2.61906   2.64648   2.65674   2.66217
 Alpha virt. eigenvalues --    2.67389   2.68447   2.70284   2.70686   2.71071
 Alpha virt. eigenvalues --    2.72331   2.73563   2.76508   2.77037   2.78286
 Alpha virt. eigenvalues --    2.81501   2.83149   2.84585   2.86039   2.89189
 Alpha virt. eigenvalues --    2.90222   2.91818   2.96226   2.98395   2.99200
 Alpha virt. eigenvalues --    3.01446   3.04158   3.06387   3.08385   3.10951
 Alpha virt. eigenvalues --    3.12132   3.16086   3.18698   3.24152   3.29931
 Alpha virt. eigenvalues --    3.30909   3.34503   3.41161   3.45045   3.48772
 Alpha virt. eigenvalues --    3.53243   3.53882   3.54556   3.57595   3.58921
 Alpha virt. eigenvalues --    3.60680   3.60982   3.61873   3.62261   3.62617
 Alpha virt. eigenvalues --    3.63766   3.65784   3.66139   3.69473   3.71351
 Alpha virt. eigenvalues --    3.72201   3.72928   3.74205   3.77626   3.78326
 Alpha virt. eigenvalues --    3.80121   3.83079   3.84710   3.86757   3.91862
 Alpha virt. eigenvalues --    3.93691   3.98432   4.01894   4.02919   4.06908
 Alpha virt. eigenvalues --    4.13912   4.17809   4.23499   4.37632   4.42056
 Alpha virt. eigenvalues --    4.71485
          Condensed to atoms (all electrons):
               1          2          3          4          5          6
     1  C    9.319196  -2.227119   0.705026   0.080336  -0.030018   0.118549
     2  C   -2.227119   9.359345  -3.248978  -0.458598  -0.064450   0.034656
     3  C    0.705026  -3.248978  23.276799   0.448900  -0.989992  -1.127655
     4  O    0.080336  -0.458598   0.448900   8.645374  -0.214960  -0.016499
     5  H   -0.030018  -0.064450  -0.989992  -0.214960   2.284296   0.085384
     6  O    0.118549   0.034656  -1.127655  -0.016499   0.085384   9.506644
     7  H   -0.203986   0.769447  -2.411106  -0.041860   0.144362   0.085871
     8  C    0.264232   0.388812  -5.863658  -0.128455   0.346698   0.271539
     9  C   -1.825091   1.209492  -3.804831  -0.062596   0.114057   0.147709
    10  H   -1.086047   0.363799   0.260589   0.033093  -0.150461  -0.014451
    11  O   -0.475971   0.005671   0.052967  -0.026215   0.034989   0.020952
    12  C   -0.076201  -0.056483   0.375899  -0.013984   0.032718  -0.010506
    13  H   -0.000609   0.079026   0.659513   0.006222  -0.014725  -0.319030
    14  O   -0.014198  -0.050500  -0.088896   0.004980  -0.011693  -0.021874
    15  H    0.034127   0.017763  -0.044225  -0.001941   0.020643   0.105456
    16  H    0.024600  -0.006009   0.017702  -0.000955  -0.005137  -0.030550
    17  H    0.084510  -0.032215  -0.018023   0.003079   0.004025   0.004357
    18  H   -0.005089  -0.085009  -0.090650   0.314124   0.057051   0.011208
    19  H    0.018832  -0.034722   0.045736   0.002119   0.007506   0.014303
    20  C    0.064941  -0.393534  -2.200709   0.060368   0.045890   0.068824
    21  N    0.006486  -0.009812   0.233660  -0.005395  -0.004779  -0.020209
    22  C    0.011656   0.029607  -0.592139  -0.001635   0.000540  -0.000266
    23  N    0.022141  -0.012394   0.575429  -0.004243   0.027648  -0.005214
    24  C   -0.095399  -0.206777  -1.452193   0.047092  -0.267246  -0.038459
    25  H   -0.025716   0.139821   0.161925  -0.002811   0.021784   0.040835
    26  H   -0.000121  -0.005374  -0.047218  -0.000529  -0.001285  -0.001149
    27  O   -0.000784  -0.000858   0.035189  -0.000080   0.000458   0.000223
    28  O    0.062956  -0.003829   0.021655  -0.006482   0.063208  -0.011581
               7          8          9         10         11         12
     1  C   -0.203986   0.264232  -1.825091  -1.086047  -0.475971  -0.076201
     2  C    0.769447   0.388812   1.209492   0.363799   0.005671  -0.056483
     3  C   -2.411106  -5.863658  -3.804831   0.260589   0.052967   0.375899
     4  O   -0.041860  -0.128455  -0.062596   0.033093  -0.026215  -0.013984
     5  H    0.144362   0.346698   0.114057  -0.150461   0.034989   0.032718
     6  O    0.085871   0.271539   0.147709  -0.014451   0.020952  -0.010506
     7  H    2.848594   0.348640   0.181699  -0.013919  -0.008807  -0.019986
     8  C    0.348640  15.520093   0.543783  -0.109661  -0.006135  -0.111443
     9  C    0.181699   0.543783   9.991535   0.055538   0.135177  -0.286764
    10  H   -0.013919  -0.109661   0.055538   2.160228  -0.069691  -0.110215
    11  O   -0.008807  -0.006135   0.135177  -0.069691   8.709853  -0.004625
    12  C   -0.019986  -0.111443  -0.286764  -0.110215  -0.004625   4.986285
    13  H    0.006354  -0.216829  -0.973986   0.115211   0.000144  -0.009330
    14  O    0.003970   0.050225   0.079849   0.047642   0.004431   0.046085
    15  H   -0.005837   0.034661  -0.166232  -0.061202   0.001000   0.237288
    16  H    0.005861  -0.022541   0.160793   0.027780  -0.000034   0.049085
    17  H    0.007809   0.018627  -0.052562  -0.101661   0.375419  -0.005504
    18  H   -0.005312   0.018493   0.028429  -0.005916   0.024668   0.003105
    19  H   -0.006554  -0.002608  -0.065067  -0.011669   0.000207  -0.001660
    20  C    0.267250  -4.041722  -0.026953   0.006110  -0.005312  -0.037072
    21  N   -0.009803   0.222417  -0.021973   0.000105   0.000620   0.004998
    22  C    0.007090   0.588688  -0.004605   0.000677  -0.000315  -0.006782
    23  N    0.016288   0.392130   0.020196  -0.000085  -0.000769  -0.009711
    24  C   -0.166332  -3.981176  -0.176929   0.033555   0.008254  -0.002748
    25  H   -0.056784   0.304555   0.041473  -0.001019   0.000583   0.001142
    26  H   -0.002561  -0.023588  -0.002162   0.000114   0.000024  -0.000042
    27  O    0.001069   0.052685   0.000497  -0.000060   0.000003   0.000182
    28  O    0.010003   0.032240  -0.045245  -0.005882  -0.001796   0.008328
              13         14         15         16         17         18
     1  C   -0.000609  -0.014198   0.034127   0.024600   0.084510  -0.005089
     2  C    0.079026  -0.050500   0.017763  -0.006009  -0.032215  -0.085009
     3  C    0.659513  -0.088896  -0.044225   0.017702  -0.018023  -0.090650
     4  O    0.006222   0.004980  -0.001941  -0.000955   0.003079   0.314124
     5  H   -0.014725  -0.011693   0.020643  -0.005137   0.004025   0.057051
     6  O   -0.319030  -0.021874   0.105456  -0.030550   0.004357   0.011208
     7  H    0.006354   0.003970  -0.005837   0.005861   0.007809  -0.005312
     8  C   -0.216829   0.050225   0.034661  -0.022541   0.018627   0.018493
     9  C   -0.973986   0.079849  -0.166232   0.160793  -0.052562   0.028429
    10  H    0.115211   0.047642  -0.061202   0.027780  -0.101661  -0.005916
    11  O    0.000144   0.004431   0.001000  -0.000034   0.375419   0.024668
    12  C   -0.009330   0.046085   0.237288   0.049085  -0.005504   0.003105
    13  H    2.285877   0.026697  -0.138113   0.008948  -0.027904  -0.001151
    14  O    0.026697   8.525373  -0.186671  -0.056911  -0.000642  -0.002015
    15  H   -0.138113  -0.186671   1.844591  -0.387210   0.007379   0.000673
    16  H    0.008948  -0.056911  -0.387210   1.501623  -0.002281  -0.000226
    17  H   -0.027904  -0.000642   0.007379  -0.002281   0.623576  -0.004657
    18  H   -0.001151  -0.002015   0.000673  -0.000226  -0.004657   0.657454
    19  H    0.011533   0.172276   0.018222  -0.048393  -0.000243  -0.000150
    20  C    0.008064   0.006529  -0.004943  -0.002935   0.002587  -0.005290
    21  N   -0.001026  -0.000220   0.000177   0.000486  -0.000089  -0.000171
    22  C   -0.000698   0.001347  -0.000746   0.000939   0.000281  -0.000685
    23  N   -0.000817  -0.010439  -0.000405   0.000794   0.000100  -0.000350
    24  C    0.021046   0.037020  -0.017297   0.019674  -0.002876  -0.005668
    25  H    0.000694   0.000140   0.000712  -0.000418  -0.000258   0.002129
    26  H    0.000075   0.000071  -0.000070   0.000098  -0.000008   0.000005
    27  O    0.000015  -0.000042   0.000018   0.000007  -0.000005   0.000001
    28  O   -0.001087  -0.055116   0.000988   0.004613   0.000550  -0.000355
              19         20         21         22         23         24
     1  C    0.018832   0.064941   0.006486   0.011656   0.022141  -0.095399
     2  C   -0.034722  -0.393534  -0.009812   0.029607  -0.012394  -0.206777
     3  C    0.045736  -2.200709   0.233660  -0.592139   0.575429  -1.452193
     4  O    0.002119   0.060368  -0.005395  -0.001635  -0.004243   0.047092
     5  H    0.007506   0.045890  -0.004779   0.000540   0.027648  -0.267246
     6  O    0.014303   0.068824  -0.020209  -0.000266  -0.005214  -0.038459
     7  H   -0.006554   0.267250  -0.009803   0.007090   0.016288  -0.166332
     8  C   -0.002608  -4.041722   0.222417   0.588688   0.392130  -3.981176
     9  C   -0.065067  -0.026953  -0.021973  -0.004605   0.020196  -0.176929
    10  H   -0.011669   0.006110   0.000105   0.000677  -0.000085   0.033555
    11  O    0.000207  -0.005312   0.000620  -0.000315  -0.000769   0.008254
    12  C   -0.001660  -0.037072   0.004998  -0.006782  -0.009711  -0.002748
    13  H    0.011533   0.008064  -0.001026  -0.000698  -0.000817   0.021046
    14  O    0.172276   0.006529  -0.000220   0.001347  -0.010439   0.037020
    15  H    0.018222  -0.004943   0.000177  -0.000746  -0.000405  -0.017297
    16  H   -0.048393  -0.002935   0.000486   0.000939   0.000794   0.019674
    17  H   -0.000243   0.002587  -0.000089   0.000281   0.000100  -0.002876
    18  H   -0.000150  -0.005290  -0.000171  -0.000685  -0.000350  -0.005668
    19  H    0.575052   0.026880  -0.001331  -0.001828   0.002659  -0.040746
    20  C    0.026880  14.910969  -0.890139  -0.472505   0.004867  -1.047091
    21  N   -0.001331  -0.890139   7.410113  -0.083006   0.047057   0.146133
    22  C   -0.001828  -0.472505  -0.083006   6.384722  -0.067618  -0.370971
    23  N    0.002659   0.004867   0.047057  -0.067618   8.687330  -1.546782
    24  C   -0.040746  -1.047091   0.146133  -0.370971  -1.546782  14.737770
    25  H   -0.001581  -1.111500   0.157903   0.006406   0.003821  -0.114318
    26  H   -0.000164  -0.168981   0.409651  -0.199929   0.007520   0.034738
    27  O    0.000251  -0.000805  -0.089071   0.075907  -0.122963   0.049350
    28  O    0.065125  -0.133913   0.005596   0.052698  -0.255866   0.050623
              25         26         27         28
     1  C   -0.025716  -0.000121  -0.000784   0.062956
     2  C    0.139821  -0.005374  -0.000858  -0.003829
     3  C    0.161925  -0.047218   0.035189   0.021655
     4  O   -0.002811  -0.000529  -0.000080  -0.006482
     5  H    0.021784  -0.001285   0.000458   0.063208
     6  O    0.040835  -0.001149   0.000223  -0.011581
     7  H   -0.056784  -0.002561   0.001069   0.010003
     8  C    0.304555  -0.023588   0.052685   0.032240
     9  C    0.041473  -0.002162   0.000497  -0.045245
    10  H   -0.001019   0.000114  -0.000060  -0.005882
    11  O    0.000583   0.000024   0.000003  -0.001796
    12  C    0.001142  -0.000042   0.000182   0.008328
    13  H    0.000694   0.000075   0.000015  -0.001087
    14  O    0.000140   0.000071  -0.000042  -0.055116
    15  H    0.000712  -0.000070   0.000018   0.000988
    16  H   -0.000418   0.000098   0.000007   0.004613
    17  H   -0.000258  -0.000008  -0.000005   0.000550
    18  H    0.002129   0.000005   0.000001  -0.000355
    19  H   -0.001581  -0.000164   0.000251   0.065125
    20  C   -1.111500  -0.168981  -0.000805  -0.133913
    21  N    0.157903   0.409651  -0.089071   0.005596
    22  C    0.006406  -0.199929   0.075907   0.052698
    23  N    0.003821   0.007520  -0.122963  -0.255866
    24  C   -0.114318   0.034738   0.049350   0.050623
    25  H    2.264848  -0.061817   0.000699  -0.001901
    26  H   -0.061817   1.192731  -0.011804   0.002013
    27  O    0.000699  -0.011804   8.719356  -0.011234
    28  O   -0.001901   0.002013  -0.011234   9.020501
 Mulliken charges:
               1
     1  C    1.248761
     2  C    0.499220
     3  C    1.109284
     4  O   -0.658450
     5  H   -0.536513
     6  O   -0.899066
     7  H   -0.751457
     8  C    1.109297
     9  C    0.804770
    10  H   -0.362503
    11  O   -0.775292
    12  C    1.017938
    13  H   -0.524115
    14  O   -0.507419
    15  H   -0.308808
    16  H   -0.259404
    17  H    0.116631
    18  H    0.095355
    19  H    0.256019
    20  C    1.070126
    21  N   -0.508379
    22  C    0.643168
    23  N   -0.770323
    24  C    0.347756
    25  H   -0.771345
    26  H   -0.120237
    27  O   -0.698205
    28  O   -0.866811
 Sum of Mulliken charges =  -1.00000
 Mulliken charges with hydrogens summed into heavy atoms:
               1
     1  C    0.886258
     2  C   -0.037293
     3  C    0.357827
     4  O   -0.563095
     6  O   -0.899066
     8  C    1.109297
     9  C    0.280656
    11  O   -0.658661
    12  C    0.449726
    14  O   -0.251400
    20  C    0.298782
    21  N   -0.628616
    22  C    0.643168
    23  N   -0.770323
    24  C    0.347756
    27  O   -0.698205
    28  O   -0.866811
 Electronic spatial extent (au):  <R**2>=           4216.1646
 Charge=             -1.0000 electrons
 Dipole moment (field-independent basis, Debye):
    X=            -11.9188    Y=             -7.2889    Z=             -4.1198  Tot=             14.5657
 Quadrupole moment (field-independent basis, Debye-Ang):
   XX=           -146.3877   YY=           -115.3362   ZZ=           -108.9872
   XY=            -12.3638   XZ=             -4.3251   YZ=             -1.6300
 Traceless Quadrupole moment (field-independent basis, Debye-Ang):
   XX=            -22.8174   YY=              8.2342   ZZ=             14.5832
   XY=            -12.3638   XZ=             -4.3251   YZ=             -1.6300
 Octapole moment (field-independent basis, Debye-Ang**2):
  XXX=           -344.4893  YYY=            -42.8780  ZZZ=              0.1014  XYY=              0.8607
  XXY=            -79.9176  XXZ=            -36.4300  XZZ=             -1.4790  YZZ=             -0.2915
  YYZ=            -24.8551  XYZ=              4.6967
 Hexadecapole moment (field-independent basis, Debye-Ang**3):
 XXXX=          -5040.7266 YYYY=          -1168.3990 ZZZZ=           -455.5745 XXXY=           -129.6013
 XXXZ=            -82.1511 YYYX=              4.6563 YYYZ=            -25.0643 ZZZX=             -0.2675
 ZZZY=             10.1141 XXYY=           -864.1188 XXZZ=           -739.3719 YYZZ=           -280.0471
 XXYZ=            -12.2166 YYXZ=             -7.6743 ZZXY=             -5.8145
 N-N= 1.305159898155D+03 E-N=-4.760709381074D+03  KE= 9.049212544550D+02
 Calling FoFJK, ICntrl=      2127 FMM=F ISym2X=0 I1Cent= 0 IOpClX= 0 NMat=1 NMatS=1 NMatT=0.
 ***** Axes restored to original set *****
 -------------------------------------------------------------------
 Center     Atomic                   Forces (Hartrees/Bohr)
 Number     Number              X              Y              Z
 -------------------------------------------------------------------
      1        6           0.002375370    0.002156584    0.002083902
      2        6           0.000870425    0.004810693   -0.004480088
      3        6           0.010046460   -0.004869049    0.003109009
      4        8          -0.003105679   -0.004219696    0.002856473
      5        1           0.001530994    0.000382410   -0.001037615
      6        8          -0.010645700    0.002460286   -0.001638211
      7        1          -0.002231213   -0.001595552   -0.000969748
      8        6          -0.012430873   -0.002846066   -0.001181958
      9        6           0.007235756   -0.001242166   -0.001086930
     10        1          -0.001246060   -0.000052366    0.000170357
     11        8          -0.004292583   -0.003684520   -0.001027400
     12        6           0.002515252    0.000562143    0.004054808
     13        1          -0.001890067   -0.000403387   -0.000967332
     14        8          -0.009996712    0.001501282   -0.002222856
     15        1          -0.001717254    0.000114546   -0.000016926
     16        1           0.000523202    0.000009974   -0.000753844
     17        1           0.000911302    0.000924373   -0.000179953
     18        1           0.001625748    0.000943382   -0.000670100
     19        1           0.013670977   -0.003438496    0.000415729
     20        6           0.004805875   -0.001384751   -0.000524736
     21        7           0.002298110   -0.022297372   -0.009763142
     22        6          -0.068793114    0.040539944    0.014457081
     23        7          -0.000765512    0.005299574    0.002749574
     24        6           0.075320485   -0.018189596   -0.005674283
     25        1          -0.000360411   -0.001345954   -0.000543774
     26        1          -0.002368873   -0.003545583   -0.001616131
     27        8           0.031893262   -0.009399729   -0.002771582
     28        8          -0.035779167    0.018809093    0.007229675
 -------------------------------------------------------------------
 Cartesian Forces:  Max     0.075320485 RMS     0.014252239

 GradGradGradGradGradGradGradGradGradGradGradGradGradGradGradGradGradGrad
 Berny optimization.
 FormGI is forming the generalized inverse of G from B-inverse, IUseBI=4.
 Internal  Forces:  Max     0.037189159 RMS     0.007399804
 Search for a local minimum.
 Step number   1 out of a maximum of  166
 All quantities printed in internal units (Hartrees-Bohrs-Radians)
 Mixed Optimization -- RFO/linear search
 Second derivative matrix not updated -- first step.
 ITU=  0
     Eigenvalues ---    0.00498   0.00516   0.00841   0.00846   0.01332
     Eigenvalues ---    0.01426   0.01518   0.01636   0.01689   0.01691
     Eigenvalues ---    0.01937   0.01949   0.02043   0.02283   0.02464
     Eigenvalues ---    0.03100   0.03712   0.04334   0.04899   0.04928
     Eigenvalues ---    0.05065   0.05432   0.05545   0.05869   0.06084
     Eigenvalues ---    0.06229   0.06897   0.07722   0.08366   0.09841
     Eigenvalues ---    0.11643   0.13211   0.14011   0.16000   0.16000
     Eigenvalues ---    0.16000   0.16000   0.16000   0.16003   0.16829
     Eigenvalues ---    0.18317   0.20261   0.22069   0.22441   0.24447
     Eigenvalues ---    0.24991   0.24998   0.25000   0.25000   0.26189
     Eigenvalues ---    0.28345   0.28529   0.30473   0.32977   0.33019
     Eigenvalues ---    0.33215   0.33334   0.33606   0.33874   0.34245
     Eigenvalues ---    0.34906   0.36115   0.38179   0.40831   0.41397
     Eigenvalues ---    0.44296   0.44923   0.45583   0.46040   0.46783
     Eigenvalues ---    0.48305   0.50707   0.52642   0.53240   0.54037
     Eigenvalues ---    0.55462   0.93386   0.97964
 RFO step:  Lambda=-2.64026448D-02 EMin= 4.97556150D-03
 Linear search not attempted -- first point.
 Iteration  1 RMS(Cart)=  0.16242908 RMS(Int)=  0.00631421
 Iteration  2 RMS(Cart)=  0.01416347 RMS(Int)=  0.00020428
 Iteration  3 RMS(Cart)=  0.00009228 RMS(Int)=  0.00020061
 Iteration  4 RMS(Cart)=  0.00000001 RMS(Int)=  0.00020061
 Variable       Old X    -DE/DX   Delta X   Delta X   Delta X     New X
                                 (Linear)    (Quad)   (Total)
    R1        2.89171   0.00017   0.00000  -0.00066  -0.00065   2.89106
    R2        2.89318   0.00037   0.00000  -0.00379  -0.00386   2.88931
    R3        2.07544   0.00083   0.00000   0.00228   0.00228   2.07771
    R4        2.69698   0.00399   0.00000   0.00905   0.00905   2.70603
    R5        2.90982  -0.00239   0.00000  -0.00304  -0.00294   2.90688
    R6        2.64604   0.00376   0.00000   0.00779   0.00779   2.65383
    R7        2.06919   0.00008   0.00000   0.00023   0.00023   2.06942
    R8        2.67707   0.00174   0.00000   0.00638   0.00641   2.68348
    R9        2.09091   0.00204   0.00000   0.00574   0.00574   2.09665
   R10        2.82318  -0.00460   0.00000  -0.01290  -0.01290   2.81028
   R11        1.82698  -0.00140   0.00000  -0.00246  -0.00246   1.82451
   R12        2.71523  -0.00869   0.00000  -0.02178  -0.02185   2.69339
   R13        2.55832  -0.00621   0.00000  -0.01001  -0.01007   2.54825
   R14        2.75768   0.01359   0.00000   0.03316   0.03312   2.79080
   R15        2.87031  -0.00163   0.00000  -0.00492  -0.00492   2.86539
   R16        2.08468   0.00196   0.00000   0.00544   0.00544   2.09013
   R17        1.81424  -0.00080   0.00000  -0.00137  -0.00137   1.81286
   R18        2.65365  -0.00038   0.00000  -0.00079  -0.00079   2.65286
   R19        2.08000   0.00170   0.00000   0.00468   0.00468   2.08468
   R20        2.08675   0.00075   0.00000   0.00209   0.00209   2.08884
   R21        1.83990   0.01387   0.00000   0.02509   0.02509   1.86498
   R22        2.58256  -0.01269   0.00000  -0.02171  -0.02172   2.56084
   R23        2.05827   0.00149   0.00000   0.00398   0.00398   2.06225
   R24        2.61297   0.02368   0.00000   0.04715   0.04719   2.66016
   R25        1.90786   0.00126   0.00000   0.00259   0.00259   1.91045
   R26        2.60545  -0.01823   0.00000  -0.03608  -0.03602   2.56943
   R27        2.29465   0.02945   0.00000   0.02927   0.02927   2.32392
   R28        2.63398  -0.02311   0.00000  -0.04874  -0.04872   2.58526
   R29        2.31411   0.03719   0.00000   0.03873   0.03873   2.35283
    A1        1.80085  -0.00341   0.00000  -0.01211  -0.01215   1.78869
    A2        1.95313  -0.00063   0.00000  -0.00781  -0.00788   1.94525
    A3        1.84221   0.00470   0.00000   0.02957   0.02957   1.87177
    A4        1.95855   0.00129   0.00000  -0.00233  -0.00238   1.95616
    A5        1.96214  -0.00030   0.00000   0.00157   0.00153   1.96368
    A6        1.93945  -0.00155   0.00000  -0.00732  -0.00730   1.93215
    A7        1.76281   0.00143   0.00000   0.02054   0.02054   1.78335
    A8        1.99902  -0.00012   0.00000   0.00152   0.00114   2.00016
    A9        1.90458  -0.00161   0.00000  -0.01891  -0.01878   1.88580
   A10        1.98310   0.00112   0.00000   0.00964   0.00953   1.99262
   A11        1.91911  -0.00200   0.00000  -0.02055  -0.02052   1.89859
   A12        1.89154   0.00095   0.00000   0.00578   0.00584   1.89738
   A13        1.84088  -0.00023   0.00000  -0.00445  -0.00571   1.83517
   A14        1.86929   0.00001   0.00000   0.00697   0.00735   1.87664
   A15        2.01277  -0.00406   0.00000  -0.03236  -0.03308   1.97969
   A16        1.92740  -0.00010   0.00000   0.00341   0.00382   1.93122
   A17        1.92160  -0.00174   0.00000  -0.03266  -0.03350   1.88810
   A18        1.89078   0.00602   0.00000   0.05882   0.05921   1.94998
   A19        1.85546  -0.00111   0.00000  -0.00597  -0.00597   1.84949
   A20        1.92291  -0.00074   0.00000   0.01215   0.01204   1.93496
   A21        2.11215   0.00485   0.00000   0.01678   0.01683   2.12899
   A22        2.11379  -0.00865   0.00000  -0.03209  -0.03204   2.08175
   A23        2.05697   0.00381   0.00000   0.01538   0.01528   2.07225
   A24        1.86179   0.00402   0.00000   0.01009   0.00935   1.87114
   A25        1.98790   0.00002   0.00000  -0.00543  -0.00550   1.98240
   A26        1.91371  -0.00191   0.00000  -0.00138  -0.00162   1.91209
   A27        1.89616  -0.00710   0.00000  -0.04785  -0.04776   1.84839
   A28        1.89118   0.00148   0.00000   0.01670   0.01704   1.90822
   A29        1.91033   0.00348   0.00000   0.02784   0.02801   1.93834
   A30        1.90728  -0.00158   0.00000  -0.00848  -0.00848   1.89879
   A31        1.96942  -0.00522   0.00000  -0.02247  -0.02259   1.94683
   A32        1.90128   0.00211   0.00000   0.01461   0.01472   1.91600
   A33        1.88693  -0.00008   0.00000  -0.00846  -0.00867   1.87826
   A34        1.87035   0.00237   0.00000   0.01723   0.01734   1.88769
   A35        1.95401   0.00135   0.00000  -0.00263  -0.00297   1.95104
   A36        1.87930  -0.00027   0.00000   0.00370   0.00372   1.88302
   A37        1.89645   0.00241   0.00000   0.01291   0.01291   1.90936
   A38        2.14668  -0.01192   0.00000  -0.04138  -0.04146   2.10523
   A39        2.11918   0.00597   0.00000   0.02074   0.02078   2.13996
   A40        2.01731   0.00595   0.00000   0.02065   0.02068   2.03799
   A41        2.15456  -0.00546   0.00000  -0.01532  -0.01530   2.13926
   A42        2.11705  -0.00145   0.00000  -0.01476  -0.01478   2.10227
   A43        2.01157   0.00691   0.00000   0.03009   0.03008   2.04165
   A44        1.96890   0.02172   0.00000   0.07981   0.07990   2.04880
   A45        2.14990  -0.02886   0.00000  -0.10502  -0.10507   2.04483
   A46        2.16438   0.00714   0.00000   0.02522   0.02517   2.18955
   A47        2.23844  -0.02455   0.00000  -0.09401  -0.09391   2.14453
   A48        2.00065   0.01640   0.00000   0.05556   0.05553   2.05618
   A49        2.21087  -0.02835   0.00000  -0.10066  -0.10064   2.11023
   A50        2.07165   0.01194   0.00000   0.04511   0.04513   2.11678
    D1       -0.58615   0.00144   0.00000   0.01346   0.01371  -0.57244
    D2       -2.72440  -0.00081   0.00000  -0.01272  -0.01260  -2.73699
    D3        1.43517  -0.00074   0.00000  -0.00708  -0.00696   1.42821
    D4       -2.69531   0.00229   0.00000   0.02762   0.02769  -2.66763
    D5        1.44962   0.00005   0.00000   0.00144   0.00138   1.45101
    D6       -0.67400   0.00011   0.00000   0.00708   0.00703  -0.66697
    D7        1.47599   0.00155   0.00000   0.02214   0.02223   1.49822
    D8       -0.66225  -0.00070   0.00000  -0.00405  -0.00408  -0.66633
    D9       -2.78588  -0.00064   0.00000   0.00159   0.00156  -2.78431
   D10        0.36827  -0.00011   0.00000   0.01979   0.01969   0.38796
   D11       -1.72344   0.00599   0.00000   0.07585   0.07582  -1.64762
   D12        2.41256   0.00288   0.00000   0.04441   0.04433   2.45690
   D13        2.47374  -0.00229   0.00000   0.00182   0.00180   2.47555
   D14        0.38203   0.00381   0.00000   0.05787   0.05793   0.43996
   D15       -1.76515   0.00070   0.00000   0.02643   0.02644  -1.73870
   D16       -1.60805  -0.00358   0.00000  -0.00868  -0.00871  -1.61676
   D17        2.58342   0.00251   0.00000   0.04738   0.04742   2.63084
   D18        0.43624  -0.00060   0.00000   0.01594   0.01593   0.45218
   D19        2.94092   0.00127   0.00000   0.00877   0.00872   2.94963
   D20       -1.39152  -0.00027   0.00000   0.01167   0.01172  -1.37980
   D21        0.82016  -0.00003   0.00000   0.00391   0.00392   0.82407
   D22        0.62224  -0.00136   0.00000  -0.04643  -0.04650   0.57574
   D23       -1.43125  -0.00114   0.00000  -0.05146  -0.05154  -1.48279
   D24        2.74632  -0.00624   0.00000  -0.11104  -0.11097   2.63535
   D25        2.77151   0.00000   0.00000  -0.02627  -0.02619   2.74532
   D26        0.71802   0.00022   0.00000  -0.03130  -0.03123   0.68679
   D27       -1.38759  -0.00488   0.00000  -0.09088  -0.09066  -1.47825
   D28       -1.38827   0.00054   0.00000  -0.02722  -0.02724  -1.41551
   D29        2.84143   0.00076   0.00000  -0.03225  -0.03228   2.80915
   D30        0.73582  -0.00434   0.00000  -0.09183  -0.09171   0.64411
   D31        0.54687   0.00210   0.00000   0.03532   0.03536   0.58223
   D32       -1.46689  -0.00048   0.00000   0.00062   0.00058  -1.46631
   D33        2.67761   0.00064   0.00000   0.01625   0.01624   2.69385
   D34       -0.41466   0.00193   0.00000   0.06526   0.06522  -0.34943
   D35        1.59926   0.00177   0.00000   0.07265   0.07257   1.67183
   D36       -2.59672   0.00806   0.00000   0.12700   0.12677  -2.46995
   D37        2.04257   0.00217   0.00000   0.03036   0.02989   2.07246
   D38       -1.07343   0.00199   0.00000   0.02673   0.02629  -1.04714
   D39       -2.16062  -0.00220   0.00000  -0.02191  -0.02142  -2.18204
   D40        1.00657  -0.00238   0.00000  -0.02554  -0.02502   0.98154
   D41       -0.05129   0.00038   0.00000  -0.00076  -0.00083  -0.05212
   D42        3.11589   0.00020   0.00000  -0.00439  -0.00443   3.11146
   D43        0.02805  -0.00153   0.00000  -0.05360  -0.05393  -0.02587
   D44        2.17803  -0.00320   0.00000  -0.08178  -0.08186   2.09617
   D45       -2.03111  -0.00221   0.00000  -0.06598  -0.06621  -2.09732
   D46       -3.10905  -0.00001   0.00000  -0.00405  -0.00411  -3.11317
   D47        0.02610  -0.00001   0.00000  -0.00274  -0.00278   0.02332
   D48        0.00776  -0.00001   0.00000  -0.00121  -0.00121   0.00655
   D49       -3.14028  -0.00001   0.00000   0.00009   0.00013  -3.14015
   D50        3.12385   0.00035   0.00000   0.00372   0.00360   3.12745
   D51       -0.01073   0.00003   0.00000  -0.00027  -0.00022  -0.01096
   D52        0.00707   0.00015   0.00000   0.00015   0.00007   0.00713
   D53       -3.12752  -0.00017   0.00000  -0.00384  -0.00376  -3.13127
   D54        0.84305   0.00142   0.00000   0.01385   0.01387   0.85691
   D55       -1.23183   0.00030   0.00000  -0.00349  -0.00335  -1.23518
   D56        3.01384  -0.00048   0.00000  -0.01111  -0.01090   3.00294
   D57       -1.22916   0.00123   0.00000   0.03756   0.03722  -1.19194
   D58        2.97915   0.00011   0.00000   0.02022   0.02000   2.99915
   D59        0.94163  -0.00067   0.00000   0.01260   0.01246   0.95409
   D60        2.99207   0.00159   0.00000   0.02934   0.02934   3.02141
   D61        0.91719   0.00046   0.00000   0.01200   0.01212   0.92931
   D62       -1.12033  -0.00032   0.00000   0.00437   0.00458  -1.11575
   D63        1.06234  -0.00262   0.00000  -0.04519  -0.04510   1.01724
   D64       -3.12808  -0.00156   0.00000  -0.02910  -0.02915   3.12596
   D65       -1.07122   0.00034   0.00000  -0.01541  -0.01545  -1.08667
   D66       -0.01395   0.00012   0.00000   0.00150   0.00152  -0.01243
   D67        3.13289   0.00002   0.00000   0.00073   0.00078   3.13367
   D68        3.13374   0.00011   0.00000   0.00026   0.00024   3.13398
   D69       -0.00261   0.00001   0.00000  -0.00051  -0.00049  -0.00310
   D70        0.00357  -0.00002   0.00000   0.00034   0.00039   0.00397
   D71       -3.13645  -0.00005   0.00000   0.00000   0.00006  -3.13639
   D72        3.14022   0.00006   0.00000   0.00096   0.00099   3.14120
   D73        0.00019   0.00002   0.00000   0.00061   0.00066   0.00085
   D74        0.01343  -0.00018   0.00000  -0.00286  -0.00278   0.01065
   D75       -3.12975  -0.00018   0.00000  -0.00265  -0.00255  -3.13230
   D76       -0.01871   0.00018   0.00000   0.00284   0.00277  -0.01595
   D77        3.11647   0.00029   0.00000   0.00585   0.00598   3.12245
         Item               Value     Threshold  Converged?
 Maximum Force            0.037189     0.000450     NO 
 RMS     Force            0.007400     0.000300     NO 
 Maximum Displacement     0.727597     0.001800     NO 
 RMS     Displacement     0.171432     0.001200     NO 
 Predicted change in Energy=-1.551485D-02
 GradGradGradGradGradGradGradGradGradGradGradGradGradGradGradGradGradGrad

                          Input orientation:                          
 ---------------------------------------------------------------------
 Center     Atomic      Atomic             Coordinates (Angstroms)
 Number     Number       Type             X           Y           Z
 ---------------------------------------------------------------------
      1          6           0       -2.759942   -0.518905    0.313310
      2          6           0       -1.345566   -0.863555    0.783728
      3          6           0       -0.554401   -0.857807   -0.535456
      4          8           0       -1.246372   -2.062353    1.508456
      5          1           0       -0.987682   -0.041928    1.413067
      6          8           0       -1.176707    0.135525   -1.337037
      7          1           0       -0.667266   -1.860390   -0.997065
      8          6           0        0.875929   -0.487886   -0.365491
      9          6           0       -2.496757    0.408063   -0.873780
     10          1           0       -3.337382   -0.021670    1.105883
     11          8           0       -3.387992   -1.745079   -0.077306
     12          6           0       -2.513735    1.879874   -0.509582
     13          1           0       -3.220491    0.190088   -1.681267
     14          8           0       -1.715910    2.141815    0.615413
     15          1           0       -3.545533    2.195844   -0.280387
     16          1           0       -2.173538    2.447524   -1.394948
     17          1           0       -4.324071   -1.583745   -0.211606
     18          1           0       -1.908770   -2.655645    1.132416
     19          1           0       -0.789848    1.852170    0.435133
     20          6           0        1.875571   -1.333029   -0.689288
     21          7           0        3.168995   -0.979905   -0.492414
     22          6           0        3.541067    0.270205    0.037109
     23          7           0        2.542718    1.135401    0.358784
     24          6           0        1.218028    0.832868    0.199837
     25          1           0        1.695189   -2.322820   -1.112021
     26          1           0        3.916192   -1.618205   -0.729732
     27          8           0        4.744123    0.488517    0.168713
     28          8           0        0.327149    1.640327    0.523155
 ---------------------------------------------------------------------
                    Distance matrix (angstroms):
                    1          2          3          4          5
     1  C    0.000000
     2  C    1.529882   0.000000
     3  C    2.387398   1.538253   0.000000
     4  O    2.470122   1.404345   2.471301   0.000000
     5  H    2.139598   1.095088   2.156416   2.039151   0.000000
     6  O    2.378772   2.350387   1.420037   3.596157   2.762297
     7  H    2.809975   2.150580   1.109501   2.579493   3.036149
     8  C    3.698823   2.529204   1.487136   3.239565   2.614420
     9  C    1.528959   2.385286   2.342998   3.652597   2.776593
    10  H    1.099478   2.186295   3.337380   2.949369   2.369781
    11  O    1.431968   2.385366   3.004396   2.683625   3.299004
    12  C    2.547922   3.250181   3.366684   4.606500   3.117489
    13  H    2.166359   3.271347   3.085288   4.375496   3.822848
    14  O    2.874143   3.032776   3.416334   4.323542   2.436247
    15  H    2.887818   3.915626   4.282140   5.159297   3.797106
    16  H    3.472998   4.049125   3.779623   5.443196   3.935552
    17  H    1.963650   3.221934   3.852567   3.558077   4.018489
    18  H    2.441535   1.910594   2.801488   0.965491   2.785442
    19  H    3.085143   2.793834   2.888158   4.084596   2.140818
    20  C    4.812066   3.572940   2.480778   3.886967   3.779557
    21  N    6.001167   4.692903   3.725646   4.966955   4.667828
    22  C    6.356233   5.071689   4.286385   5.524966   4.743443
    23  N    5.554908   4.392625   3.790078   5.089654   3.867989
    24  C    4.202905   3.129024   2.557448   4.020951   2.665023
    25  H    5.013370   3.869045   2.745787   3.948103   4.333166
    26  H    6.845960   5.526858   4.538959   5.644362   5.578908
    27  O    7.572767   6.268226   5.512059   6.647396   5.889259
    28  O    3.773122   3.022465   2.852798   4.142055   2.313159
                    6          7          8          9         10
     6  O    0.000000
     7  H    2.087770   0.000000
     8  C    2.354964   2.159653   0.000000
     9  C    1.425278   2.916868   3.526485   0.000000
    10  H    3.265132   3.864299   4.487125   2.193259   0.000000
    11  O    3.164391   2.874301   4.454729   2.462659   2.091085
    12  C    2.348421   4.199603   4.137255   1.516297   2.627545
    13  H    2.073288   3.345378   4.355637   1.106047   2.797627
    14  O    2.850965   4.440426   3.820358   2.415225   2.747799
    15  H    3.312516   5.025046   5.172909   2.155970   2.623441
    16  H    2.518406   4.580971   4.356107   2.129669   3.702108
    17  H    3.758774   3.750427   5.316445   2.782956   2.269232
    18  H    3.797992   2.590068   3.833726   3.709024   2.996575
    19  H    2.497422   3.981121   2.981892   2.590799   3.232818
    20  C    3.448569   2.615120   1.348478   4.709850   5.667202
    21  N    4.565380   3.968227   2.348690   5.845738   6.767992
    22  C    4.915669   4.828976   2.799955   6.107704   6.967103
    23  N    4.208288   4.595333   2.436765   5.238755   6.039251
    24  C    2.929680   3.498649   1.476827   3.890083   4.722596
    25  H    3.787067   2.410031   2.143706   5.008682   5.961641
    26  H    5.420517   4.597631   3.263969   6.726993   7.650670
    27  O    6.119486   6.013279   4.025128   7.315983   8.151644
    28  O    2.826009   3.943976   2.370684   3.382950   4.065783
                   11         12         13         14         15
    11  O    0.000000
    12  C    3.753861   0.000000
    13  H    2.519051   2.174334   0.000000
    14  O    4.287617   1.403835   3.368641   0.000000
    15  H    3.949296   1.103166   2.468031   2.037866   0.000000
    16  H    4.559495   1.105365   2.504817   2.084330   1.785485
    17  H    0.959327   3.919536   2.554266   4.622365   3.859553
    18  H    2.116757   4.861387   4.211369   4.829090   5.311493
    19  H    4.466895   1.965971   3.626251   0.986907   2.867731
    20  C    5.315017   5.442522   5.410522   5.164835   6.481397
    21  N    6.614521   6.361765   6.603619   5.902094   7.430695
    22  C    7.217085   6.288921   6.976955   5.610095   7.350428
    23  N    6.607622   5.184209   6.186276   4.383451   6.212881
    24  C    5.285645   3.940248   4.863350   3.239450   4.977935
    25  H    5.219498   5.978346   5.550014   5.878145   6.969585
    26  H    7.334362   7.323182   7.423449   6.904183   8.392034
    27  O    8.436870   7.421082   8.182088   6.683185   8.475557
    28  O    5.061996   3.032252   4.421359   2.105728   3.993989
                   16         17         18         19         20
    16  H    0.000000
    17  H    4.719769   0.000000
    18  H    5.700878   2.964632   0.000000
    19  H    2.370283   4.971370   4.696658   0.000000
    20  C    5.584426   6.223069   4.403312   4.302822   0.000000
    21  N    6.411279   7.522600   5.588549   4.955142   1.355139
    22  C    6.280781   8.084514   6.281801   4.627943   2.423198
[...]
 6,0.00010202,0.00008597,-0.00008151,-0.00117376,0.00008922,-0.00006533
 ,-0.01263320,-0.04256888,-0.06014590,-0.04224220,0.23502965,0.15672648
 ,-0.00058912,-0.00040865,-0.00053289,-0.00020778,-0.00132774,0.0011626
 0,-0.00323902,0.00136567,-0.00073295,0.00076528,0.00135048,-0.00089345
 ,-0.00067384,-0.00034896,0.00042269,0.00278742,-0.00058112,0.00062024,
 0.00078878,0.00093225,0.00041085,0.00147539,0.00602968,0.00264676,-0.0
 0193361,0.00039194,0.00028388,0.00031844,-0.00003045,-0.00003772,0.001
 10947,0.00087771,0.00020304,-0.00083418,-0.00024299,-0.00149964,0.0006
 3643,0.00013080,0.00030229,0.00407659,-0.00072760,0.00066985,0.0005756
 7,-0.00004643,0.00008390,-0.00018754,-0.00000657,0.00028478,-0.0002166
 9,-0.00022345,0.00006000,-0.00034448,-0.00022691,0.00022928,-0.0062065
 5,0.00146449,0.00012202,-0.00142532,-0.02829957,-0.01283845,-0.1310732
 7,-0.01821047,-0.00790729,0.95096196,0.00044620,0.00011385,-0.00140282
 ,0.00157947,-0.00005714,0.00279647,-0.00714181,-0.00334165,-0.00494961
 ,0.00026637,-0.00015351,-0.00063571,0.00047375,0.00062697,-0.00032935,
 0.00550937,-0.00315003,0.00111550,-0.00103935,-0.00020414,-0.00028741,
 0.01421638,-0.02446448,-0.01144747,-0.00135355,0.00083733,0.00140932,0
 .00064320,-0.00001468,0.00002197,0.00016533,-0.00023107,-0.00005335,0.
 00123368,0.00100549,0.00172926,0.00061071,-0.00020524,-0.00009197,-0.0
 0456819,-0.00045231,-0.00093819,-0.00023626,-0.00024742,-0.00027533,0.
 00003753,-0.00005783,-0.00016013,-0.00004290,-0.00002874,0.00007291,-0
 .00030625,-0.00014983,0.00011638,0.00663550,-0.00057877,-0.00025249,-0
 .07427391,0.00001949,0.00088646,0.02383498,-0.15776123,-0.04276849,-0.
 02929237,0.47252680,0.00025004,0.00002925,-0.00065919,0.00092807,0.000
 06995,0.00144158,-0.00307686,-0.00157028,-0.00205351,0.00001918,-0.000
 02620,-0.00041187,0.00027946,0.00036645,-0.00016038,0.00217347,-0.0013
 6691,0.00017482,-0.00052434,0.00004797,-0.00006203,0.00630977,-0.01060
 738,-0.00669570,-0.00066167,0.00030584,0.00059123,0.00030054,-0.000019
 31,0.00000962,0.00003987,-0.00008096,-0.00008429,0.00047909,0.00041686
 ,0.00071768,0.00024037,-0.00008698,-0.00004152,-0.00154459,-0.00014196
 ,-0.00080717,-0.00009955,-0.00010639,-0.00012486,-0.00000243,-0.000003
 47,-0.00009323,-0.00003726,-0.00001632,0.00004398,-0.00011468,-0.00008
 060,0.00007605,0.00235299,-0.00053647,0.00090071,-0.03364275,0.0002467
 3,-0.00046154,0.01112485,-0.04285418,-0.08146052,-0.01598321,0.1122740
 3,0.27386468,0.00096226,0.00054106,-0.00030365,0.00081035,0.00149734,0
 .00058385,0.00024443,-0.00316191,-0.00209300,-0.00042214,-0.00171278,0
 .00045451,0.00100447,0.00116237,-0.00091759,0.00069802,-0.00163187,-0.
 00039768,-0.00127676,-0.00094040,-0.00052159,-0.01326215,-0.03252830,-
 0.01478032,0.00091738,0.00042594,0.00061375,0.00012014,0.00005880,0.00
 000932,-0.00094425,-0.00108421,-0.00023468,0.00189932,0.00116771,0.003
 66899,-0.00023814,-0.00033554,-0.00037363,-0.01032877,0.00123303,-0.00
 179733,-0.00089807,-0.00015386,-0.00048507,0.00018782,-0.00000656,-0.0
 0060532,0.00017607,0.00019471,-0.00001412,0.00013572,0.00005513,-0.000
 09875,0.01519177,-0.00390582,0.00017026,-0.04048250,0.00257363,0.00146
 719,0.03682056,0.03178265,0.01430557,-0.20010660,0.10041264,0.04566581
 ,0.69686999,-0.00027440,-0.00018953,0.00023093,0.00067249,-0.00026637,
 -0.00135532,0.00213085,-0.00565585,-0.00186908,-0.00018201,0.00044600,
 0.00041161,-0.00032007,-0.00035807,0.00060561,-0.00123117,0.00191289,-
 0.00011619,-0.00177637,-0.00084104,-0.00012211,-0.03383593,0.00759069,
 -0.00538911,0.00054936,-0.00047408,-0.00051570,-0.00024138,-0.00000478
 ,0.00004088,-0.00005111,0.00038257,0.00016093,-0.00077912,-0.00073883,
 -0.00137767,-0.00016468,0.00013280,0.00006875,0.00443266,-0.00027708,0
 .00086850,0.00028317,0.00015285,0.00023346,-0.00002544,0.00003292,0.00
 016061,0.00000730,-0.00001572,-0.00000948,0.00021290,0.00008625,-0.000
 16224,-0.00599036,0.00156911,-0.00049326,0.01717248,-0.00016513,0.0003
 1176,0.01447933,-0.04592242,-0.02930392,0.08542766,-0.20243000,-0.0597
 3987,-0.10137436,0.33963052,-0.00019387,-0.00016762,0.00012092,-0.0001
 0012,-0.00008793,-0.00063884,0.00108511,-0.00362996,0.00085159,-0.0000
 3940,0.00003528,0.00033165,-0.00017632,-0.00026207,0.00003931,-0.00018
 281,0.00105829,0.00032164,-0.00094412,-0.00014603,-0.00052390,-0.01534
 271,-0.00558187,0.01803869,0.00038300,-0.00020776,-0.00016814,-0.00012
 646,-0.00000892,0.00001152,-0.00003463,0.00015532,0.00012602,-0.000502
 73,-0.00028130,-0.00088960,-0.00004970,0.00006864,0.00002813,0.0024598
 3,-0.00022466,0.00032822,0.00011073,0.00007248,0.00013381,-0.00000407,
 -0.00001571,0.00013874,0.00002908,-0.00001784,-0.00002269,0.00007897,0
 .00003590,-0.00008222,-0.00331556,0.00071178,0.00053407,0.00800453,0.0
 0045736,-0.00047827,0.00638064,-0.02945975,0.00507948,0.03903827,-0.05
 944566,-0.09776623,-0.04863056,0.12609996,0.11849932,-0.00149786,-0.00
 066007,0.00060409,0.00036649,-0.00296880,-0.00312220,-0.00351486,-0.03
 084186,-0.01028913,0.00052873,0.00282670,0.00023595,-0.00327213,-0.001
 96670,0.00315762,0.00033832,0.00573910,0.00104357,-0.00535257,-0.00095
 495,0.00023146,-0.12524295,-0.02548491,-0.01091198,-0.00123161,-0.0006
 9358,-0.00133548,-0.00033483,0.00003938,-0.00004153,0.00105567,0.00167
 827,0.00074490,-0.00336402,-0.00121869,-0.00403979,0.00031051,0.000379
 48,0.00047591,0.00861977,-0.00084054,0.00139062,0.00093078,0.00017880,
 0.00029472,-0.00029786,0.00008033,0.00057343,-0.00010290,-0.00014205,0
 .00002685,0.00014502,0.00023477,-0.00033665,-0.01438601,0.00523344,0.0
 0241635,0.05464743,0.01690909,0.00729552,-0.02966669,-0.02903353,-0.01
 321102,-0.06974049,0.04776736,0.02164840,-0.30315140,-0.05077154,-0.02
 182353,0.73336785,0.00149416,0.00075815,-0.00109191,-0.00031126,0.0009
 3251,0.00274523,-0.01713463,0.00528415,-0.00269712,0.00085110,-0.00255
 914,-0.00099929,0.00146831,0.00213272,-0.00202576,0.00538082,-0.007861
 53,0.00020762,0.00189296,0.00190332,-0.00038050,-0.04273106,-0.1547689
 9,-0.03193669,-0.00129652,0.00149515,0.00177229,0.00089828,-0.00001160
 ,-0.00013361,-0.00003053,-0.00137972,-0.00051276,0.00361847,0.00262622
 ,0.00540327,0.00043155,-0.00052580,-0.00028413,-0.01836166,0.00244193,
 -0.00279691,-0.00107971,-0.00058295,-0.00084517,0.00012595,-0.00012397
 ,-0.00071535,-0.00001398,0.00006539,0.00007930,-0.00071734,-0.00032922
 ,0.00056789,0.02464857,-0.00911936,0.00019583,0.03963782,-0.03017425,-
 0.01603356,-0.03037463,-0.01410351,-0.00375782,0.02879396,0.01650195,0
 .01664906,-0.07344309,-0.11454671,-0.02358300,-0.12281909,0.60788028,0
 .00082156,0.00020794,-0.00045661,-0.00034387,0.00132364,0.00253875,-0.
 00879636,0.00358204,-0.00104745,0.00035596,-0.00092693,-0.00082405,0.0
 0161734,0.00091575,-0.00118762,0.00392809,-0.00473452,0.00034737,0.001
 43525,-0.00000575,0.00160592,-0.01766825,-0.03234133,-0.09861235,-0.00
 141325,0.00085946,0.00117617,0.00039132,0.00004180,-0.00010717,-0.0001
 0843,-0.00062889,-0.00047008,0.00205249,0.00119780,0.00324356,0.000412
 11,-0.00028345,-0.00015400,-0.01083904,0.00101319,-0.00056237,-0.00049
 029,-0.00027008,-0.00051962,0.00010792,0.00006523,-0.00046235,-0.00008
 443,-0.00001372,0.00007281,-0.00029296,-0.00021926,0.00022962,0.014333
 62,-0.00301301,-0.00263329,0.01694621,-0.01652473,-0.00279137,-0.01278
 059,-0.00311064,-0.00672241,0.01365939,0.01502463,-0.01303647,-0.03327
 214,-0.02372935,-0.07209355,-0.06037054,0.17946733,0.29778518,-0.00003
 311,0.00005357,0.00004171,-0.00029191,-0.00022859,-0.00007277,0.001067
 67,0.00312208,0.00089219,0.00006502,0.00002710,-0.00012890,0.00009437,
 0.00004533,-0.00014490,0.00024509,-0.00070673,0.00031114,-0.00024934,-
 0.00086112,-0.00032133,0.00962768,0.01613604,0.00741485,-0.00022404,0.
 00008112,0.00007626,0.00002102,0.00000033,-0.00002106,0.00007239,-0.00
 000209,-0.00003816,0.00003058,0.00004906,0.00004241,0.00004807,0.00000
 433,0.00001024,-0.00010883,-0.00003720,-0.00004098,0.00001319,-0.00001
 602,-0.00001333,-0.00000630,-0.00000209,0.00000344,-0.00001815,-0.0000
 1274,0.00000087,-0.00005437,-0.00002353,0.00006572,0.00017600,-0.00002
 639,0.00001678,-0.06974138,-0.04941214,-0.02290614,-0.00837801,-0.0354
 3338,-0.01586538,-0.00320051,0.00626663,0.00290997,0.00130075,-0.00069
 809,-0.00032493,-0.00413207,0.00117268,0.00062375,0.07507297,-0.000074
 35,-0.00002478,0.00009840,-0.00014822,0.00041509,-0.00026760,-0.002385
 33,-0.00096386,0.00239351,-0.00003846,0.00001114,0.00010339,-0.0001729
 4,-0.00004102,0.00016330,0.00038562,0.00006734,0.00008266,0.00110501,0
 .00094047,0.00023888,-0.00847720,-0.01318332,-0.00993046,0.00017056,-0
 .00000324,0.00011454,-0.00006297,0.00000091,-0.00000659,-0.00000556,0.
 00006632,0.00004677,-0.00012699,-0.00007346,-0.00018874,0.00006612,0.0
 0000450,-0.00000677,0.00044363,0.00001898,0.00012261,0.00002680,0.0000
 1638,0.00002545,-0.00000530,-0.00000218,0.00002778,0.00001146,-0.00001
 157,-0.00001001,0.00007207,0.00001286,-0.00003366,-0.00067427,0.000129
 35,-0.00004572,-0.05417060,-0.27332209,-0.10735357,-0.00070404,-0.0043
 4136,-0.00315279,-0.00016922,0.00457113,0.00028868,0.00008321,-0.00042
 246,0.00075880,0.00470970,0.00324210,-0.00311377,0.06109267,0.28618831
 ,0.00012763,-0.00008024,-0.00030632,0.00075075,-0.00058411,0.00072697,
 -0.00001293,0.00178376,-0.00481801,-0.00037014,0.00045286,-0.00003497,
 -0.00004535,0.00002638,0.00002137,-0.00112949,0.00059959,0.00018971,0.
 00059570,0.00015524,0.00009841,-0.00391988,-0.00983045,0.00450407,-0.0
 0002255,0.00011887,-0.00024698,0.00008539,-0.00000868,0.00004014,-0.00
 001954,0.00006571,0.00000572,-0.00010784,-0.00004114,-0.00004344,-0.00
 006205,0.00001665,0.00000876,0.00018596,0.00000283,0.00003386,0.000013
 01,0.00003018,0.00001830,-0.00000274,0.00001002,-0.00000355,-0.0000064
 5,0.00001611,-0.00000061,0.00016502,-0.00004770,-0.00002311,-0.0003109
 1,0.00006827,0.00001296,-0.02531433,-0.10698189,-0.08733569,-0.0001393
 5,-0.00340321,0.00155543,-0.00013224,0.00015997,0.00424563,0.00003618,
 0.00085092,-0.00178607,0.00232787,-0.00310305,0.00869342,0.02783866,0.
 11932651,0.07848994,-0.00005525,0.00003184,0.00001025,-0.00011926,-0.0
 0004602,-0.00015206,-0.00024233,0.00102892,0.00054513,0.00002933,-0.00
 005767,0.00004254,-0.00002092,-0.00002512,0.00001016,-0.00014587,-0.00
 001788,0.00004109,-0.00000175,-0.00001549,-0.00002424,-0.00251740,-0.0
 0527286,-0.00246088,-0.00005724,-0.00002439,-0.00003144,-0.00001406,-0
 .00000199,-0.00000577,0.00001543,-0.00000591,-0.00000429,-0.00003688,-
 0.00002170,-0.00004845,-0.00001485,0.00001394,0.00001021,0.00014428,-0
 .00001007,0.00002267,0.00001748,0.00000368,0.00000560,-0.00000394,0.00
 000140,0.00000705,-0.00000385,-0.00000223,0.00000632,-0.00002469,0.000
 01153,0.00000753,-0.00021444,0.00003730,-0.00000389,-0.01686082,0.0230
 5151,0.01042275,-0.26399217,0.17894915,0.08047812,0.01446215,-0.003602
 23,-0.00162385,0.00014315,-0.00373634,-0.00167340,0.00019871,0.0009049
 4,0.00035517,0.00058641,-0.00056449,-0.00024450,0.27120509,0.00002036,
 0.00004833,0.00008445,0.00005903,0.00016832,-0.00022049,0.00057294,0.0
 0093146,-0.00029514,-0.00000821,-0.00015991,0.00010713,-0.00000205,-0.
 00000916,0.00002031,-0.00096540,0.00023572,-0.00014709,-0.00001314,-0.
 00004458,-0.00002154,-0.00391045,0.00207548,-0.00085817,0.00016427,-0.
 00007087,-0.00020471,-0.00004421,-0.00000601,0.00000606,-0.00005840,-0
 .00007441,0.00000126,-0.00004529,-0.00003628,-0.00004566,-0.00011865,0
 .00000881,0.00000104,0.00007026,0.00003602,0.00004809,-0.00001456,0.00
 002329,0.00001531,0.00000837,-0.00000437,0.00000187,0.00001812,0.00002
 571,-0.00001016,-0.00000795,0.00004561,-0.00001855,-0.00005689,-0.0000
 1105,-0.00000870,-0.00825036,0.00898462,0.00796906,0.18094510,-0.22307
 744,-0.09801212,0.03092792,-0.01221039,-0.00485889,-0.00248110,-0.0055
 6352,-0.00413277,-0.00370802,-0.00202915,-0.00074757,-0.00004414,0.000
 31067,0.00104902,-0.19129146,0.22628054,-0.00006843,0.00001652,0.00022
 875,-0.00060265,-0.00014211,-0.00033251,-0.00050426,-0.00069281,0.0021
 4050,-0.00004152,0.00002483,0.00000535,0.00004921,-0.00000358,-0.00003
 632,0.00061622,0.00004068,-0.00000405,0.00004864,-0.00008895,0.0000342
 3,-0.00117096,-0.00091793,0.00384157,0.00005154,-0.00000391,0.00016077
 ,-0.00007995,0.00001587,-0.00003198,-0.00003594,-0.00001430,-0.0000675
 5,0.00002135,-0.00001680,0.00004872,0.00003452,-0.00000475,-0.00003102
 ,-0.00002545,0.00003323,-0.00004058,-0.00000593,-0.00000086,-0.0000032
 5,0.00000549,0.00001695,-0.00001583,-0.00001134,-0.00000098,0.00001439
 ,0.00003816,0.00000681,0.00000885,0.00002397,-0.00000967,-0.00001452,-
 0.00365925,0.00820230,-0.00509181,0.08102302,-0.09787047,-0.04923373,0
 .01390929,-0.00488510,-0.00358222,-0.00104352,-0.00411147,0.00170481,-
 0.00169113,-0.00090674,-0.00062454,-0.00009288,0.00099551,-0.00157875,
 -0.08598203,0.09660593,0.05488901,0.00040596,0.00029924,0.00073439,-0.
 00028448,0.00123035,-0.00142748,0.00394043,-0.00048094,0.00157842,-0.0
 0058741,-0.00107036,0.00081194,0.00040099,0.00017171,-0.00031739,-0.00
 322953,0.00105335,-0.00072295,-0.00025361,-0.00036285,-0.00009066,-0.0
 0283418,-0.00732269,-0.00310910,0.00176904,-0.00040677,-0.00050787,-0.
 00036482,0.00003828,0.00001242,-0.00089937,-0.00069016,-0.00016038,0.0
 0046817,0.00008890,0.00108770,-0.00061453,-0.00007826,-0.00022216,-0.0
 0313369,0.00082131,-0.00046918,-0.00044910,0.00006714,-0.00005435,0.00
 013229,0.00001407,-0.00022731,0.00017729,0.00018673,-0.00006406,0.0003
 1848,0.00020472,-0.00020423,0.00470941,-0.00145040,-0.00001266,-0.0037
 8529,-0.00489772,-0.00229679,-0.04849665,-0.04289943,-0.01915993,-0.57
 296199,-0.06326373,-0.02651905,-0.08877857,0.02375501,0.01105707,0.027
 37659,0.00653318,0.00275926,-0.00239827,-0.00084477,-0.00040896,-0.002
 84014,-0.00245725,-0.00105079,0.70590119,-0.00009073,-0.00002183,0.000
 38531,-0.00042490,0.00007985,-0.00074987,0.00179039,0.00068974,0.00160
 217,-0.00013728,0.00001121,0.00019377,-0.00007242,-0.00012975,0.000061
 10,-0.00152159,0.00088185,-0.00032805,0.00031033,0.00016042,0.00008356
 ,-0.00300499,0.00402587,0.00295143,0.00045916,-0.00023038,-0.00036052,
 -0.00018568,0.00000723,-0.00000259,-0.00010864,0.00003059,-0.00000623,
 -0.00026619,-0.00025246,-0.00033399,-0.00018542,0.00004567,0.00000233,
 0.00092113,0.00017510,0.00019620,0.00002672,0.00006774,0.00006711,0.00
 000511,0.00001874,0.00001474,0.00002219,0.00001502,-0.00002100,0.00011
 619,0.00004196,-0.00004008,-0.00127993,0.00007534,0.00003803,0.0126515
 2,-0.00438135,-0.00406904,-0.07176377,-0.01767507,-0.01744247,-0.06518
 335,-0.10049497,-0.00804011,0.04510344,0.01486091,-0.00134500,-0.00705
 955,-0.00413376,-0.00621273,-0.00219977,-0.00081157,-0.00034229,0.0011
 6208,0.00342332,0.00305894,0.08566019,0.10455900,-0.00003358,0.0000041
 7,0.00014145,-0.00015523,0.00006128,-0.00038553,0.00083706,0.00067580,
 -0.00000375,-0.00001718,-0.00006628,0.00017887,-0.00006505,-0.00005915
 ,0.00003734,-0.00077599,0.00035669,0.00000158,0.00016576,-0.00000014,0
 .00006323,-0.00135811,0.00280860,-0.00056641,0.00022405,-0.00007709,-0
 .00019114,-0.00007890,0.00000596,0.00000748,-0.00003209,-0.00000681,0.
 00004808,-0.00010975,-0.00009325,-0.00019781,-0.00008364,0.00001978,0.
 00000953,0.00033203,0.00003564,0.00023581,0.00001188,0.00002948,0.0000
 3458,0.00000334,-0.00001092,0.00003569,0.00002109,0.00001122,-0.000023
 35,0.00003771,0.00002686,-0.00003923,-0.00046351,0.00012105,-0.0002532
 0,0.00573750,-0.00394656,0.00255585,-0.03214886,-0.01753339,0.01352899
 ,-0.02749440,-0.00807146,-0.08544113,0.02079228,-0.00111379,0.01662071
 ,-0.00322928,-0.00663432,0.00743900,-0.00100281,-0.00036025,-0.0002277
 6,0.00051305,0.00306775,-0.00203452,0.03603110,0.03045864,0.04998632,0
 .00171619,0.00121426,-0.00084832,-0.00031208,0.00153741,0.00319066,-0.
 00834665,0.00564102,-0.00167999,0.00006399,-0.00329037,-0.00036247,0.0
 0008355,0.00006764,-0.00220357,0.00367111,-0.00734613,-0.00124712,0.00
 083729,-0.00017437,-0.00026291,0.01140749,0.01689359,0.00773591,-0.000
 41970,0.00148721,0.00157526,0.00068284,0.00008071,-0.00017819,-0.00082
 561,-0.00199174,-0.00052729,0.00389949,0.00376574,0.01056589,0.0000197
 7,-0.00077181,-0.00055904,-0.03977425,0.00784662,-0.00514638,-0.002167
 89,-0.00067502,-0.00196213,0.00016200,0.00005224,-0.00168030,0.0001679
 1,0.00025156,0.00002541,-0.00034841,-0.00024065,0.00030997,0.01052397,
 -0.00942897,-0.00342478,-0.00415451,-0.00341952,-0.00124248,0.00245771
 ,0.01209975,0.00552746,0.01498338,-0.02497853,-0.01089162,-0.09759284,
 0.05232913,0.02483770,-0.26259760,0.19046078,0.08666070,0.00041509,0.0
 0045785,0.00012306,0.00036379,0.00069118,0.00024463,-0.01368821,0.0052
 5576,0.00234152,0.37877218,-0.00046579,-0.00113939,0.00067587,-0.00083
 899,-0.00039702,0.00016618,0.00838549,-0.00085637,0.00421402,-0.001164
 83,0.00034652,0.00005520,-0.00109183,-0.00277705,0.00007062,-0.0047475
 2,0.00425410,-0.00147973,-0.00010577,0.00032366,0.00014018,0.03090499,
 -0.04823150,-0.03205062,0.00217012,-0.00140617,-0.00086829,-0.00073194
 ,-0.00014242,0.00016485,-0.00030051,0.00118194,-0.00009685,-0.00234886
 ,-0.00317609,-0.00676183,-0.00034808,0.00062802,0.00023968,0.02736479,
 0.00140325,0.00363777,0.00139936,0.00063748,0.00130013,-0.00032204,0.0
 0003203,0.00083800,-0.00011232,-0.00022341,-0.00001858,0.00051841,-0.0
 0020408,-0.00010890,-0.02802553,0.00082414,0.00026687,-0.01387297,-0.0
 0274033,-0.00251397,0.00680646,-0.00130901,-0.00034220,-0.01236671,0.0
 1003042,-0.00055855,0.03646814,0.01107408,-0.00085596,0.19338747,-0.30
 301422,-0.10782309,0.00165307,-0.00279464,-0.00031014,-0.00050042,0.00
 069924,0.00065286,0.00610113,-0.00103841,0.00029050,-0.24781533,0.3380
 1523,-0.00092531,0.00042479,0.00021248,0.00117968,-0.00104962,-0.00238
 443,0.00361393,0.00178473,-0.00087719,0.00003926,0.00112778,0.00086400
 ,-0.00125390,-0.00055044,0.00112384,-0.00407254,-0.00103056,-0.0011292
 5,-0.00014602,0.00009855,0.00011978,0.01398831,-0.03191758,0.00682201,
 0.00208900,-0.00015726,-0.00087204,-0.00026132,-0.00000864,0.00006164,
 0.00047728,0.00031863,0.00068347,0.00047635,-0.00113451,-0.00202606,-0
 .00036225,0.00016279,0.00014266,0.00618354,-0.00029623,0.00661747,0.00
 038632,0.00019773,0.00055542,0.00021800,-0.00017755,0.00064069,0.00013
 420,0.00010934,-0.00008373,0.00009608,0.00027543,-0.00018512,-0.010827
 99,0.00213743,-0.00872603,-0.00595001,-0.00239131,0.00172712,0.0027038
 2,-0.00056967,-0.00090945,-0.00605688,0.00038764,0.01087587,0.01780125
 ,-0.00063535,0.01154089,0.08793501,-0.10865012,-0.12082651,0.00072560,
 -0.00031686,-0.00223943,-0.00022284,0.00060426,-0.00035377,0.00295300,
 0.00018062,-0.00156070,-0.11092158,0.14107598,0.10018640\\0.00000988,0
 .00000554,0.00000464,-0.00000194,-0.00001029,0.00001079,-0.00001807,0.
 00002234,-0.00001888,-0.00000402,0.00000270,0.00001371,0.00000608,-0.0
 0000316,-0.00000275,0.00001525,-0.00001072,0.00000929,0.00000245,-0.00
 000433,0.00000392,0.00000915,0.00000624,0.00000911,-0.00001100,0.00001
 061,-0.00000383,-0.00000017,-0.00000304,-0.00000298,-0.00000934,-0.000
 00457,-0.00000829,0.00001254,-0.00001063,0.00000696,0.00000061,0.00000
 297,0.00000209,0.00001410,0.00000649,-0.00000859,0.,-0.00000258,0.0000
 0179,-0.00000250,0.00000463,0.00000029,0.00000008,0.00000149,0.0000034
 1,0.00000432,-0.00000145,-0.00000492,-0.00002621,-0.00000475,-0.000006
 92,0.00000001,-0.00000210,-0.00000058,-0.00000487,0.00001083,-0.000018
 22,0.00001042,-0.00001401,0.00000274,-0.00000029,0.00001015,0.00000386
 ,-0.00000290,-0.00001632,-0.00000630,-0.00000014,0.00000074,-0.0000002
 1,0.00000476,-0.00000396,0.00001238,-0.00000350,-0.00000198,-0.0000056
 0,-0.00000469,0.00000917,0.00000308\\\@
 The archive entry for this job was punched.


 FROM THE ASHES OF OUR DESPAIR GROW THE FLOWERS OF TOMORROW.
 Job cpu time:       0 days 10 hours  5 minutes 30.4 seconds.
 Elapsed time:       0 days  0 hours 15 minutes 15.7 seconds.
 File lengths (MBytes):  RWF=    600 Int=      0 D2E=      0 Chk=     20 Scr=      1
 Normal termination of Gaussian 16 at Sun Oct 27 01:58:15 2024.
