 Entering Gaussian System, Link 0=g16
 Input=PseudoUridineSarrgPBE0aVDZ.gjf
 Output=PseudoUridineSarrgPBE0aVDZ.log
 Initial command:
 /sw/contrib/chem-src/g16/c01/g16/l1.exe "/scr/Gau-24580.inp" -scrdir="/scr/"
 Entering Link 1 = /sw/contrib/chem-src/g16/c01/g16/l1.exe PID=     24581.
  
 Copyright (c) 1988-2019, Gaussian, Inc.  All Rights Reserved.
  
 This is part of the Gaussian(R) 16 program.  It is based on
 the Gaussian(R) 09 system (copyright 2009, Gaussian, Inc.),
 the Gaussian(R) 03 system (copyright 2003, Gaussian, Inc.),
 the Gaussian(R) 98 system (copyright 1998, Gaussian, Inc.),
 the Gaussian(R) 94 system (copyright 1995, Gaussian, Inc.),
 the Gaussian 92(TM) system (copyright 1992, Gaussian, Inc.),
 the Gaussian 90(TM) system (copyright 1990, Gaussian, Inc.),
 the Gaussian 88(TM) system (copyright 1988, Gaussian, Inc.),
 the Gaussian 86(TM) system (copyright 1986, Carnegie Mellon
 University), and the Gaussian 82(TM) system (copyright 1983,
 Carnegie Mellon University). Gaussian is a federally registered
 trademark of Gaussian, Inc.
  
 This software contains proprietary and confidential information,
 including trade secrets, belonging to Gaussian, Inc.
  
 This software is provided under written license and may be
 used, copied, transmitted, or stored only in accord with that
 written license.
  
 The following legend is applicable only to US Government
 contracts under FAR:
  
                    RESTRICTED RIGHTS LEGEND
  
 Use, reproduction and disclosure by the US Government is
 subject to restrictions as set forth in subparagraphs (a)
 and (c) of the Commercial Computer Software - Restricted
 Rights clause in FAR 52.227-19.
  
 Gaussian, Inc.
 340 Quinnipiac St., Bldg. 40, Wallingford CT 06492
  
  
 ---------------------------------------------------------------
 Warning -- This program may not be used in any manner that
 competes with the business of Gaussian, Inc. or will provide
 assistance to any competitor of Gaussian, Inc.  The licensee
 of this program is prohibited from giving any competitor of
 Gaussian, Inc. access to this program.  By using this program,
 the user acknowledges that Gaussian, Inc. is engaged in the
 business of creating and licensing software in the field of
 computational chemistry and represents and warrants to the
 licensee that it is not a competitor of Gaussian, Inc. and that
 it will not use this program in any manner prohibited above.
 ---------------------------------------------------------------
  

 Cite this work as:
 Gaussian 16, Revision C.01,
 M. J. Frisch, G. W. Trucks, H. B. Schlegel, G. E. Scuseria, 
 M. A. Robb, J. R. Cheeseman, G. Scalmani, V. Barone, 
 G. A. Petersson, H. Nakatsuji, X. Li, M. Caricato, A. V. Marenich, 
 J. Bloino, B. G. Janesko, R. Gomperts, B. Mennucci, H. P. Hratchian, 
 J. V. Ortiz, A. F. Izmaylov, J. L. Sonnenberg, D. Williams-Young, 
 F. Ding, F. Lipparini, F. Egidi, J. Goings, B. Peng, A. Petrone, 
 T. Henderson, D. Ranasinghe, V. G. Zakrzewski, J. Gao, N. Rega, 
 G. Zheng, W. Liang, M. Hada, M. Ehara, K. Toyota, R. Fukuda, 
 J. Hasegawa, M. Ishida, T. Nakajima, Y. Honda, O. Kitao, H. Nakai, 
 T. Vreven, K. Throssell, J. A. Montgomery, Jr., J. E. Peralta, 
 F. Ogliaro, M. J. Bearpark, J. J. Heyd, E. N. Brothers, K. N. Kudin, 
 V. N. Staroverov, T. A. Keith, R. Kobayashi, J. Normand, 
 K. Raghavachari, A. P. Rendell, J. C. Burant, S. S. Iyengar, 
 J. Tomasi, M. Cossi, J. M. Millam, M. Klene, C. Adamo, R. Cammi, 
 J. W. Ochterski, R. L. Martin, K. Morokuma, O. Farkas, 
 J. B. Foresman, and D. J. Fox, Gaussian, Inc., Wallingford CT, 2019.
 
 ******************************************
 Gaussian 16:  EM64L-G16RevC.01  3-Jul-2019
                24-Oct-2024 
 ******************************************
 %nprocshared=40
 Will use up to   40 processors via shared memory.
 %mem=50gb
 ------------------------------------------------------
 # PBE1PBE/aug-cc-pVDZ opt freq EmpiricalDispersion=GD3
 ------------------------------------------------------
 1/18=20,19=15,26=3,38=1/1,3;
 2/9=110,12=2,17=6,18=5,40=1/2;
 3/5=16,7=10,11=2,25=1,30=1,71=1,74=-13,124=31/1,2,3;
 4//1;
 5/5=2,38=5/2;
 6/7=2,8=2,9=2,10=2,28=1/1;
 7//1,2,3,16;
 1/18=20,19=15,26=3/3(2);
 2/9=110/2;
 99//99;
 2/9=110/2;
 3/5=16,7=10,11=2,25=1,30=1,71=1,74=-13,124=31/1,2,3;
 4/5=5,16=3,69=1/1;
 5/5=2,38=5/2;
 7//1,2,3,16;
 1/18=20,19=15,26=3/3(-5);
 2/9=110/2;
 6/7=2,8=2,9=2,10=2,19=2,28=1/1;
 99/9=1/99;
 ----
 blah
 ----
 Symbolic Z-matrix:
 Charge =  0 Multiplicity = 1
 C                    -2.70582  -0.51186   0.27689 
 C                    -1.30781  -0.75432   0.84942 
 C                    -0.46996  -0.72047  -0.43794 
 O                    -1.16526  -1.94672   1.56615 
 H                    -1.03087   0.07999   1.49966 
 O                    -1.06134   0.22925  -1.28077 
 H                    -0.50485  -1.72658  -0.88845 
 C                     0.94683  -0.42605  -0.2753 
 C                    -2.44187   0.41938  -0.91184 
 H                    -3.37779  -0.05739   1.0164 
 O                    -3.17605  -1.7936   -0.1349 
 C                    -2.68287   1.88805  -0.61115 
 H                    -3.06323   0.11255  -1.76854 
 O                    -2.11622   2.30041   0.60485 
 H                    -3.76785   2.05709  -0.53699 
 H                    -2.30981   2.47977  -1.46535 
 H                    -4.11985  -1.74851  -0.30577 
 H                    -1.78972  -2.57649   1.18053 
 H                    -1.15343   2.17008   0.55646 
 C                     1.87597  -1.33854  -0.7206 
 N                     3.20925  -1.16281  -0.62149 
 C                     3.7285    0.05256  -0.02662 
 N                     2.715     0.92993   0.3853 
 C                     1.35566   0.77134   0.29805 
 H                     1.44905  -2.23586  -1.16475 
 H                     3.9094   -1.9098   -0.98188 
 H                     3.0169    1.80135   0.80519 
 O                     4.89827   0.35029   0.12726 
 O                     0.58847   1.63119   0.70682 
 

 GradGradGradGradGradGradGradGradGradGradGradGradGradGradGradGradGradGrad
 Berny optimization.
 Initialization pass.
                           ----------------------------
                           !    Initial Parameters    !
                           ! (Angstroms and Degrees)  !
 --------------------------                            --------------------------
 ! Name  Definition              Value          Derivative Info.                !
 --------------------------------------------------------------------------------
 ! R1    R(1,2)                  1.53           estimate D2E/DX2                !
 ! R2    R(1,9)                  1.533          estimate D2E/DX2                !
 ! R3    R(1,10)                 1.0977         estimate D2E/DX2                !
 ! R4    R(1,11)                 1.426          estimate D2E/DX2                !
 ! R5    R(2,3)                  1.5364         estimate D2E/DX2                !
 ! R6    R(2,4)                  1.3985         estimate D2E/DX2                !
 ! R7    R(2,5)                  1.0934         estimate D2E/DX2                !
 ! R8    R(3,6)                  1.4007         estimate D2E/DX2                !
 ! R9    R(3,7)                  1.1029         estimate D2E/DX2                !
 ! R10   R(3,8)                  1.4562         estimate D2E/DX2                !
 ! R11   R(4,18)                 0.9671         estimate D2E/DX2                !
 ! R12   R(6,9)                  1.4416         estimate D2E/DX2                !
 ! R13   R(8,20)                 1.3763         estimate D2E/DX2                !
 ! R14   R(8,24)                 1.3891         estimate D2E/DX2                !
 ! R15   R(9,12)                 1.5184         estimate D2E/DX2                !
 ! R16   R(9,13)                 1.1019         estimate D2E/DX2                !
 ! R17   R(11,17)                0.9602         estimate D2E/DX2                !
 ! R18   R(12,14)                1.4035         estimate D2E/DX2                !
 ! R19   R(12,15)                1.1006         estimate D2E/DX2                !
 ! R20   R(12,16)                1.1041         estimate D2E/DX2                !
 ! R21   R(14,19)                0.9728         estimate D2E/DX2                !
 ! R22   R(20,21)                1.3485         estimate D2E/DX2                !
 ! R23   R(20,25)                1.0885         estimate D2E/DX2                !
 ! R24   R(21,22)                1.4493         estimate D2E/DX2                !
 ! R25   R(21,26)                1.0854         estimate D2E/DX2                !
 ! R26   R(22,23)                1.4024         estimate D2E/DX2                !
 ! R27   R(22,28)                1.2168         estimate D2E/DX2                !
 ! R28   R(23,24)                1.3713         estimate D2E/DX2                !
 ! R29   R(23,27)                1.0133         estimate D2E/DX2                !
 ! R30   R(24,29)                1.2227         estimate D2E/DX2                !
 ! A1    A(2,1,9)              103.2445         estimate D2E/DX2                !
 ! A2    A(2,1,10)             111.8919         estimate D2E/DX2                !
 ! A3    A(2,1,11)             105.481          estimate D2E/DX2                !
 ! A4    A(9,1,10)             112.1055         estimate D2E/DX2                !
 ! A5    A(9,1,11)             112.2632         estimate D2E/DX2                !
 ! A6    A(10,1,11)            111.3954         estimate D2E/DX2                !
 ! A7    A(1,2,3)              100.4425         estimate D2E/DX2                !
 ! A8    A(1,2,4)              114.8357         estimate D2E/DX2                !
 ! A9    A(1,2,5)              109.4529         estimate D2E/DX2                !
 ! A10   A(3,2,4)              113.1184         estimate D2E/DX2                !
 ! A11   A(3,2,5)              110.0821         estimate D2E/DX2                !
 ! A12   A(4,2,5)              108.6615         estimate D2E/DX2                !
 ! A13   A(2,3,6)              106.791          estimate D2E/DX2                !
 ! A14   A(2,3,7)              107.7534         estimate D2E/DX2                !
 ! A15   A(2,3,8)              116.1972         estimate D2E/DX2                !
 ! A16   A(6,3,7)              111.0616         estimate D2E/DX2                !
 ! A17   A(6,3,8)              109.9314         estimate D2E/DX2                !
 ! A18   A(7,3,8)              105.1194         estimate D2E/DX2                !
 ! A19   A(2,4,18)             106.5621         estimate D2E/DX2                !
 ! A20   A(3,6,9)              109.8615         estimate D2E/DX2                !
 ! A21   A(3,8,20)             119.1211         estimate D2E/DX2                !
 ! A22   A(3,8,24)             120.4465         estimate D2E/DX2                !
 ! A23   A(20,8,24)            120.4207         estimate D2E/DX2                !
 ! A24   A(1,9,6)              106.4531         estimate D2E/DX2                !
 ! A25   A(1,9,12)             113.9974         estimate D2E/DX2                !
 ! A26   A(1,9,13)             109.6728         estimate D2E/DX2                !
 ! A27   A(6,9,12)             109.2841         estimate D2E/DX2                !
 ! A28   A(6,9,13)             107.7176         estimate D2E/DX2                !
 ! A29   A(12,9,13)            109.4997         estimate D2E/DX2                !
 ! A30   A(1,11,17)            109.469          estimate D2E/DX2                !
 ! A31   A(9,12,14)            113.0592         estimate D2E/DX2                !
 ! A32   A(9,12,15)            108.5652         estimate D2E/DX2                !
 ! A33   A(9,12,16)            108.1529         estimate D2E/DX2                !
 ! A34   A(14,12,15)           107.1281         estimate D2E/DX2                !
 ! A35   A(14,12,16)           112.1133         estimate D2E/DX2                !
 ! A36   A(15,12,16)           107.6336         estimate D2E/DX2                !
 ! A37   A(12,14,19)           108.4896         estimate D2E/DX2                !
 ! A38   A(8,20,21)            123.8705         estimate D2E/DX2                !
 ! A39   A(8,20,25)            114.4447         estimate D2E/DX2                !
 ! A40   A(21,20,25)           121.6842         estimate D2E/DX2                !
 ! A41   A(20,21,22)           119.5825         estimate D2E/DX2                !
 ! A42   A(20,21,26)           121.5813         estimate D2E/DX2                !
 ! A43   A(22,21,26)           118.8355         estimate D2E/DX2                !
 ! A44   A(21,22,23)           112.723          estimate D2E/DX2                !
 ! A45   A(21,22,28)           126.9765         estimate D2E/DX2                !
 ! A46   A(23,22,28)           120.3            estimate D2E/DX2                !
 ! A47   A(22,23,24)           128.707          estimate D2E/DX2                !
 ! A48   A(22,23,27)           116.3862         estimate D2E/DX2                !
 ! A49   A(24,23,27)           114.9068         estimate D2E/DX2                !
 ! A50   A(8,24,23)            114.6886         estimate D2E/DX2                !
 ! A51   A(8,24,29)            124.0209         estimate D2E/DX2                !
 ! A52   A(23,24,29)           121.2897         estimate D2E/DX2                !
 ! D1    D(9,1,2,3)            -33.4657         estimate D2E/DX2                !
 ! D2    D(9,1,2,4)           -155.1494         estimate D2E/DX2                !
 ! D3    D(9,1,2,5)             82.3439         estimate D2E/DX2                !
 ! D4    D(10,1,2,3)          -154.2107         estimate D2E/DX2                !
 ! D5    D(10,1,2,4)            84.1055         estimate D2E/DX2                !
 ! D6    D(10,1,2,5)           -38.4011         estimate D2E/DX2                !
 ! D7    D(11,1,2,3)            84.5074         estimate D2E/DX2                !
 ! D8    D(11,1,2,4)           -37.1763         estimate D2E/DX2                !
 ! D9    D(11,1,2,5)          -159.683          estimate D2E/DX2                !
 ! D10   D(2,1,9,6)             22.0845         estimate D2E/DX2                !
 ! D11   D(2,1,9,12)           -98.473          estimate D2E/DX2                !
 ! D12   D(2,1,9,13)           138.3525         estimate D2E/DX2                !
 ! D13   D(10,1,9,6)           142.684          estimate D2E/DX2                !
 ! D14   D(10,1,9,12)           22.1265         estimate D2E/DX2                !
 ! D15   D(10,1,9,13)         -101.0479         estimate D2E/DX2                !
 ! D16   D(11,1,9,6)           -91.0354         estimate D2E/DX2                !
 ! D17   D(11,1,9,12)          148.4071         estimate D2E/DX2                !
 ! D18   D(11,1,9,13)           25.2326         estimate D2E/DX2                !
 ! D19   D(2,1,11,17)          166.4083         estimate D2E/DX2                !
 ! D20   D(9,1,11,17)          -81.8596         estimate D2E/DX2                !
 ! D21   D(10,1,11,17)          44.8042         estimate D2E/DX2                !
 ! D22   D(1,2,3,6)             35.0553         estimate D2E/DX2                !
 ! D23   D(1,2,3,7)            -84.335          estimate D2E/DX2                !
 ! D24   D(1,2,3,8)            158.1003         estimate D2E/DX2                !
 ! D25   D(4,2,3,6)            157.9479         estimate D2E/DX2                !
 ! D26   D(4,2,3,7)             38.5576         estimate D2E/DX2                !
 ! D27   D(4,2,3,8)            -79.0071         estimate D2E/DX2                !
 ! D28   D(5,2,3,6)            -80.2818         estimate D2E/DX2                !
 ! D29   D(5,2,3,7)            160.3279         estimate D2E/DX2                !
 ! D30   D(5,2,3,8)             42.7633         estimate D2E/DX2                !
 ! D31   D(1,2,4,18)            29.6813         estimate D2E/DX2                !
 ! D32   D(3,2,4,18)           -84.822          estimate D2E/DX2                !
 ! D33   D(5,2,4,18)           152.6134         estimate D2E/DX2                !
 ! D34   D(2,3,6,9)            -22.4903         estimate D2E/DX2                !
 ! D35   D(7,3,6,9)             94.7357         estimate D2E/DX2                !
 ! D36   D(8,3,6,9)           -149.3545         estimate D2E/DX2                !
 ! D37   D(2,3,8,20)           121.5219         estimate D2E/DX2                !
 ! D38   D(2,3,8,24)           -59.7184         estimate D2E/DX2                !
 ! D39   D(6,3,8,20)          -117.0874         estimate D2E/DX2                !
 ! D40   D(6,3,8,24)            61.6723         estimate D2E/DX2                !
 ! D41   D(7,3,8,20)             2.5131         estimate D2E/DX2                !
 ! D42   D(7,3,8,24)          -178.7272         estimate D2E/DX2                !
 ! D43   D(3,6,9,1)              0.0703         estimate D2E/DX2                !
 ! D44   D(3,6,9,12)           123.6155         estimate D2E/DX2                !
 ! D45   D(3,6,9,13)          -117.5008         estimate D2E/DX2                !
 ! D46   D(3,8,20,21)          179.8465         estimate D2E/DX2                !
 ! D47   D(3,8,20,25)           -0.4433         estimate D2E/DX2                !
 ! D48   D(24,8,20,21)           1.0865         estimate D2E/DX2                !
 ! D49   D(24,8,20,25)        -179.2034         estimate D2E/DX2                !
 ! D50   D(3,8,24,23)         -179.5771         estimate D2E/DX2                !
 ! D51   D(3,8,24,29)            0.7412         estimate D2E/DX2                !
 ! D52   D(20,8,24,23)          -0.8336         estimate D2E/DX2                !
 ! D53   D(20,8,24,29)         179.4846         estimate D2E/DX2                !
 ! D54   D(1,9,12,14)           46.0715         estimate D2E/DX2                !
 ! D55   D(1,9,12,15)          -72.6551         estimate D2E/DX2                !
 ! D56   D(1,9,12,16)          170.831          estimate D2E/DX2                !
 ! D57   D(6,9,12,14)          -72.8896         estimate D2E/DX2                !
 ! D58   D(6,9,12,15)          168.3839         estimate D2E/DX2                !
 ! D59   D(6,9,12,16)           51.8699         estimate D2E/DX2                !
 ! D60   D(13,9,12,14)         169.3399         estimate D2E/DX2                !
 ! D61   D(13,9,12,15)          50.6134         estimate D2E/DX2                !
 ! D62   D(13,9,12,16)         -65.9006         estimate D2E/DX2                !
 ! D63   D(9,12,14,19)          61.172          estimate D2E/DX2                !
 ! D64   D(15,12,14,19)       -179.2716         estimate D2E/DX2                !
 ! D65   D(16,12,14,19)        -61.4074         estimate D2E/DX2                !
 ! D66   D(8,20,21,22)          -0.56           estimate D2E/DX2                !
 ! D67   D(8,20,21,26)         179.7401         estimate D2E/DX2                !
 ! D68   D(25,20,21,22)        179.7501         estimate D2E/DX2                !
 ! D69   D(25,20,21,26)          0.0502         estimate D2E/DX2                !
 ! D70   D(20,21,22,23)         -0.122          estimate D2E/DX2                !
 ! D71   D(20,21,22,28)       -179.857          estimate D2E/DX2                !
 ! D72   D(26,21,22,23)        179.5862         estimate D2E/DX2                !
 ! D73   D(26,21,22,28)         -0.1488         estimate D2E/DX2                !
 ! D74   D(21,22,23,24)          0.3216         estimate D2E/DX2                !
 ! D75   D(21,22,23,27)       -179.6737         estimate D2E/DX2                !
 ! D76   D(28,22,23,24)       -179.9236         estimate D2E/DX2                !
 ! D77   D(28,22,23,27)          0.0811         estimate D2E/DX2                !
 ! D78   D(22,23,24,8)           0.1502         estimate D2E/DX2                !
 ! D79   D(22,23,24,29)        179.8416         estimate D2E/DX2                !
 ! D80   D(27,23,24,8)        -179.8543         estimate D2E/DX2                !
 ! D81   D(27,23,24,29)         -0.163          estimate D2E/DX2                !
 --------------------------------------------------------------------------------
 Trust Radius=3.00D-01 FncErr=1.00D-07 GrdErr=1.00D-06 EigMax=2.50D+02 EigMin=1.00D-04
 Number of steps in this run=    173 maximum allowed number of steps=    174.
 GradGradGradGradGradGradGradGradGradGradGradGradGradGradGradGradGradGrad

                          Input orientation:                          
 ---------------------------------------------------------------------
 Center     Atomic      Atomic             Coordinates (Angstroms)
 Number     Number       Type             X           Y           Z
 ---------------------------------------------------------------------
      1          6           0       -2.705818   -0.511856    0.276891
      2          6           0       -1.307810   -0.754317    0.849418
      3          6           0       -0.469963   -0.720468   -0.437941
      4          8           0       -1.165261   -1.946719    1.566154
      5          1           0       -1.030871    0.079994    1.499663
      6          8           0       -1.061340    0.229254   -1.280768
      7          1           0       -0.504847   -1.726583   -0.888453
      8          6           0        0.946832   -0.426054   -0.275301
      9          6           0       -2.441868    0.419378   -0.911840
     10          1           0       -3.377790   -0.057393    1.016400
     11          8           0       -3.176053   -1.793600   -0.134904
     12          6           0       -2.682871    1.888053   -0.611152
     13          1           0       -3.063228    0.112547   -1.768543
     14          8           0       -2.116223    2.300411    0.604847
     15          1           0       -3.767852    2.057093   -0.536986
     16          1           0       -2.309812    2.479773   -1.465350
     17          1           0       -4.119854   -1.748509   -0.305773
     18          1           0       -1.789723   -2.576492    1.180530
     19          1           0       -1.153433    2.170077    0.556456
     20          6           0        1.875969   -1.338535   -0.720601
     21          7           0        3.209254   -1.162806   -0.621490
     22          6           0        3.728499    0.052559   -0.026623
     23          7           0        2.715002    0.929931    0.385295
     24          6           0        1.355664    0.771335    0.298048
     25          1           0        1.449052   -2.235865   -1.164747
     26          1           0        3.909402   -1.909802   -0.981881
     27          1           0        3.016904    1.801353    0.805186
     28          8           0        4.898272    0.350291    0.127262
     29          8           0        0.588465    1.631190    0.706819
 ---------------------------------------------------------------------
                    Distance matrix (angstroms):
                    1          2          3          4          5
     1  C    0.000000
     2  C    1.530033   0.000000
     3  C    2.356597   1.536368   0.000000
     4  O    2.468673   1.398518   2.450210   0.000000
     5  H    2.156596   1.093430   2.170177   2.032252   0.000000
     6  O    2.383244   2.359206   1.400734   3.584777   2.784601
     7  H    2.770895   2.147148   1.102926   2.551412   3.040316
     8  C    3.695150   2.540897   1.456173   3.188152   2.705160
     9  C    1.532954   2.401182   2.326422   3.656309   2.814505
    10  H    1.097705   2.190526   3.318167   2.960923   2.400093
    11  O    1.426031   2.353578   2.926836   2.638243   3.283895
    12  C    2.559045   3.317556   3.425105   4.663612   3.233222
    13  H    2.168276   3.269047   3.031409   4.354659   3.848728
    14  O    2.892062   3.169339   3.594898   4.457191   2.628486
    15  H    2.896517   3.984714   4.312856   5.217968   3.943086
    16  H    3.484547   4.101402   3.831730   5.485786   4.023174
    17  H    1.966801   3.198511   3.794212   3.503287   4.018064
    18  H    2.432800   1.913687   2.793929   0.967095   2.781118
    19  H    3.111402   2.943083   3.132285   4.238825   2.296325
    20  C    4.761424   3.597599   2.442396   3.853338   3.923202
    21  N    6.018214   4.768050   3.710255   4.953452   4.901276
    22  C    6.466152   5.175220   4.288804   5.521136   4.998190
    23  N    5.610329   4.385786   3.680426   4.972523   3.999472
    24  C    4.259420   3.118608   2.469832   3.918032   2.759960
    25  H    4.723714   3.721845   2.550940   3.791577   4.314198
    26  H    6.877492   5.648726   4.570473   5.678561   5.875683
    27  H    6.195125   5.023600   4.479195   5.667241   4.453073
    28  O    7.654271   6.344850   5.503083   6.641769   6.091903
    29  O    3.953452   3.050711   2.821532   4.076205   2.378457
                    6          7          8          9         10
     6  O    0.000000
     7  H    2.070964   0.000000
     8  C    2.339476   2.043209   0.000000
     9  C    1.441566   2.890977   3.550102   0.000000
    10  H    3.274918   3.829943   4.528439   2.195762   0.000000
    11  O    3.142762   2.776269   4.346041   2.457627   2.092992
    12  C    2.414407   4.229217   4.317711   1.518388   2.629943
    13  H    2.063759   3.271433   4.312823   1.101895   2.807799
    14  O    2.992994   4.587282   4.194112   2.438169   2.705581
    15  H    3.349539   5.008686   5.335049   2.140294   2.652585
    16  H    2.580230   4.613474   4.523912   2.137531   3.706329
    17  H    3.770500   3.661731   5.236518   2.807613   2.271271
    18  H    3.802728   2.579524   3.772607   3.711946   2.982408
    19  H    2.674073   4.206232   3.441341   2.623148   3.181342
    20  C    3.376320   2.418065   1.376303   4.665892   5.679831
    21  N    4.539874   3.766120   2.404413   5.875610   6.877047
    22  C    4.954458   4.672185   2.833475   6.244325   7.183267
    23  N    4.186583   4.364279   2.324114   5.341960   6.204451
    24  C    2.937417   3.332999   1.389105   4.001119   4.858848
    25  H    3.520276   2.037996   2.078161   4.717365   5.727263
    26  H    5.419702   4.419037   3.387858   6.765251   7.779956
    27  H    4.843013   5.264739   3.227072   5.886954   6.662707
    28  O    6.124882   5.876970   4.047054   7.413647   8.333665
    29  O    2.939011   3.874902   2.307648   3.643002   4.321844
                   11         12         13         14         15
    11  O    0.000000
    12  C    3.744945   0.000000
    13  H    2.512947   2.153287   0.000000
    14  O    4.293180   1.403489   3.364008   0.000000
    15  H    3.916597   1.100572   2.407174   2.022589   0.000000
    16  H    4.558747   1.104065   2.502663   2.086951   1.779438
    17  H    0.960203   3.922086   2.592235   4.608418   3.828834
    18  H    2.065235   4.892852   4.189245   4.921605   5.322872
    19  H    4.503299   1.944743   3.645047   0.972776   2.836118
    20  C    5.106178   5.586222   5.253522   5.562044   6.589136
    21  N    6.434813   6.635133   6.502791   6.469813   7.684719
    22  C    7.147927   6.694504   7.011807   6.293836   7.776497
    23  N    6.510972   5.572068   6.220537   5.026644   6.644433
    24  C    5.225208   4.287595   4.922541   3.806074   5.347978
    25  H    4.758967   5.863954   5.122527   6.034936   6.785253
    26  H    7.136844   7.617034   7.302486   7.520090   8.653000
    27  H    7.222200   5.873752   6.814995   5.161220   6.920964
    28  O    8.358213   7.770695   8.187556   7.296177   8.857545
    29  O    5.158418   3.536194   4.665678   2.788116   4.550378
                   16         17         18         19         20
    16  H    0.000000
    17  H    4.743336   0.000000
    18  H    5.730357   2.885163   0.000000
    19  H    2.349643   4.989831   4.829519   0.000000
    20  C    5.714446   6.024123   4.310932   4.808171   0.000000
    21  N    6.666376   7.359249   5.498687   5.615043   1.348463
    22  C    6.665021   8.057197   6.230562   5.353235   2.418391
    23  N    5.574554   7.373389   5.763675   4.065962   2.659496
    24  C    4.411808   6.057682   4.677625   2.884237   2.399982
    25  H    6.037935   5.655799   4.013230   5.398870   1.088451
    26  H    7.627630   8.059286   6.131927   6.681631   2.128254
    27  H    5.830051   8.047923   6.512302   4.193988   3.672690
    28  O    7.682941   9.269254   7.375955   6.333953   3.564452
    29  O    3.720003   5.883534   4.856415   1.829540   3.537578
                   21         22         23         24         25
    21  N    0.000000
    22  C    1.449343   0.000000
    23  N    2.374331   1.402367   0.000000
    24  C    2.832357   2.500479   1.371337   0.000000
    25  H    2.131876   3.424630   3.745334   3.345406   0.000000
    26  H    1.085399   2.190001   3.370437   3.917690   2.488590
    27  H    3.295245   2.063142   1.013326   2.019367   4.757933
    28  O    2.388069   1.216838   2.273594   3.571627   4.500512
    29  O    4.054547   3.590240   2.262145   1.222718   4.381493
                   26         27         28         29
    26  H    0.000000
    27  H    4.214598   0.000000
    28  O    2.704826   2.470771   0.000000
    29  O    5.139937   2.436380   4.533324   0.000000
 Stoichiometry    C9H12N2O6
 Framework group  C1[X(C9H12N2O6)]
 Deg. of freedom    81
 Full point group                 C1      NOp   1
 Largest Abelian subgroup         C1      NOp   1
 Largest concise Abelian subgroup C1      NOp   1
                         Standard orientation:                         
 ---------------------------------------------------------------------
 Center     Atomic      Atomic             Coordinates (Angstroms)
 Number     Number       Type             X           Y           Z
 ---------------------------------------------------------------------
      1          6           0       -2.721202   -0.520623    0.275200
      2          6           0       -1.323197   -0.752724    0.852012
      3          6           0       -0.482485   -0.719258   -0.433488
      4          8           0       -1.175517   -1.941380    1.573912
      5          1           0       -1.052608    0.085787    1.499522
      6          8           0       -1.077290    0.223633   -1.281555
      7          1           0       -0.510514   -1.727369   -0.879998
      8          6           0        0.932204   -0.416045   -0.268691
      9          6           0       -2.459764    0.407303   -0.916669
     10          1           0       -3.397538   -0.067048    1.011268
     11          8           0       -3.183084   -1.806704   -0.132507
     12          6           0       -2.709915    1.875770   -0.622509
     13          1           0       -3.077303    0.093444   -1.773589
     14          8           0       -2.148551    2.296291    0.593145
     15          1           0       -3.796023    2.038865   -0.551597
     16          1           0       -2.338220    2.466170   -1.478214
     17          1           0       -4.126718   -1.767733   -0.305790
     18          1           0       -1.795429   -2.576287    1.189367
     19          1           0       -1.184916    2.171302    0.547562
     20          6           0        1.867626   -1.324958   -0.708088
     21          7           0        3.199640   -1.141164   -0.606535
     22          6           0        3.710474    0.079561   -0.015374
     23          7           0        2.690975    0.952746    0.390584
     24          6           0        1.332782    0.785983    0.300765
     25          1           0        1.446932   -2.226516   -1.149601
     26          1           0        3.904925   -1.885571   -0.962237
     27          1           0        2.986863    1.827580    0.807652
     28          8           0        4.878147    0.384636    0.140070
     29          8           0        0.559684    1.643055    0.704230
 ---------------------------------------------------------------------
 Rotational constants (GHZ):           0.9334015           0.3070680           0.2639775
 Standard basis: Aug-CC-pVDZ (5D, 7F)
 There are   533 symmetry adapted cartesian basis functions of A   symmetry.
 There are   499 symmetry adapted basis functions of A   symmetry.
   499 basis functions,   863 primitive gaussians,   533 cartesian basis functions
    64 alpha electrons       64 beta electrons
       nuclear repulsion energy      1332.5935253929 Hartrees.
 NAtoms=   29 NActive=   29 NUniq=   29 SFac= 1.00D+00 NAtFMM=   60 NAOKFM=F Big=F
 Integral buffers will be    131072 words long.
 Raffenetti 2 integral format.
 Two-electron integral symmetry is turned on.
 Nuclear repulsion after empirical dispersion term =     1332.5729709826 Hartrees.
 One-electron integrals computed using PRISM.
 NBasis=   499 RedAO= T EigKep=  2.14D-06  NBF=   499
 NBsUse=   499 1.00D-06 EigRej= -1.00D+00 NBFU=   499
 ExpMin= 2.97D-02 ExpMax= 1.17D+04 ExpMxC= 4.01D+02 IAcc=3 IRadAn=         5 AccDes= 0.00D+00
 Harris functional with IExCor= 1009 and IRadAn=       5 diagonalized for initial guess.
 HarFok:  IExCor= 1009 AccDes= 0.00D+00 IRadAn=         5 IDoV= 1 UseB2=F ITyADJ=14
 ICtDFT=  3500011 ScaDFX=  1.000000  1.000000  1.000000  1.000000
 FoFCou: FMM=F IPFlag=           0 FMFlag=      100000 FMFlg1=           0
         NFxFlg=           0 DoJE=T BraDBF=F KetDBF=T FulRan=T
         wScrn=  0.000000 ICntrl=       500 IOpCl=  0 I1Cent=   200000004 NGrid=           0
         NMat0=    1 NMatS0=      1 NMatT0=    0 NMatD0=    1 NMtDS0=    0 NMtDT0=    0
 Petite list used in FoFCou.
 Requested convergence on RMS density matrix=1.00D-08 within 128 cycles.
 Requested convergence on MAX density matrix=1.00D-06.
 Requested convergence on             energy=1.00D-06.
 No special actions if energy rises.
 SCF Done:  E(RPBE1PBE) =  -910.212007518     A.U. after   14 cycles
            NFock= 14  Conv=0.10D-07     -V/T= 2.0053

 **********************************************************************

            Population analysis using the SCF Density.

 **********************************************************************

 Orbital symmetries:
       Occupied  (A) (A) (A) (A) (A) (A) (A) (A) (A) (A) (A) (A)
                 (A) (A) (A) (A) (A) (A) (A) (A) (A) (A) (A) (A)
                 (A) (A) (A) (A) (A) (A) (A) (A) (A) (A) (A) (A)
                 (A) (A) (A) (A) (A) (A) (A) (A) (A) (A) (A) (A)
                 (A) (A) (A) (A) (A) (A) (A) (A) (A) (A) (A) (A)
                 (A) (A) (A) (A)
       Virtual   (A) (A) (A) (A) (A) (A) (A) (A) (A) (A) (A) (A)
                 (A) (A) (A) (A) (A) (A) (A) (A) (A) (A) (A) (A)
                 (A) (A) (A) (A) (A) (A) (A) (A) (A) (A) (A) (A)
                 (A) (A) (A) (A) (A) (A) (A) (A) (A) (A) (A) (A)
                 (A) (A) (A) (A) (A) (A) (A) (A) (A) (A) (A) (A)
                 (A) (A) (A) (A) (A) (A) (A) (A) (A) (A) (A) (A)
                 (A) (A) (A) (A) (A) (A) (A) (A) (A) (A) (A) (A)
                 (A) (A) (A) (A) (A) (A) (A) (A) (A) (A) (A) (A)
                 (A) (A) (A) (A) (A) (A) (A) (A) (A) (A) (A) (A)
                 (A) (A) (A) (A) (A) (A) (A) (A) (A) (A) (A) (A)
                 (A) (A) (A) (A) (A) (A) (A) (A) (A) (A) (A) (A)
                 (A) (A) (A) (A) (A) (A) (A) (A) (A) (A) (A) (A)
                 (A) (A) (A) (A) (A) (A) (A) (A) (A) (A) (A) (A)
                 (A) (A) (A) (A) (A) (A) (A) (A) (A) (A) (A) (A)
                 (A) (A) (A) (A) (A) (A) (A) (A) (A) (A) (A) (A)
                 (A) (A) (A) (A) (A) (A) (A) (A) (A) (A) (A) (A)
                 (A) (A) (A) (A) (A) (A) (A) (A) (A) (A) (A) (A)
                 (A) (A) (A) (A) (A) (A) (A) (A) (A) (A) (A) (A)
                 (A) (A) (A) (A) (A) (A) (A) (A) (A) (A) (A) (A)
                 (A) (A) (A) (A) (A) (A) (A) (A) (A) (A) (A) (A)
                 (A) (A) (A) (A) (A) (A) (A) (A) (A) (A) (A) (A)
                 (A) (A) (A) (A) (A) (A) (A) (A) (A) (A) (A) (A)
                 (A) (A) (A) (A) (A) (A) (A) (A) (A) (A) (A) (A)
                 (A) (A) (A) (A) (A) (A) (A) (A) (A) (A) (A) (A)
                 (A) (A) (A) (A) (A) (A) (A) (A) (A) (A) (A) (A)
                 (A) (A) (A) (A) (A) (A) (A) (A) (A) (A) (A) (A)
                 (A) (A) (A) (A) (A) (A) (A) (A) (A) (A) (A) (A)
                 (A) (A) (A) (A) (A) (A) (A) (A) (A) (A) (A) (A)
                 (A) (A) (A) (A) (A) (A) (A) (A) (A) (A) (A) (A)
                 (A) (A) (A) (A) (A) (A) (A) (A) (A) (A) (A) (A)
                 (A) (A) (A) (A) (A) (A) (A) (A) (A) (A) (A) (A)
                 (A) (A) (A) (A) (A) (A) (A) (A) (A) (A) (A) (A)
                 (A) (A) (A) (A) (A) (A) (A) (A) (A) (A) (A) (A)
                 (A) (A) (A) (A) (A) (A) (A) (A) (A) (A) (A) (A)
                 (A) (A) (A) (A) (A) (A) (A) (A) (A) (A) (A) (A)
                 (A) (A) (A) (A) (A) (A) (A) (A) (A) (A) (A) (A)
                 (A) (A) (A)
 The electronic state is 1-A.
 Alpha  occ. eigenvalues --  -19.25134 -19.23536 -19.23239 -19.22751 -19.21473
 Alpha  occ. eigenvalues --  -19.20345 -14.50035 -14.47003 -10.41423 -10.35741
 Alpha  occ. eigenvalues --  -10.32854 -10.29438 -10.28970 -10.28498 -10.28312
 Alpha  occ. eigenvalues --  -10.27161 -10.25550  -1.12874  -1.10487  -1.09594
 Alpha  occ. eigenvalues --   -1.07545  -1.05619  -1.03847  -1.02853  -0.97522
 Alpha  occ. eigenvalues --   -0.86223  -0.80391  -0.77881  -0.72951  -0.70879
 Alpha  occ. eigenvalues --   -0.69347  -0.64417  -0.62301  -0.61121  -0.59000
 Alpha  occ. eigenvalues --   -0.57225  -0.55420  -0.54245  -0.52990  -0.51495
 Alpha  occ. eigenvalues --   -0.50469  -0.49371  -0.48378  -0.47479  -0.46511
 Alpha  occ. eigenvalues --   -0.46157  -0.44683  -0.44035  -0.43024  -0.41727
 Alpha  occ. eigenvalues --   -0.40283  -0.40167  -0.38822  -0.37966  -0.34960
 Alpha  occ. eigenvalues --   -0.33884  -0.33346  -0.32018  -0.31311  -0.30716
 Alpha  occ. eigenvalues --   -0.29946  -0.28442  -0.26650  -0.25830
 Alpha virt. eigenvalues --   -0.05935  -0.02478  -0.01505  -0.01254   0.00572
 Alpha virt. eigenvalues --    0.01025   0.01490   0.02573   0.03248   0.03533
 Alpha virt. eigenvalues --    0.04026   0.04563   0.04956   0.05245   0.05907
 Alpha virt. eigenvalues --    0.06199   0.06788   0.06939   0.07723   0.08365
 Alpha virt. eigenvalues --    0.08443   0.08646   0.09138   0.09645   0.09907
 Alpha virt. eigenvalues --    0.10165   0.10410   0.11080   0.11137   0.11514
 Alpha virt. eigenvalues --    0.11714   0.11952   0.12362   0.12792   0.12961
 Alpha virt. eigenvalues --    0.13330   0.13663   0.14020   0.14180   0.14803
 Alpha virt. eigenvalues --    0.15390   0.15450   0.15807   0.16192   0.16456
 Alpha virt. eigenvalues --    0.17043   0.17285   0.18132   0.18247   0.18853
 Alpha virt. eigenvalues --    0.19023   0.19494   0.19626   0.20132   0.20556
 Alpha virt. eigenvalues --    0.20810   0.21049   0.21880   0.22327   0.22610
 Alpha virt. eigenvalues --    0.23171   0.23662   0.23990   0.24234   0.24567
 Alpha virt. eigenvalues --    0.24904   0.25147   0.25422   0.25620   0.25970
 Alpha virt. eigenvalues --    0.26446   0.26711   0.26987   0.27270   0.27615
 Alpha virt. eigenvalues --    0.27700   0.28067   0.28743   0.29067   0.29325
 Alpha virt. eigenvalues --    0.29734   0.30006   0.30087   0.30274   0.30769
 Alpha virt. eigenvalues --    0.31228   0.31790   0.32302   0.32589   0.33009
 Alpha virt. eigenvalues --    0.33577   0.34047   0.34463   0.34754   0.35162
 Alpha virt. eigenvalues --    0.35383   0.35561   0.35929   0.36162   0.37280
 Alpha virt. eigenvalues --    0.37761   0.38322   0.38459   0.38965   0.39599
 Alpha virt. eigenvalues --    0.39932   0.40324   0.40942   0.41229   0.41970
 Alpha virt. eigenvalues --    0.42378   0.43343   0.43660   0.43817   0.44175
 Alpha virt. eigenvalues --    0.44652   0.45082   0.45328   0.46378   0.46501
 Alpha virt. eigenvalues --    0.46911   0.47517   0.47862   0.48675   0.49395
 Alpha virt. eigenvalues --    0.49735   0.50745   0.51169   0.51639   0.52464
 Alpha virt. eigenvalues --    0.53032   0.53418   0.53651   0.54228   0.54755
 Alpha virt. eigenvalues --    0.55498   0.55792   0.56372   0.56675   0.57515
 Alpha virt. eigenvalues --    0.58110   0.58173   0.58821   0.59220   0.59845
 Alpha virt. eigenvalues --    0.60075   0.61269   0.62252   0.62579   0.62837
 Alpha virt. eigenvalues --    0.63417   0.63528   0.64362   0.64924   0.65233
 Alpha virt. eigenvalues --    0.65559   0.66156   0.66490   0.66591   0.67344
 Alpha virt. eigenvalues --    0.67692   0.68060   0.68778   0.69014   0.69669
 Alpha virt. eigenvalues --    0.70694   0.71404   0.71634   0.72040   0.72503
 Alpha virt. eigenvalues --    0.73138   0.73675   0.74320   0.74981   0.75428
 Alpha virt. eigenvalues --    0.75618   0.76491   0.76735   0.77510   0.78388
 Alpha virt. eigenvalues --    0.78747   0.79362   0.79882   0.80626   0.80744
 Alpha virt. eigenvalues --    0.82872   0.83420   0.84431   0.85074   0.85540
 Alpha virt. eigenvalues --    0.86150   0.86644   0.87209   0.87750   0.88310
 Alpha virt. eigenvalues --    0.89510   0.89970   0.90035   0.90611   0.91541
 Alpha virt. eigenvalues --    0.92717   0.93221   0.94247   0.94775   0.95460
 Alpha virt. eigenvalues --    0.95890   0.97456   0.97972   0.98594   0.99291
 Alpha virt. eigenvalues --    1.00011   1.02028   1.02608   1.03804   1.04453
 Alpha virt. eigenvalues --    1.05790   1.06464   1.06729   1.07167   1.08783
 Alpha virt. eigenvalues --    1.09171   1.10406   1.10805   1.11653   1.13257
 Alpha virt. eigenvalues --    1.13668   1.14496   1.14796   1.15550   1.16443
 Alpha virt. eigenvalues --    1.17745   1.18297   1.20066   1.20298   1.21014
 Alpha virt. eigenvalues --    1.21539   1.22795   1.24192   1.24647   1.25522
 Alpha virt. eigenvalues --    1.25840   1.27302   1.28557   1.29235   1.30805
 Alpha virt. eigenvalues --    1.31468   1.31985   1.33642   1.34535   1.35459
 Alpha virt. eigenvalues --    1.36542   1.36725   1.37879   1.37929   1.39499
 Alpha virt. eigenvalues --    1.41039   1.41722   1.42604   1.43066   1.46167
 Alpha virt. eigenvalues --    1.46466   1.47912   1.48213   1.50365   1.51292
 Alpha virt. eigenvalues --    1.51803   1.52567   1.53170   1.53931   1.55534
 Alpha virt. eigenvalues --    1.56774   1.57289   1.58351   1.58602   1.58784
 Alpha virt. eigenvalues --    1.60419   1.61352   1.62977   1.63552   1.64072
 Alpha virt. eigenvalues --    1.65248   1.66200   1.67541   1.68096   1.69728
 Alpha virt. eigenvalues --    1.70274   1.71379   1.72973   1.74034   1.74771
 Alpha virt. eigenvalues --    1.75766   1.77121   1.77402   1.77680   1.79640
 Alpha virt. eigenvalues --    1.80729   1.81844   1.82093   1.83334   1.83707
 Alpha virt. eigenvalues --    1.85614   1.86656   1.87426   1.88012   1.89132
 Alpha virt. eigenvalues --    1.89425   1.91310   1.92667   1.93260   1.93959
 Alpha virt. eigenvalues --    1.94395   1.95695   1.96260   1.98072   1.98503
 Alpha virt. eigenvalues --    1.98793   1.99792   2.01117   2.02014   2.02946
 Alpha virt. eigenvalues --    2.03701   2.04365   2.05290   2.06694   2.06970
 Alpha virt. eigenvalues --    2.09121   2.10152   2.12096   2.12456   2.13219
 Alpha virt. eigenvalues --    2.13529   2.15342   2.16699   2.19320   2.19905
 Alpha virt. eigenvalues --    2.20675   2.21088   2.22587   2.24221   2.24566
 Alpha virt. eigenvalues --    2.25160   2.26783   2.27968   2.29534   2.31041
 Alpha virt. eigenvalues --    2.32145   2.32790   2.34305   2.37055   2.39213
 Alpha virt. eigenvalues --    2.39991   2.41732   2.42154   2.42397   2.43626
 Alpha virt. eigenvalues --    2.44937   2.45813   2.46517   2.47747   2.48310
 Alpha virt. eigenvalues --    2.49832   2.51973   2.52806   2.53508   2.56144
 Alpha virt. eigenvalues --    2.56904   2.57247   2.59219   2.59800   2.61575
 Alpha virt. eigenvalues --    2.63677   2.63900   2.66670   2.68434   2.70705
 Alpha virt. eigenvalues --    2.72253   2.76522   2.77670   2.79102   2.80667
 Alpha virt. eigenvalues --    2.82235   2.85356   2.86748   2.88615   2.91386
 Alpha virt. eigenvalues --    2.92434   2.93357   2.95499   2.99040   2.99767
 Alpha virt. eigenvalues --    3.02363   3.14159   3.15049   3.18011   3.21679
 Alpha virt. eigenvalues --    3.23357   3.29409   3.33273   3.34940   3.38970
 Alpha virt. eigenvalues --    3.41510   3.42758   3.43953   3.44294   3.47587
 Alpha virt. eigenvalues --    3.48099   3.49973   3.50783   3.52422   3.52582
 Alpha virt. eigenvalues --    3.54109   3.56180   3.56657   3.59053   3.60527
 Alpha virt. eigenvalues --    3.60913   3.64361   3.64449   3.68699   3.69353
 Alpha virt. eigenvalues --    3.70951   3.73787   3.75236   3.80997   3.81716
 Alpha virt. eigenvalues --    3.83588   3.90619   3.92514   3.96687   4.06225
 Alpha virt. eigenvalues --    4.07799   4.14838   4.24805   4.37712   4.67905
          Condensed to atoms (all electrons):
               1          2          3          4          5          6
     1  C    9.361908  -2.161536   0.357754   0.072635   0.043467   0.139571
     2  C   -2.161536   9.476018  -3.687479  -0.474235  -0.188750   0.066147
     3  C    0.357754  -3.687479  25.780617   0.511268  -1.095635  -1.453457
     4  O    0.072635  -0.474235   0.511268   8.614375  -0.197248  -0.024076
     5  H    0.043467  -0.188750  -1.095635  -0.197248   2.323001   0.096640
     6  O    0.139571   0.066147  -1.453457  -0.024076   0.096640   9.588081
     7  H   -0.148881   0.703808  -2.657122  -0.043074   0.158527   0.124031
     8  C    0.263742   0.736095  -6.487971  -0.148608   0.474700   0.382448
     9  C   -1.590622   1.036371  -3.522263  -0.060571   0.065531   0.230829
    10  H   -1.109312   0.347107   0.365191   0.024770  -0.150441  -0.023396
    11  O   -0.478922   0.032939   0.067195  -0.027899   0.040312   0.019905
    12  C   -0.066098  -0.045485   0.329908  -0.015854   0.041752  -0.011582
    13  H    0.009096   0.057637   0.663844   0.006204  -0.017758  -0.327611
    14  O   -0.032672  -0.031413  -0.074503   0.003950  -0.004365  -0.025280
    15  H    0.028409   0.017761  -0.044518  -0.001736   0.019519   0.109590
    16  H    0.017927  -0.012344   0.018644  -0.000715  -0.005092  -0.041448
    17  H    0.061993  -0.016754  -0.026311   0.002203   0.004854   0.003939
    18  H    0.001829  -0.100394  -0.090360   0.322864   0.054603   0.012899
    19  H    0.021336  -0.031472   0.026148   0.001551   0.008928   0.017603
    20  C    0.053950  -0.412349  -2.887083   0.051619  -0.005130   0.019705
    21  N   -0.001195   0.007834   0.348574  -0.003813  -0.001023  -0.014130
    22  C    0.001803   0.000970  -0.816901   0.002400   0.007399   0.006063
    23  N    0.035472  -0.072927   0.517819  -0.007711   0.002551  -0.020993
    24  C   -0.193634   0.027946  -1.281715   0.061147  -0.214350  -0.035812
    25  H   -0.026960   0.121173   0.076717  -0.001771   0.016411   0.049409
    26  H   -0.000914  -0.001696   0.005234  -0.000315  -0.000691  -0.000429
    27  H   -0.001697  -0.000912  -0.025735   0.000800   0.000266  -0.001596
    28  O   -0.000612   0.000442   0.036004  -0.000173   0.000065   0.000100
    29  O    0.082889   0.010986  -0.079098  -0.009281   0.063377   0.003106
               7          8          9         10         11         12
     1  C   -0.148881   0.263742  -1.590622  -1.109312  -0.478922  -0.066098
     2  C    0.703808   0.736095   1.036371   0.347107   0.032939  -0.045485
     3  C   -2.657122  -6.487971  -3.522263   0.365191   0.067195   0.329908
     4  O   -0.043074  -0.148608  -0.060571   0.024770  -0.027899  -0.015854
     5  H    0.158527   0.474700   0.065531  -0.150441   0.040312   0.041752
     6  O    0.124031   0.382448   0.230829  -0.023396   0.019905  -0.011582
     7  H    2.930556   0.543030   0.122276  -0.013251  -0.005821  -0.015153
     8  C    0.543030  16.580764   0.606875  -0.149963  -0.025106  -0.133856
     9  C    0.122276   0.606875   9.382260   0.047994   0.130481  -0.185371
    10  H   -0.013251  -0.149963   0.047994   2.138997  -0.067203  -0.109449
    11  O   -0.005821  -0.025106   0.130481  -0.067203   8.696340  -0.008264
    12  C   -0.015153  -0.133856  -0.185371  -0.109449  -0.008264   4.967525
    13  H    0.002194  -0.201874  -0.937875   0.113191  -0.003628  -0.014259
    14  O    0.004161   0.039742   0.081968   0.041940   0.003963   0.049643
    15  H   -0.005876   0.033222  -0.103190  -0.055905   0.001237   0.202686
    16  H    0.007167  -0.027092   0.156728   0.026511   0.000804   0.059481
    17  H    0.007445   0.019396  -0.038079  -0.100225   0.381548  -0.008651
    18  H   -0.002902   0.022284   0.026988  -0.003983   0.027197   0.003630
    19  H   -0.008186   0.009435  -0.043076  -0.012954  -0.000535  -0.003315
    20  C    0.147324  -3.305043  -0.059690   0.009146  -0.011189  -0.047474
    21  N    0.007909   0.433846  -0.008969  -0.000035   0.001351   0.005214
    22  C    0.004029  -0.068905   0.001950   0.000185  -0.000054  -0.013241
    23  N   -0.007622  -0.218537  -0.003407   0.000955  -0.001201  -0.014020
    24  C   -0.042544  -4.889094  -0.073608   0.041498   0.012169  -0.018966
    25  H   -0.069563   0.266721   0.032384  -0.001360   0.001384   0.001913
    26  H   -0.002818   0.050935  -0.000274   0.000082  -0.000001  -0.000204
    27  H    0.002389   0.174984  -0.000198   0.000194   0.000114  -0.000408
    28  O    0.000748   0.038893   0.000543  -0.000043   0.000004   0.000305
    29  O    0.005480  -0.079725  -0.042347  -0.009136  -0.002360   0.005364
              13         14         15         16         17         18
     1  C    0.009096  -0.032672   0.028409   0.017927   0.061993   0.001829
     2  C    0.057637  -0.031413   0.017761  -0.012344  -0.016754  -0.100394
     3  C    0.663844  -0.074503  -0.044518   0.018644  -0.026311  -0.090360
     4  O    0.006204   0.003950  -0.001736  -0.000715   0.002203   0.322864
     5  H   -0.017758  -0.004365   0.019519  -0.005092   0.004854   0.054603
     6  O   -0.327611  -0.025280   0.109590  -0.041448   0.003939   0.012899
     7  H    0.002194   0.004161  -0.005876   0.007167   0.007445  -0.002902
     8  C   -0.201874   0.039742   0.033222  -0.027092   0.019396   0.022284
     9  C   -0.937875   0.081968  -0.103190   0.156728  -0.038079   0.026988
    10  H    0.113191   0.041940  -0.055905   0.026511  -0.100225  -0.003983
    11  O   -0.003628   0.003963   0.001237   0.000804   0.381548   0.027197
    12  C   -0.014259   0.049643   0.202686   0.059481  -0.008651   0.003630
    13  H    2.248565   0.026042  -0.150462   0.016737  -0.025008  -0.001639
    14  O    0.026042   8.478580  -0.182205  -0.055389  -0.000486  -0.001998
    15  H   -0.150462  -0.182205   1.794297  -0.376753   0.006018   0.000784
    16  H    0.016737  -0.055389  -0.376753   1.489790  -0.002282  -0.000341
    17  H   -0.025008  -0.000486   0.006018  -0.002282   0.598754  -0.005057
    18  H   -0.001639  -0.001998   0.000784  -0.000341  -0.005057   0.637508
    19  H    0.011153   0.181874   0.020147  -0.054712  -0.000131   0.000031
    20  C    0.013068   0.008858  -0.006284  -0.004757   0.002648  -0.004051
    21  N   -0.000819  -0.000151   0.000176   0.000811  -0.000156  -0.000203
    22  C   -0.000392   0.000630  -0.000912   0.000268   0.000339  -0.000501
    23  N   -0.000600  -0.010052  -0.000492  -0.002113   0.000068   0.000159
    24  C    0.020642   0.035840  -0.022515   0.037809  -0.003111  -0.010225
    25  H    0.000122   0.000359   0.000640  -0.000488  -0.000267   0.002487
    26  H    0.000117   0.000019  -0.000048   0.000037  -0.000010   0.000018
    27  H    0.000039   0.000288  -0.000224   0.000434  -0.000008  -0.000108
    28  O    0.000016  -0.000010   0.000024   0.000016  -0.000006   0.000031
    29  O   -0.001768  -0.044843   0.002368   0.002018   0.000688  -0.000205
              19         20         21         22         23         24
     1  C    0.021336   0.053950  -0.001195   0.001803   0.035472  -0.193634
     2  C   -0.031472  -0.412349   0.007834   0.000970  -0.072927   0.027946
     3  C    0.026148  -2.887083   0.348574  -0.816901   0.517819  -1.281715
     4  O    0.001551   0.051619  -0.003813   0.002400  -0.007711   0.061147
     5  H    0.008928  -0.005130  -0.001023   0.007399   0.002551  -0.214350
     6  O    0.017603   0.019705  -0.014130   0.006063  -0.020993  -0.035812
     7  H   -0.008186   0.147324   0.007909   0.004029  -0.007622  -0.042544
     8  C    0.009435  -3.305043   0.433846  -0.068905  -0.218537  -4.889094
     9  C   -0.043076  -0.059690  -0.008969   0.001950  -0.003407  -0.073608
    10  H   -0.012954   0.009146  -0.000035   0.000185   0.000955   0.041498
    11  O   -0.000535  -0.011189   0.001351  -0.000054  -0.001201   0.012169
    12  C   -0.003315  -0.047474   0.005214  -0.013241  -0.014020  -0.018966
    13  H    0.011153   0.013068  -0.000819  -0.000392  -0.000600   0.020642
    14  O    0.181874   0.008858  -0.000151   0.000630  -0.010052   0.035840
    15  H    0.020147  -0.006284   0.000176  -0.000912  -0.000492  -0.022515
    16  H   -0.054712  -0.004757   0.000811   0.000268  -0.002113   0.037809
    17  H   -0.000131   0.002648  -0.000156   0.000339   0.000068  -0.003111
    18  H    0.000031  -0.004051  -0.000203  -0.000501   0.000159  -0.010225
    19  H    0.589878   0.018895  -0.001550  -0.000068   0.004004  -0.054411
    20  C    0.018895  15.384982  -1.306056   0.248765   0.274382  -2.029803
    21  N   -0.001550  -1.306056   7.853935  -0.214622  -0.029174   0.074466
    22  C   -0.000068   0.248765  -0.214622   6.371362  -0.080115  -0.005403
    23  N    0.004004   0.274382  -0.029174  -0.080115   7.988742  -0.933400
    24  C   -0.054411  -2.029803   0.074466  -0.005403  -0.933400  15.014881
    25  H   -0.000708  -1.000877   0.172978  -0.046884  -0.044240   0.096573
    26  H   -0.000063  -0.230546   0.474558  -0.095667   0.009775  -0.050414
    27  H   -0.002332  -0.150545   0.024890  -0.156546   0.331979  -0.165025
    28  O    0.000138   0.013476  -0.069692   0.064040  -0.118006   0.064335
    29  O    0.043489  -0.071549   0.017017  -0.023296  -0.215798   0.188341
              25         26         27         28         29
     1  C   -0.026960  -0.000914  -0.001697  -0.000612   0.082889
     2  C    0.121173  -0.001696  -0.000912   0.000442   0.010986
     3  C    0.076717   0.005234  -0.025735   0.036004  -0.079098
     4  O   -0.001771  -0.000315   0.000800  -0.000173  -0.009281
     5  H    0.016411  -0.000691   0.000266   0.000065   0.063377
     6  O    0.049409  -0.000429  -0.001596   0.000100   0.003106
     7  H   -0.069563  -0.002818   0.002389   0.000748   0.005480
     8  C    0.266721   0.050935   0.174984   0.038893  -0.079725
     9  C    0.032384  -0.000274  -0.000198   0.000543  -0.042347
    10  H   -0.001360   0.000082   0.000194  -0.000043  -0.009136
    11  O    0.001384  -0.000001   0.000114   0.000004  -0.002360
    12  C    0.001913  -0.000204  -0.000408   0.000305   0.005364
    13  H    0.000122   0.000117   0.000039   0.000016  -0.001768
    14  O    0.000359   0.000019   0.000288  -0.000010  -0.044843
    15  H    0.000640  -0.000048  -0.000224   0.000024   0.002368
    16  H   -0.000488   0.000037   0.000434   0.000016   0.002018
    17  H   -0.000267  -0.000010  -0.000008  -0.000006   0.000688
    18  H    0.002487   0.000018  -0.000108   0.000031  -0.000205
    19  H   -0.000708  -0.000063  -0.002332   0.000138   0.043489
    20  C   -1.000877  -0.230546  -0.150545   0.013476  -0.071549
    21  N    0.172978   0.474558   0.024890  -0.069692   0.017017
    22  C   -0.046884  -0.095667  -0.156546   0.064040  -0.023296
    23  N   -0.044240   0.009775   0.331979  -0.118006  -0.215798
    24  C    0.096573  -0.050414  -0.165025   0.064335   0.188341
    25  H    2.063919  -0.026582  -0.003562   0.003424  -0.007517
    26  H   -0.026582   0.813324  -0.003363   0.001547   0.001576
    27  H   -0.003562  -0.003363   1.068195  -0.002182  -0.034329
    28  O    0.003424   0.001547  -0.002182   8.525718  -0.004853
    29  O   -0.007517   0.001576  -0.034329  -0.004853   9.081197
 Mulliken charges:
               1
     1  C    1.259275
     2  C    0.594513
     3  C    1.125233
     4  O   -0.658708
     5  H   -0.541420
     6  O   -0.890258
     7  H   -0.748265
     8  C    1.058663
     9  C    0.746360
    10  H   -0.351107
    11  O   -0.784759
    12  C    1.044226
    13  H   -0.504976
    14  O   -0.494489
    15  H   -0.285759
    16  H   -0.251657
    17  H    0.136651
    18  H    0.108657
    19  H    0.258900
    20  C    1.285610
    21  N   -0.771970
    22  C    0.813305
    23  N   -0.385498
    24  C    0.348384
    25  H   -0.675837
    26  H    0.056812
    27  H   -0.055803
    28  O   -0.554292
    29  O   -0.881792
 Sum of Mulliken charges =  -0.00000
 Mulliken charges with hydrogens summed into heavy atoms:
               1
     1  C    0.908167
     2  C    0.053092
     3  C    0.376969
     4  O   -0.550051
     6  O   -0.890258
     8  C    1.058663
     9  C    0.241384
    11  O   -0.648109
    12  C    0.506811
    14  O   -0.235589
    20  C    0.609773
    21  N   -0.715158
    22  C    0.813305
    23  N   -0.441301
    24  C    0.348384
    28  O   -0.554292
    29  O   -0.881792
 Electronic spatial extent (au):  <R**2>=           4136.5962
 Charge=              0.0000 electrons
 Dipole moment (field-independent basis, Debye):
    X=             -0.8340    Y=             -4.0454    Z=             -3.0838  Tot=              5.1547
 Quadrupole moment (field-independent basis, Debye-Ang):
   XX=            -91.9750   YY=            -97.9394   ZZ=           -102.8225
   XY=             -2.6935   XZ=             -0.0059   YZ=              3.5640
 Traceless Quadrupole moment (field-independent basis, Debye-Ang):
   XX=              5.6040   YY=             -0.3604   ZZ=             -5.2436
   XY=             -2.6935   XZ=             -0.0059   YZ=              3.5640
 Octapole moment (field-independent basis, Debye-Ang**2):
  XXX=           -170.4290  YYY=            -28.9280  ZZZ=             -0.0885  XYY=             34.0190
  XXY=            -53.4220  XXZ=            -27.1853  XZZ=              8.3812  YZZ=              2.4210
  YYZ=            -19.7176  XYZ=             21.5912
 Hexadecapole moment (field-independent basis, Debye-Ang**3):
 XXXX=          -3964.5464 YYYY=          -1058.3965 ZZZZ=           -454.3613 XXXY=            -47.7459
 XXXZ=            -33.3349 YYYX=             46.8533 YYYZ=             -1.1581 ZZZX=              5.8493
 ZZZY=             20.3497 XXYY=           -696.5414 XXZZ=           -667.4478 YYZZ=           -256.2410
 XXYZ=             34.2824 YYXZ=              1.8122 ZZXY=             -1.4435
 N-N= 1.332572970983D+03 E-N=-4.797846271455D+03  KE= 9.054092660077D+02
 Calling FoFJK, ICntrl=      2127 FMM=F ISym2X=0 I1Cent= 0 IOpClX= 0 NMat=1 NMatS=1 NMatT=0.
 ***** Axes restored to original set *****
 -------------------------------------------------------------------
 Center     Atomic                   Forces (Hartrees/Bohr)
 Number     Number              X              Y              Z
 -------------------------------------------------------------------
      1        6          -0.000423324    0.001071629    0.000027718
      2        6          -0.001598729   -0.000116183   -0.002675417
      3        6          -0.009696368   -0.013006800   -0.000230271
      4        8          -0.000842554   -0.001363251    0.001859176
      5        1          -0.000356445   -0.000243091    0.000384657
      6        8          -0.009847560    0.006730119   -0.003120599
      7        1          -0.008257902   -0.003596814   -0.000880897
      8        6           0.019853317   -0.045650079   -0.022095413
      9        6           0.001598330   -0.001312641   -0.000932666
     10        1          -0.000606758   -0.000101506    0.000046921
     11        8          -0.001056330   -0.000936430   -0.000098213
     12        6          -0.000464917   -0.000756466   -0.000129165
     13        1          -0.000920479    0.000074566   -0.000140578
     14        8          -0.000057709    0.001055658    0.000238121
     15        1          -0.000144219    0.000279202    0.000140881
     16        1           0.000122135    0.000062766   -0.000067730
     17        1           0.000311705    0.000305223    0.000035550
     18        1           0.000291183    0.000541614   -0.000388316
     19        1           0.000164501   -0.000846525   -0.000072087
     20        6          -0.029861285    0.012859136    0.006411224
     21        7           0.052158596   -0.000708752    0.000471380
     22        6          -0.007645985   -0.001482685   -0.001171139
     23        7           0.019035482   -0.007050268   -0.003196564
     24        6           0.001240230    0.020244324    0.009204945
     25        1           0.011400851   -0.005175700   -0.002603779
     26        1          -0.031973755    0.040103112    0.019533610
     27        1           0.005268193   -0.001311833   -0.000483084
     28        8          -0.010471317   -0.016886381   -0.008190727
     29        8           0.002781111    0.017218055    0.008122463
 -------------------------------------------------------------------
 Cartesian Forces:  Max     0.052158596 RMS     0.011904855

 GradGradGradGradGradGradGradGradGradGradGradGradGradGradGradGradGradGrad
 Berny optimization.
 FormGI is forming the generalized inverse of G from B-inverse, IUseBI=4.
 Internal  Forces:  Max     0.054710633 RMS     0.008924263
 Search for a local minimum.
 Step number   1 out of a maximum of  173
 All quantities printed in internal units (Hartrees-Bohrs-Radians)
 Mixed Optimization -- RFO/linear search
 Second derivative matrix not updated -- first step.
 ITU=  0
     Eigenvalues ---    0.00498   0.00523   0.00878   0.01296   0.01346
     Eigenvalues ---    0.01347   0.01564   0.01646   0.01711   0.01746
     Eigenvalues ---    0.01857   0.01938   0.02060   0.02155   0.02326
     Eigenvalues ---    0.02387   0.03070   0.03760   0.04314   0.04899
     Eigenvalues ---    0.04908   0.05170   0.05450   0.05632   0.05822
     Eigenvalues ---    0.06110   0.06224   0.06929   0.07714   0.08493
     Eigenvalues ---    0.09808   0.11657   0.13179   0.14028   0.16000
     Eigenvalues ---    0.16000   0.16000   0.16000   0.16000   0.16000
     Eigenvalues ---    0.16189   0.17125   0.18364   0.20338   0.22074
     Eigenvalues ---    0.22360   0.23424   0.24595   0.24994   0.25000
     Eigenvalues ---    0.25000   0.26287   0.28365   0.28556   0.30522
     Eigenvalues ---    0.33237   0.33361   0.33473   0.33619   0.33937
     Eigenvalues ---    0.34419   0.34992   0.35350   0.37273   0.37448
     Eigenvalues ---    0.37638   0.41565   0.42885   0.43081   0.45047
     Eigenvalues ---    0.45420   0.45867   0.46019   0.47959   0.49838
     Eigenvalues ---    0.52814   0.53975   0.54200   0.55430   0.94189
     Eigenvalues ---    0.96798
 RFO step:  Lambda=-3.37842097D-02 EMin= 4.97743770D-03
 Linear search not attempted -- first point.
 Maximum step size (   0.300) exceeded in Quadratic search.
    -- Step size scaled by   0.980
 Iteration  1 RMS(Cart)=  0.06668348 RMS(Int)=  0.00146496
 Iteration  2 RMS(Cart)=  0.00179089 RMS(Int)=  0.00017681
 Iteration  3 RMS(Cart)=  0.00000152 RMS(Int)=  0.00017681
 Iteration  4 RMS(Cart)=  0.00000000 RMS(Int)=  0.00017681
 Variable       Old X    -DE/DX   Delta X   Delta X   Delta X     New X
                                 (Linear)    (Quad)   (Total)
    R1        2.89134   0.00180   0.00000   0.00451   0.00450   2.89584
    R2        2.89686  -0.00032   0.00000  -0.00432  -0.00440   2.89247
    R3        2.07436   0.00036   0.00000   0.00095   0.00095   2.07531
    R4        2.69481   0.00083   0.00000   0.00181   0.00181   2.69662
    R5        2.90331   0.00220   0.00000   0.00835   0.00843   2.91174
    R6        2.64282   0.00140   0.00000   0.00278   0.00278   2.64560
    R7        2.06628  -0.00005   0.00000  -0.00012  -0.00012   2.06616
    R8        2.64700   0.01014   0.00000   0.02240   0.02246   2.66946
    R9        2.08423   0.00390   0.00000   0.01041   0.01041   2.09464
   R10        2.75177   0.03405   0.00000   0.08176   0.08176   2.83353
   R11        1.82754  -0.00039   0.00000  -0.00066  -0.00066   1.82688
   R12        2.72416  -0.00114   0.00000  -0.00282  -0.00286   2.72131
   R13        2.60084  -0.01612   0.00000  -0.02787  -0.02749   2.57335
   R14        2.62503   0.05381   0.00000   0.10864   0.10861   2.73364
   R15        2.86934  -0.00012   0.00000  -0.00034  -0.00034   2.86900
   R16        2.08228   0.00061   0.00000   0.00162   0.00162   2.08390
   R17        1.81452  -0.00030   0.00000  -0.00050  -0.00050   1.81402
   R18        2.65221   0.00025   0.00000   0.00050   0.00050   2.65271
   R19        2.07978   0.00019   0.00000   0.00051   0.00051   2.08029
   R20        2.08638   0.00013   0.00000   0.00034   0.00034   2.08672
   R21        1.83828   0.00028   0.00000   0.00049   0.00049   1.83877
   R22        2.54823   0.01084   0.00000   0.01576   0.01616   2.56439
   R23        2.05687   0.00086   0.00000   0.00219   0.00219   2.05906
   R24        2.73886  -0.03959   0.00000  -0.09906  -0.09900   2.63986
   R25        2.05111  -0.05471   0.00000  -0.13847  -0.13847   1.91264
   R26        2.65009  -0.01820   0.00000  -0.03841  -0.03879   2.61130
   R27        2.29949  -0.01523   0.00000  -0.01491  -0.01491   2.28458
   R28        2.59145   0.01728   0.00000   0.03378   0.03336   2.62481
   R29        1.91491   0.00024   0.00000   0.00048   0.00048   1.91539
   R30        2.31060   0.01308   0.00000   0.01314   0.01314   2.32374
    A1        1.80196   0.00080   0.00000   0.00099   0.00092   1.80288
    A2        1.95288  -0.00010   0.00000   0.00140   0.00142   1.95431
    A3        1.84099   0.00003   0.00000   0.00253   0.00255   1.84355
    A4        1.95661  -0.00037   0.00000  -0.00012  -0.00011   1.95650
    A5        1.95936  -0.00009   0.00000  -0.00061  -0.00059   1.95877
    A6        1.94422  -0.00017   0.00000  -0.00360  -0.00362   1.94060
    A7        1.75305   0.00182   0.00000   0.01032   0.01039   1.76345
    A8        2.00426  -0.00119   0.00000  -0.00794  -0.00800   1.99626
    A9        1.91031  -0.00054   0.00000  -0.00180  -0.00185   1.90847
   A10        1.97429  -0.00004   0.00000   0.00281   0.00280   1.97709
   A11        1.92130  -0.00022   0.00000  -0.00009  -0.00009   1.92120
   A12        1.89650   0.00022   0.00000  -0.00254  -0.00255   1.89395
   A13        1.86385  -0.00369   0.00000  -0.01583  -0.01596   1.84789
   A14        1.88065  -0.00332   0.00000  -0.03077  -0.03117   1.84948
   A15        2.02802   0.00128   0.00000   0.00737   0.00746   2.03548
   A16        1.93839  -0.00077   0.00000  -0.01334  -0.01425   1.92415
   A17        1.91866   0.00278   0.00000   0.01330   0.01327   1.93194
   A18        1.83468   0.00364   0.00000   0.03772   0.03787   1.87255
   A19        1.85986  -0.00099   0.00000  -0.00503  -0.00503   1.85483
   A20        1.91744   0.00116   0.00000   0.01013   0.01019   1.92764
   A21        2.07906   0.00361   0.00000   0.00667   0.00648   2.08554
   A22        2.10219   0.01463   0.00000   0.04474   0.04455   2.14674
   A23        2.10174  -0.01823   0.00000  -0.05129  -0.05093   2.05080
   A24        1.85796   0.00071   0.00000   0.00049   0.00043   1.85839
   A25        1.98963   0.00010   0.00000  -0.00015  -0.00014   1.98949
   A26        1.91415  -0.00037   0.00000  -0.00070  -0.00069   1.91346
   A27        1.90737  -0.00087   0.00000  -0.00326  -0.00323   1.90413
   A28        1.88003   0.00039   0.00000   0.00473   0.00474   1.88477
   A29        1.91113   0.00007   0.00000  -0.00076  -0.00077   1.91036
   A30        1.91059  -0.00055   0.00000  -0.00281  -0.00281   1.90779
   A31        1.97326  -0.00036   0.00000  -0.00154  -0.00154   1.97171
   A32        1.89482   0.00069   0.00000   0.00455   0.00455   1.89937
   A33        1.88762  -0.00024   0.00000  -0.00212  -0.00212   1.88550
   A34        1.86974  -0.00008   0.00000   0.00011   0.00011   1.86985
   A35        1.95675   0.00011   0.00000  -0.00084  -0.00084   1.95590
   A36        1.87856  -0.00006   0.00000   0.00017   0.00017   1.87873
   A37        1.89350  -0.00065   0.00000  -0.00328  -0.00328   1.89022
   A38        2.16195   0.00016   0.00000  -0.00218  -0.00142   2.16052
   A39        1.99744   0.01304   0.00000   0.06746   0.06707   2.06451
   A40        2.12379  -0.01320   0.00000  -0.06529  -0.06567   2.05812
   A41        2.08711   0.01879   0.00000   0.05565   0.05609   2.14319
   A42        2.12199  -0.00494   0.00000  -0.00530  -0.00551   2.11648
   A43        2.07407  -0.01385   0.00000  -0.05036  -0.05057   2.02350
   A44        1.96739   0.00211   0.00000  -0.00686  -0.00721   1.96018
   A45        2.21616  -0.01848   0.00000  -0.05677  -0.05660   2.15956
   A46        2.09963   0.01637   0.00000   0.06363   0.06381   2.16344
   A47        2.24636   0.00008   0.00000   0.00104   0.00030   2.24666
   A48        2.03132  -0.00525   0.00000  -0.02689  -0.02652   2.00480
   A49        2.00550   0.00517   0.00000   0.02585   0.02622   2.03172
   A50        2.00169  -0.00291   0.00000   0.00360   0.00314   2.00483
   A51        2.16457   0.01776   0.00000   0.05451   0.05474   2.21931
   A52        2.11690  -0.01485   0.00000  -0.05811  -0.05788   2.05903
    D1       -0.58409  -0.00013   0.00000   0.00290   0.00286  -0.58122
    D2       -2.70787  -0.00068   0.00000  -0.00329  -0.00329  -2.71116
    D3        1.43717   0.00029   0.00000   0.00710   0.00708   1.44425
    D4       -2.69149  -0.00012   0.00000   0.00172   0.00170  -2.68978
    D5        1.46792  -0.00067   0.00000  -0.00447  -0.00445   1.46347
    D6       -0.67023   0.00030   0.00000   0.00592   0.00592  -0.66430
    D7        1.47493   0.00013   0.00000   0.00369   0.00367   1.47860
    D8       -0.64885  -0.00042   0.00000  -0.00250  -0.00249  -0.65134
    D9       -2.78699   0.00055   0.00000   0.00789   0.00789  -2.77911
   D10        0.38545  -0.00036   0.00000  -0.00329  -0.00328   0.38217
   D11       -1.71868   0.00018   0.00000   0.00054   0.00055  -1.71813
   D12        2.41471   0.00030   0.00000   0.00219   0.00219   2.41689
   D13        2.49031  -0.00019   0.00000  -0.00107  -0.00107   2.48923
   D14        0.38618   0.00035   0.00000   0.00276   0.00276   0.38894
   D15       -1.76362   0.00047   0.00000   0.00440   0.00439  -1.75923
   D16       -1.58887  -0.00080   0.00000  -0.00651  -0.00650  -1.59537
   D17        2.59019  -0.00026   0.00000  -0.00268  -0.00267   2.58752
   D18        0.44039  -0.00014   0.00000  -0.00103  -0.00103   0.43936
   D19        2.90437  -0.00032   0.00000   0.00081   0.00083   2.90521
   D20       -1.42872   0.00060   0.00000   0.00308   0.00305  -1.42567
   D21        0.78198  -0.00012   0.00000  -0.00045  -0.00045   0.78153
   D22        0.61183  -0.00205   0.00000  -0.01177  -0.01157   0.60027
   D23       -1.47192   0.00259   0.00000   0.02862   0.02836  -1.44356
   D24        2.75937  -0.00044   0.00000  -0.00179  -0.00174   2.75763
   D25        2.75671  -0.00235   0.00000  -0.01339  -0.01317   2.74354
   D26        0.67296   0.00229   0.00000   0.02699   0.02675   0.69971
   D27       -1.37893  -0.00073   0.00000  -0.00341  -0.00335  -1.38229
   D28       -1.40118  -0.00226   0.00000  -0.01478  -0.01458  -1.41577
   D29        2.79825   0.00238   0.00000   0.02561   0.02534   2.82359
   D30        0.74636  -0.00064   0.00000  -0.00480  -0.00476   0.74160
   D31        0.51804   0.00113   0.00000   0.00986   0.00987   0.52790
   D32       -1.48042  -0.00039   0.00000  -0.00007  -0.00009  -1.48051
   D33        2.66361  -0.00023   0.00000  -0.00002  -0.00001   2.66360
   D34       -0.39253   0.00151   0.00000   0.00947   0.00931  -0.38322
   D35        1.65345  -0.00507   0.00000  -0.04391  -0.04370   1.60975
   D36       -2.60673   0.00061   0.00000   0.00240   0.00237  -2.60436
   D37        2.12096  -0.00027   0.00000  -0.01376  -0.01385   2.10711
   D38       -1.04228  -0.00010   0.00000  -0.00808  -0.00796  -1.05025
   D39       -2.04356  -0.00202   0.00000  -0.01885  -0.01901  -2.06257
   D40        1.07639  -0.00186   0.00000  -0.01317  -0.01313   1.06326
   D41        0.04386   0.00058   0.00000  -0.00624  -0.00629   0.03757
   D42       -3.11938   0.00074   0.00000  -0.00056  -0.00040  -3.11978
   D43        0.00123  -0.00034   0.00000  -0.00217  -0.00214  -0.00092
   D44        2.15750  -0.00029   0.00000  -0.00396  -0.00394   2.15356
   D45       -2.05078  -0.00047   0.00000  -0.00397  -0.00395  -2.05472
   D46        3.13891   0.00064   0.00000   0.00934   0.00920  -3.13507
   D47       -0.00774   0.00034   0.00000   0.00550   0.00524  -0.00250
   D48        0.01896   0.00005   0.00000   0.00244   0.00246   0.02142
   D49       -3.12769  -0.00024   0.00000  -0.00140  -0.00150  -3.12919
   D50       -3.13421  -0.00044   0.00000  -0.00695  -0.00705  -3.14126
   D51        0.01294  -0.00033   0.00000  -0.00602  -0.00599   0.00694
   D52       -0.01455   0.00001   0.00000  -0.00045  -0.00058  -0.01513
   D53        3.13260   0.00011   0.00000   0.00048   0.00047   3.13307
   D54        0.80410   0.00037   0.00000   0.00184   0.00181   0.80591
   D55       -1.26807   0.00024   0.00000  -0.00040  -0.00043  -1.26850
   D56        2.98156   0.00008   0.00000  -0.00189  -0.00191   2.97965
   D57       -1.27216   0.00002   0.00000   0.00360   0.00362  -1.26854
   D58        2.93885  -0.00011   0.00000   0.00136   0.00138   2.94024
   D59        0.90530  -0.00027   0.00000  -0.00013  -0.00011   0.90520
   D60        2.95554   0.00002   0.00000   0.00023   0.00023   2.95577
   D61        0.88337  -0.00011   0.00000  -0.00201  -0.00201   0.88136
   D62       -1.15018  -0.00028   0.00000  -0.00350  -0.00350  -1.15368
   D63        1.06765  -0.00079   0.00000  -0.01151  -0.01151   1.05614
   D64       -3.12888  -0.00021   0.00000  -0.00671  -0.00671  -3.13559
   D65       -1.07176  -0.00028   0.00000  -0.00691  -0.00691  -1.07867
   D66       -0.00977  -0.00032   0.00000  -0.00381  -0.00387  -0.01364
   D67        3.13706  -0.00030   0.00000  -0.00353  -0.00351   3.13354
   D68        3.13723  -0.00008   0.00000  -0.00008  -0.00030   3.13693
   D69        0.00088  -0.00005   0.00000   0.00019   0.00006   0.00093
   D70       -0.00213  -0.00000   0.00000   0.00180   0.00175  -0.00038
   D71       -3.13910  -0.00008   0.00000  -0.00018  -0.00008  -3.13918
   D72        3.13437  -0.00000   0.00000   0.00165   0.00152   3.13589
   D73       -0.00260  -0.00008   0.00000  -0.00032  -0.00031  -0.00291
   D74        0.00561   0.00003   0.00000   0.00008   0.00014   0.00575
   D75       -3.13590  -0.00002   0.00000  -0.00153  -0.00147  -3.13737
   D76       -3.14026  -0.00000   0.00000   0.00157   0.00161  -3.13865
   D77        0.00141  -0.00005   0.00000  -0.00005   0.00001   0.00142
   D78        0.00262  -0.00001   0.00000  -0.00063  -0.00058   0.00204
   D79        3.13883   0.00000   0.00000  -0.00115  -0.00116   3.13767
   D80       -3.13905   0.00004   0.00000   0.00096   0.00104  -3.13801
   D81       -0.00284   0.00005   0.00000   0.00044   0.00047  -0.00238
         Item               Value     Threshold  Converged?
 Maximum Force            0.054711     0.000450     NO 
 RMS     Force            0.008924     0.000300     NO 
 Maximum Displacement     0.336389     0.001800     NO 
 RMS     Displacement     0.066914     0.001200     NO 
 Predicted change in Energy=-1.851147D-02
 GradGradGradGradGradGradGradGradGradGradGradGradGradGradGradGradGradGrad

                          Input orientation:                          
 ---------------------------------------------------------------------
 Center     Atomic      Atomic             Coordinates (Angstroms)
 Number     Number       Type             X           Y           Z
 ---------------------------------------------------------------------
      1          6           0       -2.746574   -0.525027    0.269715
      2          6           0       -1.343592   -0.763181    0.838233
      3          6           0       -0.493593   -0.720226   -0.446213
      4          8           0       -1.205234   -1.958661    1.553534
      5          1           0       -1.073126    0.067852    1.495257
      6          8           0       -1.112395    0.231006   -1.287482
      7          1           0       -0.565353   -1.731943   -0.893323
      8          6           0        0.963653   -0.409892   -0.277567
      9          6           0       -2.492155    0.409281   -0.915679
     10          1           0       -3.420123   -0.076502    1.012155
     11          8           0       -3.216196   -1.807243   -0.144621
     12          6           0       -2.738698    1.875770   -0.609759
     13          1           0       -3.117610    0.102183   -1.770406
     14          8           0       -2.166141    2.285869    0.604541
     15          1           0       -3.823611    2.044533   -0.530135
     16          1           0       -2.369368    2.469942   -1.464110
     17          1           0       -4.160273   -1.760609   -0.312039
     18          1           0       -1.826528   -2.584675    1.157683
     19          1           0       -1.204318    2.148847    0.550535
     20          6           0        1.894077   -1.309166   -0.701824
     21          7           0        3.233022   -1.121350   -0.585874
     22          6           0        3.789805    0.032164   -0.028307
     23          7           0        2.826655    0.935241    0.379458
     24          6           0        1.444132    0.823847    0.305204
     25          1           0        1.546343   -2.237730   -1.153600
     26          1           0        3.891243   -1.819241   -0.908505
     27          1           0        3.188842    1.789636    0.787110
     28          8           0        4.979339    0.218175    0.081094
     29          8           0        0.766475    1.755341    0.735541
 ---------------------------------------------------------------------
                    Distance matrix (angstroms):
                    1          2          3          4          5
     1  C    0.000000
     2  C    1.532412   0.000000
     3  C    2.372041   1.540826   0.000000
     4  O    2.465609   1.399990   2.457467   0.000000
     5  H    2.157287   1.093366   2.173990   2.031651   0.000000
     6  O    2.380543   2.358076   1.412618   3.588124   2.787794
     7  H    2.750824   2.131301   1.108435   2.539284   3.033548
     8  C    3.752141   2.587123   1.499439   3.233526   2.742191
     9  C    1.530628   2.402098   2.343168   3.655179   2.818303
    10  H    1.098207   2.194027   3.332535   2.956577   2.400546
    11  O    1.426989   2.358540   2.947054   2.636404   3.286020
    12  C    2.556826   3.317689   3.436049   4.661996   3.236323
    13  H    2.166368   3.271237   3.052098   4.353485   3.853004
    14  O    2.889662   3.166687   3.596958   4.454208   2.628242
    15  H    2.898690   3.988255   4.328967   5.217580   3.946472
    16  H    3.481131   4.099522   3.838205   5.483969   4.025932
    17  H    1.965616   3.201824   3.813782   3.500263   4.017470
    18  H    2.424278   1.911313   2.797386   0.966746   2.778034
    19  H    3.099518   2.929518   3.119329   4.228195   2.289159
    20  C    4.805664   3.626621   2.472480   3.887701   3.940513
    21  N    6.069860   4.806430   3.750742   4.997627   4.928308
    22  C    6.566850   5.266425   4.369008   5.604999   5.096137
    23  N    5.762405   4.526155   3.800836   5.099927   4.147971
    24  C    4.402582   3.251797   2.589125   4.039780   2.885193
    25  H    4.836147   3.807023   2.639044   3.870095   4.381070
    26  H    6.864678   5.618706   4.544044   5.661727   5.829593
    27  H    6.391754   5.202158   4.623940   5.826238   4.650848
    28  O    7.763869   6.443274   5.577780   6.719795   6.217297
    29  O    4.214093   3.287229   3.018732   4.283755   2.609390
                    6          7          8          9         10
     6  O    0.000000
     7  H    2.075520   0.000000
     8  C    2.395966   2.113016   0.000000
     9  C    1.440054   2.880609   3.608440   0.000000
[...]
 3,-0.03193295,0.00251057,-0.00043007,0.03668753,0.02018825,0.01013743,
 -0.19186481,0.03745442,0.00889518,0.71255780,-0.00021389,-0.00014197,0
 .00014882,0.00082124,-0.00024417,-0.00122174,0.00187816,-0.00622821,-0
 .00255352,-0.00009943,0.00030928,0.00032104,-0.00016937,-0.00011328,0.
 00055055,-0.00054596,0.00169157,0.00015806,-0.00196165,-0.00033756,-0.
 00017174,-0.03752363,0.00788699,-0.00188023,0.00037417,-0.00030152,-0.
 00033601,-0.00015919,-0.00002171,0.00000797,0.00000032,0.00029056,0.00
 009625,-0.00055868,-0.00059989,-0.00112722,-0.00009331,0.00009404,0.00
 005420,0.00269587,0.00011316,0.00078944,0.00020618,0.00012158,0.000204
 69,-0.00000135,0.00003978,0.00014765,-0.00001427,0.00000218,0.00002343
 ,0.00011050,0.00004194,-0.00008579,-0.00384766,0.00089615,-0.00059851,
 0.01674082,-0.00322255,-0.00047990,0.01524642,-0.05152274,-0.02530769,
 0.07810182,-0.21322960,-0.06202346,0.01685258,0.72315448,-0.00012406,-
 0.00009275,0.00013681,-0.00022908,-0.00010696,-0.00052448,0.00105224,-
 0.00369329,0.00103221,-0.00003533,-0.00002154,0.00027026,-0.00006144,-
 0.00007512,0.00002023,0.00030284,0.00073026,0.00041372,-0.00086202,0.0
 0004318,-0.00026417,-0.01762465,-0.00234504,0.00840239,0.00026551,-0.0
 0009014,-0.00003006,-0.00008770,-0.00001370,-0.00000853,-0.00002124,0.
 00006624,0.00006323,-0.00033644,-0.00021048,-0.00055421,-0.00001331,0.
 00004153,0.00001254,0.00124249,0.00007341,0.00018238,0.00005009,0.0000
 5724,0.00008540,0.00000218,-0.00000017,0.00006389,0.00001016,0.0000023
 6,-0.00000570,0.00005359,0.00002545,-0.00004910,-0.00177795,0.00016574
 ,0.00038279,0.00589778,-0.00129921,-0.00004361,0.00770697,-0.02505174,
 -0.00127703,0.02710488,-0.06435729,-0.08405243,0.03611685,0.28498538,0
 .19059862,-0.00107651,-0.00061330,0.00079038,-0.00009624,-0.00331556,-
 0.00381465,-0.00477143,-0.03344231,-0.01108700,0.00060674,0.00219601,0
 .00013074,-0.00214260,-0.00058502,0.00280085,0.00155460,0.00466938,0.0
 0129605,-0.00596927,-0.00049103,-0.00005382,-0.13434933,-0.04287195,-0
 .02044853,-0.00109961,-0.00012846,-0.00079091,-0.00029492,0.00006708,-
 0.00013207,0.00083065,0.00127417,0.00047272,-0.00219072,-0.00094118,-0
 .00270331,0.00031539,0.00021875,0.00027151,0.00449457,-0.00036562,0.00
 117850,0.00055857,0.00015465,0.00018872,-0.00014098,0.00010212,0.00035
 574,-0.00015659,-0.00006059,0.00011607,-0.00003609,0.00012134,-0.00017
 543,-0.00764581,0.00371493,0.00105366,0.04819220,0.02359796,0.01234532
 ,-0.02505121,-0.02680233,-0.01272256,-0.04100745,0.06679597,0.02738084
 ,-0.23342109,-0.06012065,-0.03332413,0.67337316,0.00131418,0.00048935,
 -0.00113442,-0.00021539,0.00160023,0.00303396,-0.01774812,0.00415881,-
 0.00425810,0.00097772,-0.00227558,-0.00080557,0.00099663,0.00107234,-0
 .00198464,0.00448002,-0.00788791,-0.00024549,0.00160654,0.00064634,-0.
 00061629,-0.05171142,-0.17763675,-0.04326292,-0.00115151,0.00093434,0.
 00133656,0.00079670,0.00006489,-0.00000313,-0.00002663,-0.00109768,-0.
 00026656,0.00309828,0.00244515,0.00445444,0.00032667,-0.00042648,-0.00
 020322,-0.01084847,-0.00037266,-0.00257667,-0.00075458,-0.00054035,-0.
 00067177,0.00004576,-0.00019027,-0.00053207,0.00001639,-0.00001481,0.0
 0000118,-0.00050975,-0.00026479,0.00031516,0.01561067,-0.00431472,0.00
 039500,0.04225753,-0.03365430,-0.01377791,-0.03342703,-0.01821052,-0.0
 0759736,0.01474438,0.04513222,0.02604017,-0.02410392,-0.14110066,-0.03
 819970,-0.15502264,0.76069248,0.00078663,-0.00006196,-0.00051464,0.000
 06735,0.00169029,0.00276706,-0.00876635,0.00097227,-0.00115114,0.00038
 263,-0.00075433,-0.00084782,0.00133060,0.00043355,-0.00110510,0.003355
 75,-0.00435882,-0.00023739,0.00063409,-0.00047914,0.00109423,-0.023206
 94,-0.04324402,-0.10241793,-0.00146431,0.00054715,0.00089918,0.0003394
 5,0.00006520,-0.00004689,-0.00016422,-0.00034705,-0.00032260,0.0015275
 8,0.00107014,0.00227135,0.00036666,-0.00018102,-0.00009786,-0.00530704
 ,-0.00019631,-0.00112035,-0.00027887,-0.00026069,-0.00038073,-0.000005
 40,0.00002306,-0.00030182,-0.00002112,-0.00006789,0.00001377,-0.000188
 68,-0.00019187,0.00010396,0.00748381,-0.00140347,-0.00034021,0.0196916
 3,-0.01542774,-0.00304646,-0.01455124,-0.00643943,-0.00775541,0.005049
 40,0.02711334,-0.00226388,-0.01772319,-0.04023047,-0.07143021,-0.05298
 849,0.23792894,0.30705943,-0.00005274,0.00009415,0.00011943,-0.0004183
 8,-0.00010839,-0.00024257,0.00103674,0.00310035,0.00128090,0.00012034,
 -0.00010361,-0.00014427,0.00009407,0.00001846,-0.00016278,0.00020353,-
 0.00095773,0.00025587,-0.00042030,-0.00085538,-0.00039199,0.00981289,0
 .01722595,0.00764888,-0.00023062,0.00007823,0.00009397,-0.00000282,-0.
 00000076,-0.00002886,0.00005909,-0.00002572,-0.00004092,0.00003378,0.0
 0005933,0.00005548,0.00003473,0.00000957,0.00000075,-0.00010968,-0.000
 06044,-0.00005079,0.00000730,-0.00001286,-0.00001522,-0.00000566,-0.00
 000296,0.00000327,-0.00000822,-0.00001815,-0.00000781,-0.00009098,0.00
 000069,0.00008719,0.00018038,-0.00000224,0.00001948,-0.07182770,-0.055
 52583,-0.02638080,-0.01065120,-0.03377849,-0.01507550,-0.00400848,0.00
 439235,0.00153702,0.00095797,-0.00028750,-0.00003759,-0.00441003,0.001
 47602,-0.00002317,0.08009821,-0.00002441,0.00003151,0.00019719,-0.0001
 9984,0.00048623,-0.00048721,-0.00249818,-0.00083690,0.00236598,-0.0000
 2159,-0.00018212,0.00014743,-0.00010595,-0.00001286,0.00012460,0.00024
 326,0.00010980,0.00003227,0.00096382,0.00077776,0.00020634,-0.00666548
 ,-0.01135853,-0.00903332,0.00016715,-0.00000386,0.00011143,-0.00007794
 ,-0.00000613,-0.00002920,-0.00004998,-0.00003841,-0.00000444,-0.000058
 38,-0.00004049,-0.00007179,0.00003222,-0.00000522,-0.00002290,0.000117
 25,0.00005163,0.00005729,0.00000027,0.00001137,0.00001497,0.00000228,0
 .00000096,0.00001034,0.00000688,0.00001054,-0.00000196,0.00001575,0.00
 005968,-0.00000383,-0.00019682,0.00001251,-0.00003755,-0.06155296,-0.2
 8453891,-0.10955132,0.00032928,-0.00068681,-0.00140972,0.00009958,0.00
 303033,-0.00029906,0.00034134,0.00022035,0.00037522,0.00376145,0.00102
 224,-0.00408862,0.06618327,0.29375397,0.00013244,-0.00006129,-0.000328
 04,0.00076204,-0.00068716,0.00086728,0.00054147,0.00214305,-0.00490676
 ,-0.00043269,0.00048983,-0.00003480,-0.00001286,0.00004446,-0.00001088
 ,-0.00118522,0.00040962,0.00022069,0.00044010,-0.00013700,0.00009996,-
 0.00309492,-0.00769873,0.00533123,0.00004850,0.00013780,-0.00024339,0.
 00008963,-0.00000746,0.00005281,-0.00003793,0.00004196,-0.00002780,-0.
 00008601,-0.00002233,-0.00000373,-0.00006436,0.00001465,0.00000917,0.0
 0003703,0.00001886,0.00000370,0.00000264,0.00002563,0.00001793,-0.0000
 0213,0.00000510,-0.00000642,-0.00000488,0.00001601,0.00000833,0.000153
 36,-0.00003756,-0.00002246,-0.00007864,-0.00000020,0.00001969,-0.02920
 072,-0.10886935,-0.09036451,-0.00038848,-0.00350608,0.00163630,-0.0004
 6381,-0.00020163,0.00389191,0.00023451,0.00041471,-0.00044199,0.001041
 67,-0.00413443,0.00919690,0.03175167,0.12026060,0.07942148,-0.00006066
 ,0.00001986,-0.00000654,-0.00009642,-0.00005174,-0.00012909,0.00002785
 ,0.00104913,0.00037671,0.00005857,-0.00003415,0.00001587,-0.00002430,-
 0.00001096,0.00002355,-0.00020752,0.00000415,0.00005548,-0.00000870,-0
 .00003245,-0.00001730,-0.00303053,-0.00461742,-0.00235600,-0.00008043,
 -0.00001357,-0.00005644,-0.00000691,-0.00000262,-0.00000329,0.00004078
 ,0.00001492,0.00001021,-0.00005313,-0.00002811,-0.00007538,-0.00001548
 ,0.00001596,0.00001622,0.00015728,-0.00000215,0.00004704,0.00002090,0.
 00000761,0.00000635,-0.00000505,0.00000199,0.00001083,-0.00000774,-0.0
 0000727,0.00000267,-0.00003665,0.00000156,0.00001281,-0.00022702,0.000
 04140,-0.00001529,-0.01683263,0.02363651,0.00972183,-0.24447711,0.1840
 9939,0.06713812,0.01967729,-0.00794821,-0.00240714,-0.00137124,-0.0038
 8025,-0.00189427,-0.00084820,0.00040094,0.00014156,0.00060904,-0.00035
 854,-0.00003089,0.24881463,0.00005703,0.00008752,0.00011849,0.00004425
 ,0.00026887,-0.00031108,0.00055348,0.00088493,-0.00015521,-0.00001494,
 -0.00026999,0.00012926,0.00002178,-0.00000933,-0.00001086,-0.00088044,
 0.00012649,-0.00008464,-0.00005752,-0.00007871,-0.00005021,-0.00351518
 ,0.00200931,-0.00064306,0.00024422,-0.00004632,-0.00017624,-0.00004977
 ,-0.00001040,-0.00000310,-0.00010869,-0.00013973,-0.00002305,-0.000005
 07,-0.00001528,0.00004004,-0.00010110,0.00000101,-0.00000370,-0.000114
 18,0.00004399,-0.00000191,-0.00002789,0.00001717,0.00000886,0.00001285
 ,-0.00000512,-0.00000823,0.00002508,0.00003018,-0.00000640,-0.00000535
 ,0.00006924,-0.00001399,0.00018021,-0.00006722,-0.00000749,-0.00564575
 ,0.01011835,0.00690788,0.18183662,-0.25241707,-0.09538666,0.02620073,-
 0.01750550,-0.00587814,-0.00357839,-0.00370982,-0.00327331,-0.00168299
 ,-0.00229048,-0.00075357,-0.00049489,0.00025981,0.00080748,-0.19271762
 ,0.25872541,-0.00004025,0.00003502,0.00020807,-0.00048076,-0.00009839,
 -0.00036877,-0.00040480,-0.00049165,0.00196578,-0.00005951,-0.00001419
 ,0.00001090,0.00005283,0.00000120,-0.00003965,0.00047256,-0.00000490,-
 0.00004917,0.00003583,-0.00008312,-0.00001692,-0.00141807,-0.00076134,
 0.00284061,0.00002971,-0.00001628,0.00015002,-0.00006592,0.00000322,-0
 .00003135,-0.00006774,-0.00003279,-0.00006993,0.00003111,-0.00000774,0
 .00005965,0.00001781,-0.00000243,-0.00002803,-0.00006645,0.00003693,-0
 .00005873,-0.00000926,-0.00000178,-0.00000315,0.00000458,0.00001447,-0
 .00001514,0.00000888,0.00000430,0.00001248,0.00003910,0.00001601,0.000
 01820,0.00007564,-0.00003834,0.00001526,-0.00293469,0.00864851,-0.0030
 9288,0.06599365,-0.09535984,-0.04649000,0.01224733,-0.00740963,-0.0033
 1330,-0.00165815,-0.00327309,0.00199718,-0.00079976,-0.00072137,-0.000
 97294,-0.00016712,0.00075109,-0.00135162,-0.07080362,0.09583156,0.0503
 1357,-0.00005593,-0.00004410,0.00000401,0.00014249,-0.00008405,-0.0001
 9891,0.00057703,-0.00174043,-0.00059060,0.00000724,0.00007355,0.000059
 81,-0.00004176,-0.00001846,0.00010223,0.00007000,0.00034512,0.00009170
 ,-0.00054084,-0.00009266,-0.00004619,-0.00641714,0.00138521,0.00027987
 ,0.00003803,-0.00004372,-0.00004303,-0.00002335,-0.00000218,0.00000111
 ,0.00002208,0.00007015,0.00002799,-0.00013905,-0.00010079,-0.00022149,
 -0.00000249,0.00001858,0.00001417,0.00045520,0.00003685,0.00014239,0.0
 0004172,0.00002119,0.00003050,-0.00000445,0.00000515,0.00003002,-0.000
 00782,-0.00000412,0.00000741,0.00000858,0.00000656,-0.00001939,-0.0006
 2505,0.00012219,-0.00005244,-0.00151419,0.00029139,0.00011659,-0.00442
 935,0.00472351,0.00156846,0.02018855,0.02293558,0.01100476,-0.11295241
 ,-0.10843651,-0.05159396,-0.00436940,-0.03525270,-0.01584082,0.0000435
 1,-0.00003817,0.00000552,0.00086580,0.00118840,0.00050005,0.10655179,-
 0.00002421,-0.00000175,-0.00005145,-0.00004415,-0.00006934,0.00011565,
 0.00005073,0.00024090,-0.00018105,0.00008430,0.00004206,-0.00002265,-0
 .00005829,0.00000142,0.00002363,0.00024003,-0.00007619,0.00002606,0.00
 002173,-0.00001727,0.00005706,0.00048136,0.00212984,-0.00096794,-0.000
 16399,0.00003682,0.00003329,0.00002802,0.00000435,-0.00000127,0.000079
 27,0.00002248,0.00002494,0.00000103,0.00002957,-0.00006615,0.00003396,
 -0.00000111,0.00001079,0.00015937,-0.00014416,0.00000325,0.00002157,-0
 .00000653,0.00000429,-0.00000479,-0.00000134,0.00002574,-0.00001216,-0
 .00000816,0.00000227,-0.00003810,-0.00001587,0.00000489,-0.00032206,0.
 00019596,0.00003325,0.00027256,0.00038916,0.00048432,0.00417155,0.0001
 1971,-0.00160172,-0.00917114,-0.01793659,-0.00788630,-0.10478546,-0.34
 235707,-0.14602414,-0.00500479,0.00269419,0.00038380,-0.00007646,-0.00
 007745,0.00014709,-0.00049491,-0.00033270,-0.00056956,0.11443473,0.355
 43014,-0.00001864,-0.00002083,-0.00001682,0.00003064,-0.00000723,0.000
 13498,0.00008861,-0.00026625,0.00023085,0.00001258,0.00006170,-0.00009
 750,-0.00000774,-0.00005029,0.00003901,0.00008834,0.00012102,-0.000081
 18,-0.00001852,0.00004245,-0.00007475,-0.00023700,-0.00088283,0.003980
 25,-0.00007774,-0.00000675,-0.00000100,0.00001866,-0.00000001,0.000000
 06,0.00001633,0.00003225,-0.00002534,0.00001472,-0.00002210,0.00005467
 ,0.00000861,-0.00000113,-0.00000032,0.00003214,-0.00001344,-0.00005327
 ,0.00001209,0.00000136,-0.00000415,-0.00001027,0.00001374,-0.00002604,
 -0.00000880,-0.00000618,0.00001221,-0.00000867,-0.00000256,0.00001465,
 -0.00010302,0.00005478,0.00000556,0.00012951,0.00050243,-0.00050907,0.
 00125619,-0.00161680,0.00363824,-0.00303398,-0.00579412,-0.00356885,-0
 .05021432,-0.14695635,-0.08467216,-0.00223252,-0.00086433,0.00091518,-
 0.00000982,0.00014369,-0.00035979,-0.00021506,-0.00048737,0.00075734,0
 .05406559,0.15264609,0.08623585,0.00035351,0.00036088,0.00089227,-0.00
 028950,0.00125619,-0.00203501,0.00278837,-0.00026740,0.00199396,-0.000
 47710,-0.00106145,0.00078633,0.00021572,-0.00001853,-0.00020700,-0.002
 95657,0.00085744,-0.00051558,-0.00026300,-0.00018093,-0.00003261,-0.00
 174389,-0.00363224,-0.00161777,0.00167345,-0.00035806,-0.00054873,-0.0
 0036210,-0.00001928,-0.00004935,-0.00081570,-0.00066120,-0.00019809,0.
 00016778,-0.00008570,0.00061655,-0.00044299,-0.00002898,-0.00010019,-0
 .00142270,0.00053354,-0.00027226,-0.00023744,0.00005743,0.00000363,0.0
 0009254,0.00000921,-0.00013426,0.00018345,0.00015430,-0.00003541,0.000
 29153,0.00025063,-0.00012946,0.00217290,-0.00084302,0.00006017,0.00078
 329,-0.00163329,-0.00106911,-0.04176372,-0.04275825,-0.02132121,-0.672
 05417,-0.09088554,-0.06730556,-0.08547506,0.01826648,0.00256626,0.0173
 8594,0.00478781,0.00247551,-0.00165241,-0.00010201,-0.00012298,-0.0035
 9099,-0.00124529,-0.00054330,-0.00214455,-0.00176504,-0.00063095,0.799
 04980,-0.00003103,0.00002742,0.00043179,-0.00032631,0.00015637,-0.0010
 4096,0.00090142,0.00052203,0.00152616,-0.00012481,-0.00011100,0.000243
 79,-0.00000457,-0.00005315,0.00005669,-0.00126290,0.00070619,-0.000182
 44,0.00019495,0.00010995,0.00004842,-0.00199850,0.00595039,0.00298183,
 0.00050195,-0.00017447,-0.00030140,-0.00017308,-0.00001010,-0.00003015
 ,-0.00016661,-0.00004126,-0.00003783,-0.00019873,-0.00023025,-0.000231
 24,-0.00015010,0.00003312,0.00000494,0.00045933,0.00026631,0.00017653,
 0.00001086,0.00005596,0.00005720,0.00001435,0.00001999,0.00000601,0.00
 003789,0.00002173,-0.00001210,0.00011000,0.00005224,-0.00002823,-0.000
 64480,-0.00007315,-0.00004707,0.01333145,-0.00551443,-0.00385364,-0.06
 867959,-0.01004654,-0.01660562,-0.09205120,-0.11515684,-0.01868748,0.0
 4751133,0.02066787,0.00208737,-0.01276605,-0.00906885,-0.00719417,-0.0
 0198049,-0.00032110,-0.00014265,0.00147282,0.00320805,0.00297933,-0.00
 359862,0.00216832,0.00228754,0.11447955,0.10682004,0.00000362,0.000051
 49,0.00019903,-0.00011293,0.00015345,-0.00056647,0.00064503,0.00051108
 ,0.00017110,-0.00003334,-0.00015819,0.00022097,-0.00001770,-0.00001449
 ,0.00002221,-0.00079340,0.00028697,0.00002432,0.00009431,-0.00004116,0
 .00001482,-0.00093853,0.00295473,0.00011870,0.00033000,-0.00007823,-0.
 00018786,-0.00008968,-0.00000410,-0.00000846,-0.00008703,-0.00007058,0
 .00001921,-0.00007484,-0.00008815,-0.00010598,-0.00009071,0.00001291,0
 .00000196,0.00010040,0.00010050,0.00014644,-0.00000848,0.00002660,0.00
 002857,0.00001347,-0.00000618,0.00001440,0.00002760,0.00002167,-0.0000
 1758,0.00004533,0.00003735,-0.00003982,-0.00010734,-0.00002492,-0.0001
 3722,0.00551147,-0.00454684,0.00325128,-0.03241564,-0.01531959,0.01262
 135,-0.06787843,-0.01868126,-0.09279268,0.01504429,0.00074377,0.021907
 24,-0.00479022,-0.00682011,0.00430075,-0.00094005,-0.00007991,-0.00032
 406,0.00063594,0.00287505,-0.00240902,-0.00147516,0.00244644,-0.002686
 50,0.08574411,0.03473323,0.05731981,0.00124083,0.00071043,-0.00076917,
 -0.00011773,0.00195726,0.00307964,-0.00547417,0.00557547,-0.00122315,-
 0.00003762,-0.00237961,-0.00022695,-0.00015211,-0.00079046,-0.00196289
 ,0.00107391,-0.00629907,-0.00212102,0.00086234,-0.00029808,-0.00020721
 ,0.01577781,0.01660627,0.00738130,0.00009266,0.00075033,0.00089862,0.0
 0042098,0.00005836,-0.00001302,-0.00061371,-0.00127463,-0.00030701,0.0
 0223435,0.00223811,0.00583255,-0.00000976,-0.00042420,-0.00027792,-0.0
 1592064,0.00242407,-0.00318578,-0.00107278,-0.00044409,-0.00111323,-0.
 00000875,-0.00007806,-0.00085414,0.00014369,0.00011208,-0.00002986,-0.
 00009460,-0.00013100,0.00012054,0.00287546,-0.00495276,-0.00082329,-0.
 00047310,-0.00634524,-0.00273199,-0.00034318,0.00838497,0.00356410,0.0
 0836203,-0.02278164,-0.00921915,-0.08562890,0.06661876,0.02565132,-0.2
 7823433,0.23783592,0.09689719,0.00059762,-0.00031355,-0.00003407,0.000
 70857,-0.00011957,0.00001032,0.00425577,0.00188536,0.00105303,-0.00946
 638,0.00513148,0.00165794,0.35900174,-0.00046688,-0.00069829,0.0007373
 5,-0.00048877,-0.00011706,-0.00076423,0.00769832,-0.00077667,0.0041707
 3,-0.00086853,0.00048059,0.00022215,-0.00122053,-0.00202402,0.00037109
 ,-0.00403355,0.00385925,-0.00121399,-0.00014111,0.00049998,0.00024853,
 0.03099100,-0.04986840,-0.03067093,0.00164276,-0.00077492,-0.00070895,
 -0.00055950,-0.00013205,0.00002959,-0.00024103,0.00078903,-0.00002040,
 -0.00197445,-0.00229917,-0.00435990,-0.00032793,0.00040327,0.00015099,
 0.01222284,0.00239286,0.00246295,0.00071414,0.00050864,0.00075933,-0.0
 0014249,0.00011559,0.00045381,-0.00001950,-0.00008157,-0.00001683,0.00
 042286,-0.00004652,-0.00007762,-0.01389784,-0.00048846,0.00006223,-0.0
 1970197,-0.00026511,-0.00270580,0.01087105,0.00223631,0.00145911,-0.00
 596540,0.00069286,-0.00332202,0.04218440,0.00760083,-0.00379878,0.2375
 4066,-0.42160576,-0.14454719,0.00165352,-0.00172991,0.00052903,-0.0005
 6627,0.00104733,0.00056481,0.00379835,-0.00245942,0.00109152,0.0045327
 6,0.00001515,0.00097846,-0.30365692,0.46272565,-0.00069392,0.00039771,
 0.00022288,0.00071960,-0.00136882,-0.00225818,0.00300005,0.00172841,-0
 .00099931,-0.00000027,0.00083681,0.00068852,-0.00057245,0.00014978,0.0
 0099895,-0.00389538,-0.00099327,-0.00115115,-0.00006911,0.00008872,0.0
 0012196,0.01323933,-0.03108919,0.00848129,0.00164999,-0.00015521,-0.00
 071262,-0.00021607,-0.00002981,0.00001892,0.00034284,0.00015407,0.0004
 0094,-0.00004007,-0.00085384,-0.00143560,-0.00033829,0.00010547,0.0001
 0581,0.00288595,0.00018692,0.00370229,0.00017961,0.00018105,0.00032009
 ,0.00016186,-0.00008055,0.00037617,0.00002983,0.00008356,-0.00001954,0
 .00000899,0.00016821,-0.00010662,-0.00467949,0.00107319,-0.00473100,-0
 .00873969,-0.00167022,0.00226510,0.00453483,0.00107496,0.00074553,-0.0
 0272673,-0.00322879,0.00553851,0.01520432,-0.00240023,0.01778479,0.096
 64063,-0.14482935,-0.13426842,0.00086535,0.00032235,-0.00235113,-0.000
 20490,0.00055960,-0.00003848,0.00202981,0.00089937,-0.00384214,0.00173
 006,0.00077413,-0.00110652,-0.12104669,0.17791498,0.11124895\\-0.00000
 242,0.00000112,0.00000105,0.00000214,-0.00000064,0.00000004,0.00001494
 ,0.00000064,0.00001963,0.00000197,0.00000427,0.00000460,0.00000044,-0.
 00000524,-0.00000112,-0.00000623,0.00000977,-0.00000731,-0.00000303,-0
 .00000187,0.00000184,-0.00000386,-0.00001623,-0.00000723,0.00000513,-0
 .00001040,-0.00000392,0.00000051,0.00000054,-0.00000172,-0.00000768,0.
 00000166,-0.00001053,-0.00002065,0.00000471,-0.00002005,-0.00000124,-0
 .00000490,0.00000088,0.00001371,-0.00001010,0.00002492,0.00000461,0.00
 000788,-0.00000287,0.00000716,-0.00000710,-0.00000062,-0.00000108,-0.0
 0000194,0.00000140,0.00000141,0.00000479,-0.00000169,-0.00000191,0.000
 00942,-0.00000661,-0.00000878,-0.00000693,-0.00000078,0.00000893,-0.00
 000163,-0.00000706,-0.00001507,-0.00000586,0.00000172,0.00001185,0.000
 00968,-0.00000927,-0.00002552,0.00002966,0.00001715,-0.00000533,0.0000
 0176,0.00000260,0.00000199,-0.00000268,0.00000319,-0.00000376,-0.00000
 033,0.00000359,0.00001467,0.00000790,0.00000711,0.00001707,-0.00001797
 ,-0.00000893\\\@
 The archive entry for this job was punched.


 HO!  SUCH BUGS AND GOBLINS IN MY LIFE!

                            -- HAMLET, ACT 5, SCENE 2
 Job cpu time:       0 days 10 hours 47 minutes 54.0 seconds.
 Elapsed time:       0 days  0 hours 16 minutes 20.2 seconds.
 File lengths (MBytes):  RWF=    632 Int=      0 D2E=      0 Chk=     21 Scr=      1
 Normal termination of Gaussian 16 at Thu Oct 24 11:56:04 2024.
