 Entering Gaussian System, Link 0=g16
 Input=PseudoUridineAnSarrgPBE0aVDZ.gjf
 Output=PseudoUridineAnSarrgPBE0aVDZ.log
 Initial command:
 /sw/contrib/chem-src/g16/c01/g16/l1.exe "/scr/Gau-53393.inp" -scrdir="/scr/"
 Entering Link 1 = /sw/contrib/chem-src/g16/c01/g16/l1.exe PID=     53394.
  
 Copyright (c) 1988-2019, Gaussian, Inc.  All Rights Reserved.
  
 This is part of the Gaussian(R) 16 program.  It is based on
 the Gaussian(R) 09 system (copyright 2009, Gaussian, Inc.),
 the Gaussian(R) 03 system (copyright 2003, Gaussian, Inc.),
 the Gaussian(R) 98 system (copyright 1998, Gaussian, Inc.),
 the Gaussian(R) 94 system (copyright 1995, Gaussian, Inc.),
 the Gaussian 92(TM) system (copyright 1992, Gaussian, Inc.),
 the Gaussian 90(TM) system (copyright 1990, Gaussian, Inc.),
 the Gaussian 88(TM) system (copyright 1988, Gaussian, Inc.),
 the Gaussian 86(TM) system (copyright 1986, Carnegie Mellon
 University), and the Gaussian 82(TM) system (copyright 1983,
 Carnegie Mellon University). Gaussian is a federally registered
 trademark of Gaussian, Inc.
  
 This software contains proprietary and confidential information,
 including trade secrets, belonging to Gaussian, Inc.
  
 This software is provided under written license and may be
 used, copied, transmitted, or stored only in accord with that
 written license.
  
 The following legend is applicable only to US Government
 contracts under FAR:
  
                    RESTRICTED RIGHTS LEGEND
  
 Use, reproduction and disclosure by the US Government is
 subject to restrictions as set forth in subparagraphs (a)
 and (c) of the Commercial Computer Software - Restricted
 Rights clause in FAR 52.227-19.
  
 Gaussian, Inc.
 340 Quinnipiac St., Bldg. 40, Wallingford CT 06492
  
  
 ---------------------------------------------------------------
 Warning -- This program may not be used in any manner that
 competes with the business of Gaussian, Inc. or will provide
 assistance to any competitor of Gaussian, Inc.  The licensee
 of this program is prohibited from giving any competitor of
 Gaussian, Inc. access to this program.  By using this program,
 the user acknowledges that Gaussian, Inc. is engaged in the
 business of creating and licensing software in the field of
 computational chemistry and represents and warrants to the
 licensee that it is not a competitor of Gaussian, Inc. and that
 it will not use this program in any manner prohibited above.
 ---------------------------------------------------------------
  

 Cite this work as:
 Gaussian 16, Revision C.01,
 M. J. Frisch, G. W. Trucks, H. B. Schlegel, G. E. Scuseria, 
 M. A. Robb, J. R. Cheeseman, G. Scalmani, V. Barone, 
 G. A. Petersson, H. Nakatsuji, X. Li, M. Caricato, A. V. Marenich, 
 J. Bloino, B. G. Janesko, R. Gomperts, B. Mennucci, H. P. Hratchian, 
 J. V. Ortiz, A. F. Izmaylov, J. L. Sonnenberg, D. Williams-Young, 
 F. Ding, F. Lipparini, F. Egidi, J. Goings, B. Peng, A. Petrone, 
 T. Henderson, D. Ranasinghe, V. G. Zakrzewski, J. Gao, N. Rega, 
 G. Zheng, W. Liang, M. Hada, M. Ehara, K. Toyota, R. Fukuda, 
 J. Hasegawa, M. Ishida, T. Nakajima, Y. Honda, O. Kitao, H. Nakai, 
 T. Vreven, K. Throssell, J. A. Montgomery, Jr., J. E. Peralta, 
 F. Ogliaro, M. J. Bearpark, J. J. Heyd, E. N. Brothers, K. N. Kudin, 
 V. N. Staroverov, T. A. Keith, R. Kobayashi, J. Normand, 
 K. Raghavachari, A. P. Rendell, J. C. Burant, S. S. Iyengar, 
 J. Tomasi, M. Cossi, J. M. Millam, M. Klene, C. Adamo, R. Cammi, 
 J. W. Ochterski, R. L. Martin, K. Morokuma, O. Farkas, 
 J. B. Foresman, and D. J. Fox, Gaussian, Inc., Wallingford CT, 2019.
 
 ******************************************
 Gaussian 16:  EM64L-G16RevC.01  3-Jul-2019
                28-Oct-2024 
 ******************************************
 %nprocshared=40
 Will use up to   40 processors via shared memory.
 %mem=50gb
 ------------------------------------------------------
 # PBE1PBE/aug-cc-pVDZ opt freq EmpiricalDispersion=GD3
 ------------------------------------------------------
 1/18=20,19=15,26=3,38=1/1,3;
 2/9=110,12=2,17=6,18=5,40=1/2;
 3/5=16,7=10,11=2,25=1,30=1,71=1,74=-13,124=31/1,2,3;
 4//1;
 5/5=2,38=5/2;
 6/7=2,8=2,9=2,10=2,28=1/1;
 7//1,2,3,16;
 1/18=20,19=15,26=3/3(2);
 2/9=110/2;
 99//99;
 2/9=110/2;
 3/5=16,7=10,11=2,25=1,30=1,71=1,74=-13,124=31/1,2,3;
 4/5=5,16=3,69=1/1;
 5/5=2,38=5/2;
 7//1,2,3,16;
 1/18=20,19=15,26=3/3(-5);
 2/9=110/2;
 6/7=2,8=2,9=2,10=2,19=2,28=1/1;
 99/9=1/99;
 ----
 blah
 ----
 Symbolic Z-matrix:
 Charge =  0 Multiplicity = 2
 C                    -2.73662  -0.45178   0.2924 
 C                    -1.34053  -0.76952   0.83016 
 C                    -0.4913   -0.77861  -0.45509 
 O                    -1.27408  -1.97299   1.5591 
 H                    -1.00516   0.03841   1.48665 
 O                    -1.12762   0.14939  -1.34115 
 H                    -0.57273  -1.79637  -0.88664 
 C                     0.95307  -0.45051  -0.293 
 C                    -2.44479   0.45755  -0.89801 
 H                    -3.3739    0.03731   1.04287 
 O                    -3.30917  -1.705    -0.10616 
 C                    -2.55184   1.94212  -0.56832 
 H                    -3.14885   0.23502  -1.72573 
 O                    -1.93183   2.29617   0.62878 
 H                    -3.62233   2.201    -0.48156 
 H                    -2.14382   2.49827  -1.43447 
 H                    -4.0397   -1.52403  -0.70201 
 H                    -1.80771  -2.61233   1.07176 
 H                    -0.96275   2.06161   0.57894 
 C                     1.89366  -1.33911  -0.69236 
 N                     3.21223  -1.0691   -0.53739 
 C                     3.67878   0.14152   0.0338 
 N                     2.75924   1.03946   0.43194 
 C                     1.43186   0.8157    0.30356 
 H                     1.63541  -2.29835  -1.146 
 H                     3.9278   -1.71998  -0.8213 
 O                     4.90777   0.2666    0.11512 
 O                     0.6049    1.67617   0.69889 
 

 GradGradGradGradGradGradGradGradGradGradGradGradGradGradGradGradGradGrad
 Berny optimization.
 Initialization pass.
                           ----------------------------
                           !    Initial Parameters    !
                           ! (Angstroms and Degrees)  !
 --------------------------                            --------------------------
 ! Name  Definition              Value          Derivative Info.                !
 --------------------------------------------------------------------------------
 ! R1    R(1,2)                  1.5295         estimate D2E/DX2                !
 ! R2    R(1,9)                  1.5261         estimate D2E/DX2                !
 ! R3    R(1,10)                 1.0993         estimate D2E/DX2                !
 ! R4    R(1,11)                 1.4343         estimate D2E/DX2                !
 ! R5    R(2,3)                  1.5405         estimate D2E/DX2                !
 ! R6    R(2,4)                  1.4086         estimate D2E/DX2                !
 ! R7    R(2,5)                  1.0937         estimate D2E/DX2                !
 ! R8    R(3,6)                  1.4322         estimate D2E/DX2                !
 ! R9    R(3,7)                  1.1085         estimate D2E/DX2                !
 ! R10   R(3,8)                  1.49           estimate D2E/DX2                !
 ! R11   R(4,18)                 0.9649         estimate D2E/DX2                !
 ! R12   R(6,9)                  1.4235         estimate D2E/DX2                !
 ! R13   R(8,20)                 1.3542         estimate D2E/DX2                !
 ! R14   R(8,24)                 1.4793         estimate D2E/DX2                !
 ! R15   R(9,12)                 1.5245         estimate D2E/DX2                !
 ! R16   R(9,13)                 1.1092         estimate D2E/DX2                !
 ! R17   R(11,17)                0.9599         estimate D2E/DX2                !
 ! R18   R(12,14)                1.3938         estimate D2E/DX2                !
 ! R19   R(12,15)                1.1048         estimate D2E/DX2                !
 ! R20   R(12,16)                1.1072         estimate D2E/DX2                !
 ! R21   R(14,19)                0.9983         estimate D2E/DX2                !
 ! R22   R(20,21)                1.3548         estimate D2E/DX2                !
 ! R23   R(20,25)                1.0921         estimate D2E/DX2                !
 ! R24   R(21,22)                1.4176         estimate D2E/DX2                !
 ! R25   R(21,26)                1.0081         estimate D2E/DX2                !
 ! R26   R(22,23)                1.3455         estimate D2E/DX2                !
 ! R27   R(22,27)                1.238          estimate D2E/DX2                !
 ! R28   R(23,24)                1.3522         estimate D2E/DX2                !
 ! R29   R(24,28)                1.2572         estimate D2E/DX2                !
 ! A1    A(2,1,9)              102.914          estimate D2E/DX2                !
 ! A2    A(2,1,10)             112.4293         estimate D2E/DX2                !
 ! A3    A(2,1,11)             106.2936         estimate D2E/DX2                !
 ! A4    A(9,1,10)             112.2254         estimate D2E/DX2                !
 ! A5    A(9,1,11)             112.3463         estimate D2E/DX2                !
 ! A6    A(10,1,11)            110.3047         estimate D2E/DX2                !
 ! A7    A(1,2,3)              102.1858         estimate D2E/DX2                !
 ! A8    A(1,2,4)              113.7353         estimate D2E/DX2                !
 ! A9    A(1,2,5)              109.7239         estimate D2E/DX2                !
 ! A10   A(3,2,4)              113.6222         estimate D2E/DX2                !
 ! A11   A(3,2,5)              109.6399         estimate D2E/DX2                !
 ! A12   A(4,2,5)              107.8209         estimate D2E/DX2                !
 ! A13   A(2,3,6)              105.5102         estimate D2E/DX2                !
 ! A14   A(2,3,7)              106.8425         estimate D2E/DX2                !
 ! A15   A(2,3,8)              116.2523         estimate D2E/DX2                !
 ! A16   A(6,3,7)              108.7496         estimate D2E/DX2                !
 ! A17   A(6,3,8)              110.8122         estimate D2E/DX2                !
 ! A18   A(7,3,8)              108.4055         estimate D2E/DX2                !
 ! A19   A(2,4,18)             106.1797         estimate D2E/DX2                !
 ! A20   A(3,6,9)              111.0259         estimate D2E/DX2                !
 ! A21   A(3,8,20)             119.784          estimate D2E/DX2                !
 ! A22   A(3,8,24)             123.0989         estimate D2E/DX2                !
 ! A23   A(20,8,24)            117.115          estimate D2E/DX2                !
 ! A24   A(1,9,6)              106.9045         estimate D2E/DX2                !
 ! A25   A(1,9,12)             113.4606         estimate D2E/DX2                !
 ! A26   A(1,9,13)             109.947          estimate D2E/DX2                !
 ! A27   A(6,9,12)             110.0667         estimate D2E/DX2                !
 ! A28   A(6,9,13)             108.1555         estimate D2E/DX2                !
 ! A29   A(12,9,13)            108.1904         estimate D2E/DX2                !
 ! A30   A(1,11,17)            108.1526         estimate D2E/DX2                !
 ! A31   A(9,12,14)            113.6942         estimate D2E/DX2                !
 ! A32   A(9,12,15)            108.2534         estimate D2E/DX2                !
 ! A33   A(9,12,16)            107.1028         estimate D2E/DX2                !
 ! A34   A(14,12,15)           107.701          estimate D2E/DX2                !
 ! A35   A(14,12,16)           112.3543         estimate D2E/DX2                !
 ! A36   A(15,12,16)           107.5053         estimate D2E/DX2                !
 ! A37   A(12,14,19)           109.2226         estimate D2E/DX2                !
 ! A38   A(8,20,21)            120.763          estimate D2E/DX2                !
 ! A39   A(8,20,25)            122.3184         estimate D2E/DX2                !
 ! A40   A(21,20,25)           116.9183         estimate D2E/DX2                !
 ! A41   A(20,21,22)           122.4523         estimate D2E/DX2                !
 ! A42   A(20,21,26)           122.0008         estimate D2E/DX2                !
 ! A43   A(22,21,26)           115.5469         estimate D2E/DX2                !
 ! A44   A(21,22,23)           117.6614         estimate D2E/DX2                !
 ! A45   A(21,22,27)           116.07           estimate D2E/DX2                !
 ! A46   A(23,22,27)           126.2686         estimate D2E/DX2                !
 ! A47   A(22,23,24)           122.1632         estimate D2E/DX2                !
 ! A48   A(8,24,23)            119.8438         estimate D2E/DX2                !
 ! A49   A(8,24,28)            119.9827         estimate D2E/DX2                !
 ! A50   A(23,24,28)           120.1713         estimate D2E/DX2                !
 ! D1    D(9,1,2,3)            -32.9117         estimate D2E/DX2                !
 ! D2    D(9,1,2,4)           -155.7842         estimate D2E/DX2                !
 ! D3    D(9,1,2,5)             83.3651         estimate D2E/DX2                !
 ! D4    D(10,1,2,3)          -153.8737         estimate D2E/DX2                !
 ! D5    D(10,1,2,4)            83.2538         estimate D2E/DX2                !
 ! D6    D(10,1,2,5)           -37.5969         estimate D2E/DX2                !
 ! D7    D(11,1,2,3)            85.3443         estimate D2E/DX2                !
 ! D8    D(11,1,2,4)           -37.5282         estimate D2E/DX2                !
 ! D9    D(11,1,2,5)          -158.3789         estimate D2E/DX2                !
 ! D10   D(2,1,9,6)             25.0106         estimate D2E/DX2                !
 ! D11   D(2,1,9,12)           -96.511          estimate D2E/DX2                !
 ! D12   D(2,1,9,13)           142.1881         estimate D2E/DX2                !
 ! D13   D(10,1,9,6)           146.1117         estimate D2E/DX2                !
 ! D14   D(10,1,9,12)           24.5901         estimate D2E/DX2                !
 ! D15   D(10,1,9,13)          -96.7108         estimate D2E/DX2                !
 ! D16   D(11,1,9,6)           -88.9097         estimate D2E/DX2                !
 ! D17   D(11,1,9,12)          149.5687         estimate D2E/DX2                !
 ! D18   D(11,1,9,13)           28.2678         estimate D2E/DX2                !
 ! D19   D(2,1,11,17)         -161.4485         estimate D2E/DX2                !
 ! D20   D(9,1,11,17)          -49.6156         estimate D2E/DX2                !
 ! D21   D(10,1,11,17)          76.411          estimate D2E/DX2                !
 ! D22   D(1,2,3,6)             30.1875         estimate D2E/DX2                !
 ! D23   D(1,2,3,7)            -85.4415         estimate D2E/DX2                !
 ! D24   D(1,2,3,8)            153.4183         estimate D2E/DX2                !
 ! D25   D(4,2,3,6)            153.1367         estimate D2E/DX2                !
 ! D26   D(4,2,3,7)             37.5076         estimate D2E/DX2                !
 ! D27   D(4,2,3,8)            -83.6326         estimate D2E/DX2                !
 ! D28   D(5,2,3,6)            -86.15           estimate D2E/DX2                !
 ! D29   D(5,2,3,7)            158.2209         estimate D2E/DX2                !
 ! D30   D(5,2,3,8)             37.0807         estimate D2E/DX2                !
 ! D31   D(1,2,4,18)            41.6509         estimate D2E/DX2                !
 ! D32   D(3,2,4,18)           -74.7071         estimate D2E/DX2                !
 ! D33   D(5,2,4,18)           163.562          estimate D2E/DX2                !
 ! D34   D(2,3,6,9)            -15.4195         estimate D2E/DX2                !
 ! D35   D(7,3,6,9)             98.8951         estimate D2E/DX2                !
 ! D36   D(8,3,6,9)           -142.0442         estimate D2E/DX2                !
 ! D37   D(2,3,8,20)           122.0541         estimate D2E/DX2                !
 ! D38   D(2,3,8,24)           -57.4151         estimate D2E/DX2                !
 ! D39   D(6,3,8,20)          -117.5185         estimate D2E/DX2                !
 ! D40   D(6,3,8,24)            63.0123         estimate D2E/DX2                !
 ! D41   D(7,3,8,20)             1.7494         estimate D2E/DX2                !
 ! D42   D(7,3,8,24)          -177.7197         estimate D2E/DX2                !
 ! D43   D(3,6,9,1)             -6.1094         estimate D2E/DX2                !
 ! D44   D(3,6,9,12)           117.5327         estimate D2E/DX2                !
 ! D45   D(3,6,9,13)          -124.4621         estimate D2E/DX2                !
 ! D46   D(3,8,20,21)         -179.082          estimate D2E/DX2                !
 ! D47   D(3,8,20,25)            0.6847         estimate D2E/DX2                !
 ! D48   D(24,8,20,21)           0.4184         estimate D2E/DX2                !
 ! D49   D(24,8,20,25)        -179.8149         estimate D2E/DX2                !
 ! D50   D(3,8,24,23)          179.2971         estimate D2E/DX2                !
 ! D51   D(3,8,24,28)           -0.1672         estimate D2E/DX2                !
 ! D52   D(20,8,24,23)          -0.1854         estimate D2E/DX2                !
 ! D53   D(20,8,24,28)        -179.6497         estimate D2E/DX2                !
 ! D54   D(1,9,12,14)           45.0474         estimate D2E/DX2                !
 ! D55   D(1,9,12,15)          -74.581          estimate D2E/DX2                !
 ! D56   D(1,9,12,16)          169.7692         estimate D2E/DX2                !
 ! D57   D(6,9,12,14)          -74.6884         estimate D2E/DX2                !
 ! D58   D(6,9,12,15)          165.6832         estimate D2E/DX2                !
 ! D59   D(6,9,12,16)           50.0334         estimate D2E/DX2                !
 ! D60   D(13,9,12,14)         167.328          estimate D2E/DX2                !
 ! D61   D(13,9,12,15)          47.6996         estimate D2E/DX2                !
 ! D62   D(13,9,12,16)         -67.9501         estimate D2E/DX2                !
 ! D63   D(9,12,14,19)          59.4057         estimate D2E/DX2                !
 ! D64   D(15,12,14,19)        179.3472         estimate D2E/DX2                !
 ! D65   D(16,12,14,19)        -62.4463         estimate D2E/DX2                !
 ! D66   D(8,20,21,22)          -0.4128         estimate D2E/DX2                !
 ! D67   D(8,20,21,26)         179.5122         estimate D2E/DX2                !
 ! D68   D(25,20,21,22)        179.8084         estimate D2E/DX2                !
 ! D69   D(25,20,21,26)         -0.2667         estimate D2E/DX2                !
 ! D70   D(20,21,22,23)          0.1405         estimate D2E/DX2                !
 ! D71   D(20,21,22,27)       -179.7896         estimate D2E/DX2                !
 ! D72   D(26,21,22,23)       -179.789          estimate D2E/DX2                !
 ! D73   D(26,21,22,27)          0.2809         estimate D2E/DX2                !
 ! D74   D(21,22,23,24)          0.1003         estimate D2E/DX2                !
 ! D75   D(27,22,23,24)       -179.9775         estimate D2E/DX2                !
 ! D76   D(22,23,24,8)          -0.0749         estimate D2E/DX2                !
 ! D77   D(22,23,24,28)        179.3884         estimate D2E/DX2                !
 --------------------------------------------------------------------------------
 Trust Radius=3.00D-01 FncErr=1.00D-07 GrdErr=1.00D-06 EigMax=2.50D+02 EigMin=1.00D-04
 Number of steps in this run=    166 maximum allowed number of steps=    168.
 GradGradGradGradGradGradGradGradGradGradGradGradGradGradGradGradGradGrad

                          Input orientation:                          
 ---------------------------------------------------------------------
 Center     Atomic      Atomic             Coordinates (Angstroms)
 Number     Number       Type             X           Y           Z
 ---------------------------------------------------------------------
      1          6           0       -2.736624   -0.451777    0.292396
      2          6           0       -1.340529   -0.769516    0.830160
      3          6           0       -0.491302   -0.778613   -0.455085
      4          8           0       -1.274081   -1.972986    1.559104
      5          1           0       -1.005155    0.038410    1.486650
      6          8           0       -1.127618    0.149388   -1.341145
      7          1           0       -0.572727   -1.796368   -0.886635
      8          6           0        0.953073   -0.450512   -0.292996
      9          6           0       -2.444790    0.457550   -0.898005
     10          1           0       -3.373899    0.037308    1.042871
     11          8           0       -3.309174   -1.704999   -0.106155
     12          6           0       -2.551839    1.942117   -0.568320
     13          1           0       -3.148848    0.235017   -1.725732
     14          8           0       -1.931827    2.296170    0.628778
     15          1           0       -3.622330    2.201000   -0.481558
     16          1           0       -2.143824    2.498273   -1.434469
     17          1           0       -4.039696   -1.524032   -0.702012
     18          1           0       -1.807705   -2.612325    1.071763
     19          1           0       -0.962747    2.061611    0.578939
     20          6           0        1.893660   -1.339110   -0.692355
     21          7           0        3.212229   -1.069101   -0.537387
     22          6           0        3.678776    0.141521    0.033797
     23          7           0        2.759240    1.039464    0.431942
     24          6           0        1.431864    0.815700    0.303557
     25          1           0        1.635406   -2.298352   -1.145995
     26          1           0        3.927804   -1.719984   -0.821304
     27          8           0        4.907767    0.266602    0.115120
     28          8           0        0.604895    1.676167    0.698885
 ---------------------------------------------------------------------
                    Distance matrix (angstroms):
                    1          2          3          4          5
     1  C    0.000000
     2  C    1.529454   0.000000
     3  C    2.388937   1.540495   0.000000
     4  O    2.461231   1.408586   2.469054   0.000000
     5  H    2.159748   1.093709   2.168388   2.030587   0.000000
     6  O    2.370392   2.367336   1.432196   3.596855   2.832620
     7  H    2.807221   2.142739   1.108463   2.550437   3.030823
     8  C    3.735847   2.573685   1.490014   3.272372   2.690881
     9  C    1.526138   2.389903   2.353804   3.649034   2.816879
    10  H    1.099334   2.197909   3.349472   2.952459   2.409956
    11  O    1.434302   2.372209   2.986695   2.643200   3.299243
    12  C    2.550629   3.282678   3.414822   4.635367   3.199880
    13  H    2.171280   3.288113   3.115211   4.379518   3.866972
    14  O    2.883065   3.128677   3.564290   4.418578   2.586918
    15  H    2.901845   3.968776   4.322283   5.205837   3.924314
    16  H    3.469333   4.056140   3.798421   5.450696   3.985026
    17  H    1.958718   3.194111   3.634243   3.600393   4.054615
    18  H    2.477553   1.916395   2.725194   0.964889   2.800467
    19  H    3.089638   2.867248   3.059140   4.163607   2.217900
    20  C    4.816287   3.619733   2.461402   3.937696   3.879272
    21  N    6.038086   4.763144   3.715817   5.033812   4.807248
    22  C    6.447963   5.163100   4.298279   5.597186   4.905163
    23  N    5.696297   4.498788   3.828609   5.158782   4.035491
    24  C    4.356939   3.236724   2.610735   4.083541   2.818324
    25  H    4.959179   3.885707   2.703673   3.986043   4.400436
    26  H    6.874829   5.602326   4.533078   5.726252   5.722996
    27  O    7.680118   6.373855   5.528793   6.731723   6.074192
    28  O    3.982352   3.127822   2.925618   4.193667   2.427979
                    6          7          8          9         10
     6  O    0.000000
     7  H    2.073753   0.000000
     8  C    2.405779   2.119387   0.000000
     9  C    1.423474   2.929999   3.568765   0.000000
    10  H    3.277480   3.864185   4.554689   2.192452   0.000000
    11  O    3.118195   2.847040   4.446954   2.459838   2.088081
    12  C    2.416514   4.241990   4.252633   1.524497   2.626788
    13  H    2.059274   3.386297   4.398686   1.109212   2.784762
    14  O    3.022585   4.570831   4.088591   2.444324   2.711734
    15  H    3.342393   5.044117   5.291539   2.144679   2.658414
    16  H    2.560985   4.605693   4.425954   2.131414   3.702249
    17  H    3.418921   3.482546   5.123230   2.551236   2.434273
    18  H    3.729839   2.454848   3.762698   3.702701   3.078044
    19  H    2.714867   4.145362   3.277407   2.636442   3.182246
    20  C    3.429967   2.515928   1.354178   4.700258   5.714255
    21  N    4.578757   3.869985   2.355030   5.870483   6.862830
    22  C    4.999195   4.762130   2.808336   6.202112   7.125259
    23  N    4.363913   4.569748   2.451082   5.402713   6.244433
    24  C    3.114477   3.501120   1.479327   4.074367   4.924209
    25  H    3.696460   2.279278   2.146555   4.929959   5.944710
    26  H    5.414986   4.501653   3.277147   6.734797   7.738093
    27  O    6.209696   5.940974   4.039853   7.424485   8.336623
    28  O    3.081295   3.994893   2.372303   3.651803   4.316826
                   11         12         13         14         15
    11  O    0.000000
    12  C    3.753479   0.000000
    13  H    2.532271   2.147141   0.000000
    14  O    4.294946   1.393848   3.357560   0.000000
    15  H    3.936473   1.104762   2.374288   2.024773   0.000000
    16  H    4.559600   1.107249   2.493438   2.083933   1.783926
    17  H    0.959926   3.774358   2.221681   4.561585   3.754818
    18  H    2.113088   4.897607   4.210938   4.930007   5.373432
    19  H    4.490259   1.963592   3.664286   0.998308   2.866612
    20  C    5.248522   5.526689   5.382623   5.440129   6.557664
    21  N    6.566508   6.503297   6.601226   6.256701   7.576798
    22  C    7.229154   6.513467   7.051321   6.039485   7.603499
    23  N    6.681862   5.479313   6.340993   4.860470   6.550426
    24  C    5.385093   4.230706   5.043623   3.689441   5.299088
    25  H    5.087456   5.987346   5.444551   6.081497   6.951937
    26  H    7.272243   7.447198   7.397231   7.250345   8.514345
    27  O    8.453064   7.675947   8.264308   7.152834   8.767011
    28  O    5.234530   3.411965   4.695345   2.612332   4.420218
                   16         17         18         19         20
    16  H    0.000000
    17  H    4.506635   0.000000
    18  H    5.701963   3.051630   0.000000
    19  H    2.374748   4.895435   4.775197   0.000000
    20  C    5.619388   5.936245   4.293401   4.619540   0.000000
    21  N    6.497555   7.268045   5.492781   5.336475   1.354823
    22  C    6.450795   7.930340   6.225955   5.052491   2.430268
    23  N    5.445333   7.354107   5.882340   3.862587   2.769637
    24  C    4.317098   6.035187   4.778734   2.713354   2.418326
    25  H    6.113379   5.744865   4.107559   5.360511   1.092076
    26  H    7.418513   7.970802   6.105411   6.338662   2.073508
    27  O    7.556885   9.161396   7.368918   6.156307   3.509297
    28  O    3.575264   5.811713   4.934657   1.618782   3.562072
                   21         22         23         24         25
    21  N    0.000000
    22  C    1.417576   0.000000
    23  N    2.364497   1.345499   0.000000
    24  C    2.725685   2.361335   1.352213   0.000000
    25  H    2.089936   3.394149   3.859262   3.440923   0.000000
    26  H    1.008120   2.063592   3.248187   3.731584   2.386425
    27  O    2.254932   1.238014   2.305181   3.524049   4.344853
    28  O    3.982845   3.499461   2.262267   1.257205   4.501371
                   26         27         28
    26  H    0.000000
    27  O    2.404941   0.000000
    28  O    4.988641   4.565344   0.000000
 Stoichiometry    C9H11N2O6(2)
 Framework group  C1[X(C9H11N2O6)]
 Deg. of freedom    78
 Full point group                 C1      NOp   1
 Largest Abelian subgroup         C1      NOp   1
 Largest concise Abelian subgroup C1      NOp   1
                         Standard orientation:                         
 ---------------------------------------------------------------------
 Center     Atomic      Atomic             Coordinates (Angstroms)
 Number     Number       Type             X           Y           Z
 ---------------------------------------------------------------------
      1          6           0       -2.736624   -0.451777    0.292396
      2          6           0       -1.340529   -0.769516    0.830160
      3          6           0       -0.491302   -0.778613   -0.455085
      4          8           0       -1.274081   -1.972986    1.559104
      5          1           0       -1.005155    0.038410    1.486650
      6          8           0       -1.127618    0.149388   -1.341145
      7          1           0       -0.572727   -1.796368   -0.886635
      8          6           0        0.953073   -0.450512   -0.292996
      9          6           0       -2.444790    0.457550   -0.898005
     10          1           0       -3.373899    0.037308    1.042871
     11          8           0       -3.309174   -1.704999   -0.106155
     12          6           0       -2.551839    1.942117   -0.568320
     13          1           0       -3.148848    0.235017   -1.725732
     14          8           0       -1.931827    2.296170    0.628778
     15          1           0       -3.622330    2.201000   -0.481558
     16          1           0       -2.143824    2.498273   -1.434469
     17          1           0       -4.039696   -1.524032   -0.702012
     18          1           0       -1.807705   -2.612325    1.071763
     19          1           0       -0.962747    2.061611    0.578939
     20          6           0        1.893660   -1.339110   -0.692355
     21          7           0        3.212229   -1.069101   -0.537387
     22          6           0        3.678776    0.141521    0.033797
     23          7           0        2.759240    1.039464    0.431942
     24          6           0        1.431864    0.815700    0.303557
     25          1           0        1.635406   -2.298352   -1.145995
     26          1           0        3.927804   -1.719984   -0.821304
     27          8           0        4.907767    0.266602    0.115120
     28          8           0        0.604895    1.676167    0.698885
 ---------------------------------------------------------------------
 Rotational constants (GHZ):           0.9376887           0.3076338           0.2644787
 Standard basis: Aug-CC-pVDZ (5D, 7F)
 There are   524 symmetry adapted cartesian basis functions of A   symmetry.
 There are   490 symmetry adapted basis functions of A   symmetry.
   490 basis functions,   852 primitive gaussians,   524 cartesian basis functions
    64 alpha electrons       63 beta electrons
       nuclear repulsion energy      1309.1931489595 Hartrees.
 NAtoms=   28 NActive=   28 NUniq=   28 SFac= 1.00D+00 NAtFMM=   60 NAOKFM=F Big=F
 Integral buffers will be    131072 words long.
 Raffenetti 2 integral format.
 Two-electron integral symmetry is turned on.
 Nuclear repulsion after empirical dispersion term =     1309.1733734715 Hartrees.
 One-electron integrals computed using PRISM.
 NBasis=   490 RedAO= T EigKep=  2.32D-06  NBF=   490
 NBsUse=   490 1.00D-06 EigRej= -1.00D+00 NBFU=   490
 ExpMin= 2.97D-02 ExpMax= 1.17D+04 ExpMxC= 4.01D+02 IAcc=3 IRadAn=         5 AccDes= 0.00D+00
 Harris functional with IExCor= 1009 and IRadAn=       5 diagonalized for initial guess.
 HarFok:  IExCor= 1009 AccDes= 0.00D+00 IRadAn=         5 IDoV= 1 UseB2=F ITyADJ=14
 ICtDFT=  3500011 ScaDFX=  1.000000  1.000000  1.000000  1.000000
 FoFCou: FMM=F IPFlag=           0 FMFlag=      100000 FMFlg1=           0
         NFxFlg=           0 DoJE=T BraDBF=F KetDBF=T FulRan=T
         wScrn=  0.000000 ICntrl=       500 IOpCl=  0 I1Cent=   200000004 NGrid=           0
         NMat0=    1 NMatS0=      1 NMatT0=    0 NMatD0=    1 NMtDS0=    0 NMtDT0=    0
 Petite list used in FoFCou.
 Initial guess <Sx>= 0.0000 <Sy>= 0.0000 <Sz>= 0.5000 <S**2>= 0.7500 S= 0.5000
 Requested convergence on RMS density matrix=1.00D-08 within 128 cycles.
 Requested convergence on MAX density matrix=1.00D-06.
 Requested convergence on             energy=1.00D-06.
 No special actions if energy rises.
 EnCoef did     5 forward-backward iterations
 EnCoef did     2 forward-backward iterations
 Restarting incremental Fock formation.
 SCF Done:  E(UPBE1PBE) =  -909.519909606     A.U. after   32 cycles
            NFock= 32  Conv=0.72D-08     -V/T= 2.0054
 <Sx>= 0.0000 <Sy>= 0.0000 <Sz>= 0.5000 <S**2>= 0.7742 S= 0.5120
 <L.S>= 0.000000000000E+00
 Annihilation of the first spin contaminant:
 S**2 before annihilation     0.7742,   after     0.7503

 **********************************************************************

            Population analysis using the SCF Density.

 **********************************************************************

 Orbital symmetries:
 Alpha Orbitals:
       Occupied  (A) (A) (A) (A) (A) (A) (A) (A) (A) (A) (A) (A)
                 (A) (A) (A) (A) (A) (A) (A) (A) (A) (A) (A) (A)
                 (A) (A) (A) (A) (A) (A) (A) (A) (A) (A) (A) (A)
                 (A) (A) (A) (A) (A) (A) (A) (A) (A) (A) (A) (A)
                 (A) (A) (A) (A) (A) (A) (A) (A) (A) (A) (A) (A)
                 (A) (A) (A) (A)
       Virtual   (A) (A) (A) (A) (A) (A) (A) (A) (A) (A) (A) (A)
                 (A) (A) (A) (A) (A) (A) (A) (A) (A) (A) (A) (A)
                 (A) (A) (A) (A) (A) (A) (A) (A) (A) (A) (A) (A)
                 (A) (A) (A) (A) (A) (A) (A) (A) (A) (A) (A) (A)
                 (A) (A) (A) (A) (A) (A) (A) (A) (A) (A) (A) (A)
                 (A) (A) (A) (A) (A) (A) (A) (A) (A) (A) (A) (A)
                 (A) (A) (A) (A) (A) (A) (A) (A) (A) (A) (A) (A)
                 (A) (A) (A) (A) (A) (A) (A) (A) (A) (A) (A) (A)
                 (A) (A) (A) (A) (A) (A) (A) (A) (A) (A) (A) (A)
                 (A) (A) (A) (A) (A) (A) (A) (A) (A) (A) (A) (A)
                 (A) (A) (A) (A) (A) (A) (A) (A) (A) (A) (A) (A)
                 (A) (A) (A) (A) (A) (A) (A) (A) (A) (A) (A) (A)
                 (A) (A) (A) (A) (A) (A) (A) (A) (A) (A) (A) (A)
                 (A) (A) (A) (A) (A) (A) (A) (A) (A) (A) (A) (A)
                 (A) (A) (A) (A) (A) (A) (A) (A) (A) (A) (A) (A)
                 (A) (A) (A) (A) (A) (A) (A) (A) (A) (A) (A) (A)
                 (A) (A) (A) (A) (A) (A) (A) (A) (A) (A) (A) (A)
                 (A) (A) (A) (A) (A) (A) (A) (A) (A) (A) (A) (A)
                 (A) (A) (A) (A) (A) (A) (A) (A) (A) (A) (A) (A)
                 (A) (A) (A) (A) (A) (A) (A) (A) (A) (A) (A) (A)
                 (A) (A) (A) (A) (A) (A) (A) (A) (A) (A) (A) (A)
                 (A) (A) (A) (A) (A) (A) (A) (A) (A) (A) (A) (A)
                 (A) (A) (A) (A) (A) (A) (A) (A) (A) (A) (A) (A)
                 (A) (A) (A) (A) (A) (A) (A) (A) (A) (A) (A) (A)
                 (A) (A) (A) (A) (A) (A) (A) (A) (A) (A) (A) (A)
                 (A) (A) (A) (A) (A) (A) (A) (A) (A) (A) (A) (A)
                 (A) (A) (A) (A) (A) (A) (A) (A) (A) (A) (A) (A)
                 (A) (A) (A) (A) (A) (A) (A) (A) (A) (A) (A) (A)
                 (A) (A) (A) (A) (A) (A) (A) (A) (A) (A) (A) (A)
                 (A) (A) (A) (A) (A) (A) (A) (A) (A) (A) (A) (A)
                 (A) (A) (A) (A) (A) (A) (A) (A) (A) (A) (A) (A)
                 (A) (A) (A) (A) (A) (A) (A) (A) (A) (A) (A) (A)
                 (A) (A) (A) (A) (A) (A) (A) (A) (A) (A) (A) (A)
                 (A) (A) (A) (A) (A) (A) (A) (A) (A) (A) (A) (A)
                 (A) (A) (A) (A) (A) (A) (A) (A) (A) (A) (A) (A)
                 (A) (A) (A) (A) (A) (A)
 Beta  Orbitals:
       Occupied  (A) (A) (A) (A) (A) (A) (A) (A) (A) (A) (A) (A)
                 (A) (A) (A) (A) (A) (A) (A) (A) (A) (A) (A) (A)
                 (A) (A) (A) (A) (A) (A) (A) (A) (A) (A) (A) (A)
                 (A) (A) (A) (A) (A) (A) (A) (A) (A) (A) (A) (A)
                 (A) (A) (A) (A) (A) (A) (A) (A) (A) (A) (A) (A)
                 (A) (A) (A)
       Virtual   (A) (A) (A) (A) (A) (A) (A) (A) (A) (A) (A) (A)
                 (A) (A) (A) (A) (A) (A) (A) (A) (A) (A) (A) (A)
                 (A) (A) (A) (A) (A) (A) (A) (A) (A) (A) (A) (A)
                 (A) (A) (A) (A) (A) (A) (A) (A) (A) (A) (A) (A)
                 (A) (A) (A) (A) (A) (A) (A) (A) (A) (A) (A) (A)
                 (A) (A) (A) (A) (A) (A) (A) (A) (A) (A) (A) (A)
                 (A) (A) (A) (A) (A) (A) (A) (A) (A) (A) (A) (A)
                 (A) (A) (A) (A) (A) (A) (A) (A) (A) (A) (A) (A)
                 (A) (A) (A) (A) (A) (A) (A) (A) (A) (A) (A) (A)
                 (A) (A) (A) (A) (A) (A) (A) (A) (A) (A) (A) (A)
                 (A) (A) (A) (A) (A) (A) (A) (A) (A) (A) (A) (A)
                 (A) (A) (A) (A) (A) (A) (A) (A) (A) (A) (A) (A)
                 (A) (A) (A) (A) (A) (A) (A) (A) (A) (A) (A) (A)
                 (A) (A) (A) (A) (A) (A) (A) (A) (A) (A) (A) (A)
                 (A) (A) (A) (A) (A) (A) (A) (A) (A) (A) (A) (A)
                 (A) (A) (A) (A) (A) (A) (A) (A) (A) (A) (A) (A)
                 (A) (A) (A) (A) (A) (A) (A) (A) (A) (A) (A) (A)
                 (A) (A) (A) (A) (A) (A) (A) (A) (A) (A) (A) (A)
                 (A) (A) (A) (A) (A) (A) (A) (A) (A) (A) (A) (A)
                 (A) (A) (A) (A) (A) (A) (A) (A) (A) (A) (A) (A)
                 (A) (A) (A) (A) (A) (A) (A) (A) (A) (A) (A) (A)
                 (A) (A) (A) (A) (A) (A) (A) (A) (A) (A) (A) (A)
                 (A) (A) (A) (A) (A) (A) (A) (A) (A) (A) (A) (A)
                 (A) (A) (A) (A) (A) (A) (A) (A) (A) (A) (A) (A)
                 (A) (A) (A) (A) (A) (A) (A) (A) (A) (A) (A) (A)
                 (A) (A) (A) (A) (A) (A) (A) (A) (A) (A) (A) (A)
                 (A) (A) (A) (A) (A) (A) (A) (A) (A) (A) (A) (A)
                 (A) (A) (A) (A) (A) (A) (A) (A) (A) (A) (A) (A)
                 (A) (A) (A) (A) (A) (A) (A) (A) (A) (A) (A) (A)
                 (A) (A) (A) (A) (A) (A) (A) (A) (A) (A) (A) (A)
                 (A) (A) (A) (A) (A) (A) (A) (A) (A) (A) (A) (A)
                 (A) (A) (A) (A) (A) (A) (A) (A) (A) (A) (A) (A)
                 (A) (A) (A) (A) (A) (A) (A) (A) (A) (A) (A) (A)
                 (A) (A) (A) (A) (A) (A) (A) (A) (A) (A) (A) (A)
                 (A) (A) (A) (A) (A) (A) (A) (A) (A) (A) (A) (A)
                 (A) (A) (A) (A) (A) (A) (A)
 The electronic state is 2-A.
 Alpha  occ. eigenvalues --  -19.27177 -19.26655 -19.26021 -19.24789 -19.20730
 Alpha  occ. eigenvalues --  -19.19985 -14.51708 -14.42428 -10.40121 -10.36018
 Alpha  occ. eigenvalues --  -10.35947 -10.32713 -10.31305 -10.30898 -10.30802
 Alpha  occ. eigenvalues --  -10.30329 -10.27722  -1.14694  -1.12078  -1.09103
 Alpha  occ. eigenvalues --   -1.07701  -1.07116  -1.04981  -1.03491  -0.95540
 Alpha  occ. eigenvalues --   -0.88754  -0.81859  -0.80226  -0.73216  -0.69854
 Alpha  occ. eigenvalues --   -0.69749  -0.65934  -0.63787  -0.61459  -0.61132
 Alpha  occ. eigenvalues --   -0.58037  -0.55996  -0.54398  -0.53172  -0.52851
 Alpha  occ. eigenvalues --   -0.51110  -0.50248  -0.49237  -0.48309  -0.47567
 Alpha  occ. eigenvalues --   -0.45941  -0.44483  -0.44203  -0.43463  -0.42723
 Alpha  occ. eigenvalues --   -0.41969  -0.40831  -0.38834  -0.36562  -0.35310
 Alpha  occ. eigenvalues --   -0.34630  -0.32801  -0.32515  -0.32121  -0.31554
 Alpha  occ. eigenvalues --   -0.30446  -0.29338  -0.28682  -0.26755
 Alpha virt. eigenvalues --   -0.07268  -0.03021  -0.03001  -0.01792   0.00064
 Alpha virt. eigenvalues --    0.00462   0.01788   0.02152   0.02668   0.03744
 Alpha virt. eigenvalues --    0.04194   0.04519   0.04871   0.05643   0.05897
 Alpha virt. eigenvalues --    0.06191   0.06394   0.06899   0.07380   0.07948
 Alpha virt. eigenvalues --    0.08181   0.08607   0.08716   0.09159   0.09736
 Alpha virt. eigenvalues --    0.10108   0.10591   0.10859   0.11088   0.11183
 Alpha virt. eigenvalues --    0.11583   0.11911   0.12251   0.12739   0.13149
 Alpha virt. eigenvalues --    0.13554   0.13910   0.14221   0.14547   0.14838
 Alpha virt. eigenvalues --    0.15230   0.15734   0.16000   0.16642   0.16695
 Alpha virt. eigenvalues --    0.16992   0.17523   0.17744   0.18167   0.18620
 Alpha virt. eigenvalues --    0.18878   0.19560   0.20186   0.20410   0.20779
 Alpha virt. eigenvalues --    0.21182   0.21317   0.22354   0.22408   0.22753
 Alpha virt. eigenvalues --    0.23147   0.23471   0.23858   0.24363   0.24555
 Alpha virt. eigenvalues --    0.24847   0.25213   0.25652   0.25925   0.26019
 Alpha virt. eigenvalues --    0.26221   0.26554   0.27027   0.27430   0.27636
 Alpha virt. eigenvalues --    0.27675   0.28106   0.28354   0.29026   0.29208
 Alpha virt. eigenvalues --    0.29540   0.29584   0.30564   0.31010   0.31540
 Alpha virt. eigenvalues --    0.31706   0.31845   0.32481   0.32757   0.33517
 Alpha virt. eigenvalues --    0.33615   0.33927   0.34356   0.34566   0.34776
 Alpha virt. eigenvalues --    0.35463   0.35872   0.36159   0.37246   0.37553
 Alpha virt. eigenvalues --    0.37868   0.38365   0.39392   0.39742   0.40024
 Alpha virt. eigenvalues --    0.40603   0.40955   0.41388   0.41476   0.42506
 Alpha virt. eigenvalues --    0.42668   0.43091   0.43966   0.44113   0.44334
 Alpha virt. eigenvalues --    0.44667   0.45688   0.46284   0.46863   0.47463
 Alpha virt. eigenvalues --    0.47749   0.48535   0.49307   0.49919   0.50803
 Alpha virt. eigenvalues --    0.51136   0.51553   0.51890   0.52110   0.52368
 Alpha virt. eigenvalues --    0.53641   0.54130   0.54500   0.54868   0.55834
 Alpha virt. eigenvalues --    0.56494   0.56674   0.56822   0.57895   0.58402
 Alpha virt. eigenvalues --    0.58704   0.59438   0.59962   0.60252   0.60861
 Alpha virt. eigenvalues --    0.61084   0.62078   0.62383   0.63260   0.63663
 Alpha virt. eigenvalues --    0.63787   0.64280   0.64836   0.65074   0.65962
 Alpha virt. eigenvalues --    0.66184   0.67019   0.67602   0.67693   0.68250
 Alpha virt. eigenvalues --    0.68535   0.69372   0.70207   0.70385   0.71432
 Alpha virt. eigenvalues --    0.71817   0.72293   0.72472   0.73179   0.73856
 Alpha virt. eigenvalues --    0.74894   0.74981   0.75155   0.75831   0.76512
 Alpha virt. eigenvalues --    0.77348   0.78674   0.78906   0.79669   0.80351
 Alpha virt. eigenvalues --    0.81074   0.82091   0.82689   0.82930   0.83160
 Alpha virt. eigenvalues --    0.84210   0.85157   0.85533   0.86705   0.87546
 Alpha virt. eigenvalues --    0.88686   0.89134   0.89348   0.90123   0.91342
 Alpha virt. eigenvalues --    0.92100   0.92653   0.92948   0.93584   0.95155
 Alpha virt. eigenvalues --    0.95727   0.97277   0.97719   0.98455   0.98835
 Alpha virt. eigenvalues --    0.99725   1.00218   1.01498   1.01831   1.03083
 Alpha virt. eigenvalues --    1.03926   1.04248   1.05497   1.06162   1.07026
 Alpha virt. eigenvalues --    1.08546   1.09453   1.09922   1.10691   1.11198
 Alpha virt. eigenvalues --    1.11803   1.13468   1.14227   1.14887   1.15500
 Alpha virt. eigenvalues --    1.16110   1.17245   1.17722   1.18415   1.19664
 Alpha virt. eigenvalues --    1.21189   1.21526   1.22260   1.24282   1.24889
 Alpha virt. eigenvalues --    1.25565   1.26819   1.27269   1.28280   1.30105
 Alpha virt. eigenvalues --    1.30699   1.32095   1.32964   1.33306   1.33899
 Alpha virt. eigenvalues --    1.34254   1.35756   1.36446   1.38821   1.39282
 Alpha virt. eigenvalues --    1.40162   1.40739   1.42041   1.43330   1.43621
 Alpha virt. eigenvalues --    1.45065   1.46325   1.47431   1.48821   1.49339
 Alpha virt. eigenvalues --    1.50008   1.51265   1.51908   1.53201   1.54088
 Alpha virt. eigenvalues --    1.55127   1.55765   1.56948   1.57355   1.58378
 Alpha virt. eigenvalues --    1.59683   1.61698   1.62142   1.63118   1.64212
 Alpha virt. eigenvalues --    1.65492   1.66200   1.67163   1.68002   1.69388
 Alpha virt. eigenvalues --    1.69878   1.70478   1.71857   1.72212   1.73636
 Alpha virt. eigenvalues --    1.74798   1.76065   1.77044   1.77519   1.78120
 Alpha virt. eigenvalues --    1.78849   1.79608   1.81359   1.81804   1.83283
 Alpha virt. eigenvalues --    1.84086   1.85085   1.86073   1.87128   1.87411
 Alpha virt. eigenvalues --    1.87942   1.89978   1.91624   1.92029   1.93381
 Alpha virt. eigenvalues --    1.93937   1.95005   1.95907   1.97179   1.98025
 Alpha virt. eigenvalues --    1.98813   1.99669   2.01016   2.01540   2.02410
 Alpha virt. eigenvalues --    2.03164   2.04515   2.05604   2.07286   2.07695
 Alpha virt. eigenvalues --    2.08314   2.08608   2.10329   2.11801   2.12174
 Alpha virt. eigenvalues --    2.15150   2.15975   2.16981   2.17818   2.19581
 Alpha virt. eigenvalues --    2.20714   2.22455   2.22918   2.24688   2.24947
 Alpha virt. eigenvalues --    2.25212   2.28446   2.28732   2.29580   2.31360
 Alpha virt. eigenvalues --    2.31968   2.34730   2.36304   2.37428   2.38204
 Alpha virt. eigenvalues --    2.39550   2.39715   2.40348   2.43231   2.44018
 Alpha virt. eigenvalues --    2.45470   2.46965   2.47898   2.48568   2.49893
 Alpha virt. eigenvalues --    2.51189   2.52024   2.54948   2.55881   2.56891
 Alpha virt. eigenvalues --    2.59076   2.60833   2.62061   2.63654   2.65920
 Alpha virt. eigenvalues --    2.67334   2.69359   2.71516   2.72252   2.76679
 Alpha virt. eigenvalues --    2.79152   2.81676   2.82056   2.85169   2.86383
 Alpha virt. eigenvalues --    2.88710   2.89640   2.90991   2.93797   2.96324
 Alpha virt. eigenvalues --    2.97841   3.00355   3.05601   3.12986   3.14912
 Alpha virt. eigenvalues --    3.18190   3.21084   3.25659   3.28798   3.30601
 Alpha virt. eigenvalues --    3.35958   3.37439   3.37643   3.40054   3.42176
 Alpha virt. eigenvalues --    3.43948   3.46660   3.49401   3.50087   3.50368
 Alpha virt. eigenvalues --    3.50986   3.52913   3.53321   3.54413   3.58018
 Alpha virt. eigenvalues --    3.58446   3.60130   3.62448   3.64004   3.64366
 Alpha virt. eigenvalues --    3.66624   3.67222   3.70707   3.74125   3.76516
 Alpha virt. eigenvalues --    3.77326   3.78555   3.85832   3.87113   3.95531
 Alpha virt. eigenvalues --    4.01681   4.07828   4.11534   4.21449   4.34284
 Alpha virt. eigenvalues --    4.56610
  Beta  occ. eigenvalues --  -19.26487 -19.26074 -19.26014 -19.24765 -19.20778
  Beta  occ. eigenvalues --  -19.19958 -14.51356 -14.41979 -10.40344 -10.36097
  Beta  occ. eigenvalues --  -10.35879 -10.32729 -10.30918 -10.30839 -10.30791
  Beta  occ. eigenvalues --  -10.30328 -10.27717  -1.13171  -1.11845  -1.08967
  Beta  occ. eigenvalues --   -1.07414  -1.07062  -1.04014  -1.03371  -0.94614
  Beta  occ. eigenvalues --   -0.87775  -0.81735  -0.79917  -0.72944  -0.69667
  Beta  occ. eigenvalues --   -0.69471  -0.65789  -0.63634  -0.61170  -0.60853
  Beta  occ. eigenvalues --   -0.57909  -0.55855  -0.54209  -0.52650  -0.51500
  Beta  occ. eigenvalues --   -0.50594  -0.49477  -0.48959  -0.48183  -0.47279
  Beta  occ. eigenvalues --   -0.45693  -0.44280  -0.43857  -0.42211  -0.41850
  Beta  occ. eigenvalues --   -0.40739  -0.39784  -0.38692  -0.36425  -0.34497
  Beta  occ. eigenvalues --   -0.34012  -0.32410  -0.31672  -0.30982  -0.30406
  Beta  occ. eigenvalues --   -0.28440  -0.27657  -0.26410
  Beta virt. eigenvalues --   -0.21943  -0.05814  -0.02981  -0.01835  -0.01667
  Beta virt. eigenvalues --    0.00100   0.00500   0.01834   0.02178   0.02717
  Beta virt. eigenvalues --    0.03764   0.04253   0.04544   0.04901   0.05756
  Beta virt. eigenvalues --    0.05959   0.06318   0.06442   0.06914   0.07570
  Beta virt. eigenvalues --    0.08014   0.08294   0.08723   0.08814   0.09223
  Beta virt. eigenvalues --    0.09823   0.10130   0.10704   0.10894   0.11138
  Beta virt. eigenvalues --    0.11320   0.11659   0.11981   0.12358   0.12864
  Beta virt. eigenvalues --    0.13210   0.13600   0.13973   0.14269   0.14683
  Beta virt. eigenvalues --    0.14919   0.15305   0.15872   0.16073   0.16712
  Beta virt. eigenvalues --    0.16854   0.17072   0.17615   0.17814   0.18232
  Beta virt. eigenvalues --    0.18679   0.18993   0.19679   0.20242   0.20461
  Beta virt. eigenvalues --    0.20836   0.21268   0.21439   0.22420   0.22494
  Beta virt. eigenvalues --    0.22856   0.23255   0.23712   0.23966   0.24446
  Beta virt. eigenvalues --    0.24609   0.24918   0.25349   0.25725   0.25981
  Beta virt. eigenvalues --    0.26081   0.26351   0.26621   0.27154   0.27490
  Beta virt. eigenvalues --    0.27691   0.27783   0.28231   0.28437   0.29094
  Beta virt. eigenvalues --    0.29327   0.29602   0.29636   0.30645   0.31059
  Beta virt. eigenvalues --    0.31595   0.31793   0.31906   0.32586   0.32811
  Beta virt. eigenvalues --    0.33573   0.33690   0.34011   0.34416   0.34656
  Beta virt. eigenvalues --    0.34852   0.35578   0.35969   0.36322   0.37328
  Beta virt. eigenvalues --    0.37632   0.37986   0.38440   0.39464   0.39802
  Beta virt. eigenvalues --    0.40074   0.40698   0.41008   0.41491   0.41596
  Beta virt. eigenvalues --    0.42611   0.42823   0.43211   0.44084   0.44203
  Beta virt. eigenvalues --    0.44422   0.44761   0.45790   0.46355   0.46959
  Beta virt. eigenvalues --    0.47523   0.47788   0.48650   0.49430   0.49996
  Beta virt. eigenvalues --    0.50864   0.51276   0.51613   0.51955   0.52197
  Beta virt. eigenvalues --    0.52441   0.53760   0.54185   0.54630   0.54959
  Beta virt. eigenvalues --    0.55917   0.56590   0.56742   0.56928   0.58002
  Beta virt. eigenvalues --    0.58469   0.58828   0.59569   0.60210   0.60428
  Beta virt. eigenvalues --    0.60991   0.61182   0.62212   0.62540   0.63386
  Beta virt. eigenvalues --    0.63880   0.63932   0.64423   0.64893   0.65123
  Beta virt. eigenvalues --    0.66093   0.66365   0.67094   0.67665   0.67777
  Beta virt. eigenvalues --    0.68310   0.68603   0.69530   0.70275   0.70523
  Beta virt. eigenvalues --    0.71534   0.71969   0.72371   0.72542   0.73281
  Beta virt. eigenvalues --    0.74012   0.74996   0.75068   0.75374   0.75903
  Beta virt. eigenvalues --    0.76711   0.77587   0.78854   0.79003   0.79855
  Beta virt. eigenvalues --    0.80470   0.81380   0.82233   0.82779   0.83083
  Beta virt. eigenvalues --    0.83258   0.84323   0.85261   0.85791   0.86847
  Beta virt. eigenvalues --    0.87624   0.88924   0.89210   0.89432   0.90288
  Beta virt. eigenvalues --    0.91473   0.92220   0.92817   0.93062   0.93974
  Beta virt. eigenvalues --    0.95450   0.96124   0.97410   0.97858   0.98617
  Beta virt. eigenvalues --    0.98977   0.99963   1.00713   1.01672   1.02170
  Beta virt. eigenvalues --    1.03252   1.04024   1.04803   1.05590   1.06382
  Beta virt. eigenvalues --    1.07223   1.08744   1.09619   1.10170   1.10810
  Beta virt. eigenvalues --    1.11400   1.11929   1.13665   1.14297   1.15086
  Beta virt. eigenvalues --    1.15704   1.16231   1.17372   1.17827   1.18596
  Beta virt. eigenvalues --    1.19778   1.21293   1.21677   1.22356   1.24404
  Beta virt. eigenvalues --    1.25085   1.25715   1.26985   1.27383   1.28368
  Beta virt. eigenvalues --    1.30195   1.30948   1.32377   1.33159   1.33387
  Beta virt. eigenvalues --    1.34016   1.34513   1.36058   1.36603   1.39149
  Beta virt. eigenvalues --    1.39433   1.40360   1.40958   1.42285   1.43428
  Beta virt. eigenvalues --    1.44207   1.45312   1.46521   1.47700   1.48971
  Beta virt. eigenvalues --    1.49675   1.50902   1.51626   1.52254   1.53513
  Beta virt. eigenvalues --    1.54168   1.55311   1.56106   1.57075   1.57635
  Beta virt. eigenvalues --    1.58618   1.59827   1.61799   1.62305   1.63253
  Beta virt. eigenvalues --    1.64325   1.65587   1.66359   1.67262   1.68116
  Beta virt. eigenvalues --    1.69575   1.70093   1.70628   1.71943   1.72446
  Beta virt. eigenvalues --    1.73752   1.74951   1.76227   1.77273   1.77632
  Beta virt. eigenvalues --    1.78422   1.78976   1.79682   1.81505   1.81865
  Beta virt. eigenvalues --    1.83364   1.84241   1.85180   1.86175   1.87247
  Beta virt. eigenvalues --    1.87638   1.88190   1.90067   1.91682   1.92131
  Beta virt. eigenvalues --    1.93564   1.93997   1.95148   1.96123   1.97365
  Beta virt. eigenvalues --    1.98346   1.98885   1.99771   2.01081   2.01697
  Beta virt. eigenvalues --    2.02625   2.03316   2.04697   2.05681   2.07434
  Beta virt. eigenvalues --    2.07840   2.08459   2.08867   2.10505   2.11966
  Beta virt. eigenvalues --    2.12251   2.15272   2.16094   2.17181   2.18000
  Beta virt. eigenvalues --    2.19761   2.20835   2.22707   2.23105   2.24816
  Beta virt. eigenvalues --    2.25026   2.25416   2.28564   2.28846   2.29727
  Beta virt. eigenvalues --    2.31510   2.32066   2.34902   2.36501   2.37571
  Beta virt. eigenvalues --    2.38286   2.39749   2.40511   2.40596   2.43474
  Beta virt. eigenvalues --    2.44182   2.45694   2.47173   2.48182   2.49287
  Beta virt. eigenvalues --    2.50378   2.51596   2.52402   2.55069   2.55995
  Beta virt. eigenvalues --    2.56992   2.59340   2.60887   2.62237   2.64424
  Beta virt. eigenvalues --    2.66040   2.67400   2.69508   2.71621   2.72327
  Beta virt. eigenvalues --    2.76813   2.79337   2.81732   2.82138   2.85364
  Beta virt. eigenvalues --    2.86619   2.89115   2.89722   2.91121   2.94163
  Beta virt. eigenvalues --    2.96498   2.98162   3.00645   3.05764   3.13052
  Beta virt. eigenvalues --    3.15183   3.18302   3.21226   3.25972   3.29293
  Beta virt. eigenvalues --    3.33504   3.36227   3.39037   3.40025   3.41209
  Beta virt. eigenvalues --    3.42335   3.44000   3.46756   3.49489   3.50143
  Beta virt. eigenvalues --    3.50428   3.51070   3.52976   3.53817   3.54581
  Beta virt. eigenvalues --    3.58080   3.58563   3.60227   3.62551   3.64078
  Beta virt. eigenvalues --    3.64574   3.66776   3.67382   3.70978   3.74199
  Beta virt. eigenvalues --    3.76967   3.77887   3.79045   3.86011   3.87245
  Beta virt. eigenvalues --    3.95741   4.01735   4.07946   4.11569   4.21490
  Beta virt. eigenvalues --    4.34398   4.56691
          Condensed to atoms (all electrons):
               1          2          3          4          5          6
     1  C    8.969930  -2.302928  -0.047652   0.111932   0.043303   0.155192
     2  C   -2.302928   9.076410  -2.518394  -0.416195  -0.180552  -0.005242
     3  C   -0.047652  -2.518394  21.679172   0.405967  -0.996767  -1.183063
     4  O    0.111932  -0.416195   0.405967   8.583302  -0.207088  -0.014318
     5  H    0.043303  -0.180552  -0.996767  -0.207088   2.368597   0.076962
     6  O    0.155192  -0.005242  -1.183063  -0.014318   0.076962   9.488673
     7  H   -0.153782   0.605876  -2.104844  -0.048703   0.137399   0.094962
     8  C    0.495948   0.231160  -5.456741  -0.102562   0.329132   0.286645
     9  C   -1.243941   1.011238  -3.586249  -0.056804   0.066445   0.150173
    10  H   -1.008950   0.419139   0.322337   0.017820  -0.143651  -0.020896
    11  O   -0.354440   0.028444   0.004497  -0.023857   0.031073   0.023693
    12  C   -0.031523  -0.033626   0.405533  -0.012009   0.029413   0.013353
    13  H   -0.146488   0.097800   0.719832   0.004691  -0.015096  -0.336850
    14  O   -0.022368  -0.048777  -0.110190   0.004708  -0.007328  -0.015722
    15  H    0.036083   0.008302  -0.039932  -0.000897   0.017742   0.105817
    16  H    0.030705  -0.012715   0.002869  -0.000974  -0.004829  -0.033221
    17  H    0.030638  -0.027973  -0.050482   0.003900   0.003923   0.008372
    18  H    0.018179  -0.108374  -0.084370   0.311344   0.058020   0.009882
    19  H    0.017524  -0.034351   0.049816   0.002225   0.004642   0.015067
    20  C    0.116179  -0.466392  -1.685579   0.049863   0.020978   0.023467
    21  N   -0.009298   0.014894   0.177736  -0.005160  -0.002861  -0.020274
    22  C    0.014836   0.025267  -0.472149  -0.000996   0.000492   0.008214
    23  N    0.030875  -0.030644   0.363294  -0.002540   0.019269  -0.011163
    24  C   -0.177922   0.016484  -0.973492   0.025412  -0.176782   0.011298
    25  H   -0.021187   0.122142   0.028791  -0.003851   0.020685   0.042217
    26  H   -0.000510  -0.004085  -0.016097  -0.000323  -0.001175  -0.000791
    27  O   -0.000928   0.000177   0.020816  -0.000103   0.000433   0.000273
    28  O    0.054474  -0.010814   0.011768  -0.005703   0.068432  -0.008162
               7          8          9         10         11         12
     1  C   -0.153782   0.495948  -1.243941  -1.008950  -0.354440  -0.031523
     2  C    0.605876   0.231160   1.011238   0.419139   0.028444  -0.033626
     3  C   -2.104844  -5.456741  -3.586249   0.322337   0.004497   0.405533
     4  O   -0.048703  -0.102562  -0.056804   0.017820  -0.023857  -0.012009
     5  H    0.137399   0.329132   0.066445  -0.143651   0.031073   0.029413
     6  O    0.094962   0.286645   0.150173  -0.020896   0.023693   0.013353
     7  H    2.679631   0.287149   0.173466  -0.002702  -0.007279  -0.014466
     8  C    0.287149  14.236621   0.707525  -0.142845  -0.001798  -0.129045
     9  C    0.173466   0.707525   9.170047   0.059003   0.113490  -0.352436
    10  H   -0.002702  -0.142845   0.059003   1.979794  -0.081958  -0.126484
    11  O   -0.007279  -0.001798   0.113490  -0.081958   8.644353  -0.000034
    12  C   -0.014466  -0.129045  -0.352436  -0.126484  -0.000034   4.964217
    13  H    0.003036  -0.242822  -0.818845   0.098347   0.000622  -0.008144
    14  O    0.006025   0.065615   0.111343   0.045289   0.004463   0.018009
    15  H   -0.007697   0.028096  -0.147020  -0.052742  -0.000424   0.266172
    16  H    0.008058  -0.008623   0.153132   0.024259   0.000718   0.072473
    17  H    0.006501   0.023457  -0.028100  -0.058464   0.363251   0.004416
    18  H   -0.001963   0.028572   0.000434  -0.004394   0.016335   0.002191
    19  H   -0.006915  -0.034775  -0.067435  -0.016327   0.000966  -0.003809
    20  C    0.168132  -3.551012   0.003974   0.008700  -0.012048  -0.056460
    21  N   -0.006631   0.187853  -0.024249  -0.000542   0.001049   0.006659
    22  C    0.013208   0.337120   0.008599   0.001121  -0.000234  -0.007889
    23  N    0.011348   0.246424   0.030029   0.000532  -0.000754  -0.016304
    24  C   -0.089698  -3.409603  -0.138764   0.031712   0.007346   0.010083
    25  H   -0.062415   0.252725   0.034672  -0.001749   0.000811   0.000783
    26  H   -0.000775   0.037350  -0.001440   0.000120   0.000000   0.000060
    27  O    0.000018   0.049802   0.000394  -0.000075   0.000005   0.000215
    28  O    0.005794   0.049397  -0.030134  -0.010426  -0.000863   0.003077
              13         14         15         16         17         18
     1  C   -0.146488  -0.022368   0.036083   0.030705   0.030638   0.018179
     2  C    0.097800  -0.048777   0.008302  -0.012715  -0.027973  -0.108374
     3  C    0.719832  -0.110190  -0.039932   0.002869  -0.050482  -0.084370
     4  O    0.004691   0.004708  -0.000897  -0.000974   0.003900   0.311344
     5  H   -0.015096  -0.007328   0.017742  -0.004829   0.003923   0.058020
     6  O   -0.336850  -0.015722   0.105817  -0.033221   0.008372   0.009882
     7  H    0.003036   0.006025  -0.007697   0.008058   0.006501  -0.001963
     8  C   -0.242822   0.065615   0.028096  -0.008623   0.023457   0.028572
     9  C   -0.818845   0.111343  -0.147020   0.153132  -0.028100   0.000434
    10  H    0.098347   0.045289  -0.052742   0.024259  -0.058464  -0.004394
    11  O    0.000622   0.004463  -0.000424   0.000718   0.363251   0.016335
    12  C   -0.008144   0.018009   0.266172   0.072473   0.004416   0.002191
    13  H    2.272297   0.027145  -0.172880   0.005874  -0.027761  -0.001854
    14  O    0.027145   8.579191  -0.190459  -0.057178  -0.000676  -0.002000
    15  H   -0.172880  -0.190459   1.795075  -0.361418   0.008351   0.000873
    16  H    0.005874  -0.057178  -0.361418   1.449705  -0.001923  -0.000451
    17  H   -0.027761  -0.000676   0.008351  -0.001923   0.621360  -0.001601
    18  H   -0.001854  -0.002000   0.000873  -0.000451  -0.001601   0.664950
    19  H    0.012848   0.155334   0.016324  -0.047361   0.000137   0.000275
    20  C    0.007090   0.012049  -0.007134  -0.002178   0.002118  -0.000076
    21  N   -0.000607  -0.000471   0.000246   0.000600  -0.000194  -0.000245
    22  C   -0.000597   0.002171  -0.000899   0.001239   0.000210  -0.000447
    23  N   -0.000449  -0.007335  -0.001132   0.001476   0.000123  -0.000684
    24  C    0.022125   0.028289  -0.012803   0.017590  -0.002488  -0.001982
    25  H   -0.001238   0.000235   0.000633  -0.000270   0.000168   0.002453
    26  H    0.000124   0.000058  -0.000067   0.000104  -0.000022  -0.000017
    27  O    0.000011  -0.000031   0.000020   0.000025  -0.000004   0.000024
    28  O   -0.001094  -0.071055  -0.000861   0.009010   0.000754  -0.000501
              19         20         21         22         23         24
     1  C    0.017524   0.116179  -0.009298   0.014836   0.030875  -0.177922
     2  C   -0.034351  -0.466392   0.014894   0.025267  -0.030644   0.016484
     3  C    0.049816  -1.685579   0.177736  -0.472149   0.363294  -0.973492
     4  O    0.002225   0.049863  -0.005160  -0.000996  -0.002540   0.025412
     5  H    0.004642   0.020978  -0.002861   0.000492   0.019269  -0.176782
     6  O    0.015067   0.023467  -0.020274   0.008214  -0.011163   0.011298
     7  H   -0.006915   0.168132  -0.006631   0.013208   0.011348  -0.089698
     8  C   -0.034775  -3.551012   0.187853   0.337120   0.246424  -3.409603
     9  C   -0.067435   0.003974  -0.024249   0.008599   0.030029  -0.138764
    10  H   -0.016327   0.008700  -0.000542   0.001121   0.000532   0.031712
    11  O    0.000966  -0.012048   0.001049  -0.000234  -0.000754   0.007346
    12  C   -0.003809  -0.056460   0.006659  -0.007889  -0.016304   0.010083
    13  H    0.012848   0.007090  -0.000607  -0.000597  -0.000449   0.022125
    14  O    0.155334   0.012049  -0.000471   0.002171  -0.007335   0.028289
    15  H    0.016324  -0.007134   0.000246  -0.000899  -0.001132  -0.012803
    16  H   -0.047361  -0.002178   0.000600   0.001239   0.001476   0.017590
    17  H    0.000137   0.002118  -0.000194   0.000210   0.000123  -0.002488
    18  H    0.000275  -0.000076  -0.000245  -0.000447  -0.000684  -0.001982
    19  H    0.554482   0.026289  -0.002414  -0.002049  -0.003314   0.010864
    20  C    0.026289  13.532610  -0.814107  -0.204741  -0.066253  -0.968378
    21  N   -0.002414  -0.814107   7.452322  -0.124299   0.012397   0.190948
    22  C   -0.002049  -0.204741  -0.124299   6.290741   0.075019  -0.661333
    23  N   -0.003314  -0.066253   0.012397   0.075019   8.328462  -1.110379
    24  C    0.010864  -0.968378   0.190948  -0.661333  -1.110379  13.080814
    25  H   -0.002057  -0.866176   0.138694   0.012257  -0.000350  -0.049910
    26  H   -0.000268  -0.237176   0.461744  -0.177429   0.006006  -0.017161
    27  O    0.000359  -0.009393  -0.118279   0.039492  -0.095813   0.084609
    28  O   -0.007317  -0.121068   0.008612   0.066468  -0.190900  -0.030640
              25         26         27         28
     1  C   -0.021187  -0.000510  -0.000928   0.054474
     2  C    0.122142  -0.004085   0.000177  -0.010814
     3  C    0.028791  -0.016097   0.020816   0.011768
     4  O   -0.003851  -0.000323  -0.000103  -0.005703
     5  H    0.020685  -0.001175   0.000433   0.068432
     6  O    0.042217  -0.000791   0.000273  -0.008162
     7  H   -0.062415  -0.000775   0.000018   0.005794
     8  C    0.252725   0.037350   0.049802   0.049397
     9  C    0.034672  -0.001440   0.000394  -0.030134
    10  H   -0.001749   0.000120  -0.000075  -0.010426
    11  O    0.000811   0.000000   0.000005  -0.000863
    12  C    0.000783   0.000060   0.000215   0.003077
    13  H   -0.001238   0.000124   0.000011  -0.001094
    14  O    0.000235   0.000058  -0.000031  -0.071055
    15  H    0.000633  -0.000067   0.000020  -0.000861
    16  H   -0.000270   0.000104   0.000025   0.009010
    17  H    0.000168  -0.000022  -0.000004   0.000754
    18  H    0.002453  -0.000017   0.000024  -0.000501
    19  H   -0.002057  -0.000268   0.000359  -0.007317
    20  C   -0.866176  -0.237176  -0.009393  -0.121068
    21  N    0.138694   0.461744  -0.118279   0.008612
    22  C    0.012257  -0.177429   0.039492   0.066468
    23  N   -0.000350   0.006006  -0.095813  -0.190900
    24  C   -0.049910  -0.017161   0.084609  -0.030640
    25  H    2.077313  -0.051408   0.002145  -0.002639
    26  H   -0.051408   1.074021  -0.009236   0.002596
    27  O    0.002145  -0.009236   8.582842  -0.008512
    28  O   -0.002639   0.002596  -0.008512   9.129354
          Atomic-Atomic Spin Densities.
               1          2          3          4          5          6
     1  C    0.028887   0.001243  -0.031104   0.003062  -0.006369   0.017174
     2  C    0.001243   0.056167   0.041805  -0.013090   0.005528  -0.022246
     3  C   -0.031104   0.041805   0.272912  -0.014697   0.007860  -0.093855
     4  O    0.003062  -0.013090  -0.014697   0.015356  -0.000457   0.002964
     5  H   -0.006369   0.005528   0.007860  -0.000457  -0.005892  -0.000387
     6  O    0.017174  -0.022246  -0.093855   0.002964  -0.000387   0.104936
     7  H   -0.003612  -0.008794  -0.049979   0.003058  -0.001002   0.007782
     8  C    0.010210  -0.011733  -0.193132   0.010919  -0.004380   0.028697
     9  C   -0.024782  -0.017579   0.005207   0.000939  -0.000193  -0.020632
    10  H   -0.006032  -0.002686   0.005150   0.000780   0.000372  -0.000852
    11  O   -0.003880   0.000541   0.000224  -0.000255   0.000123  -0.000154
    12  C    0.002014   0.002162   0.002459  -0.000213  -0.000175   0.000441
    13  H    0.008436   0.001386  -0.007211   0.000106  -0.000644   0.002887
    14  O    0.001696   0.000815  -0.004877   0.000008   0.000156   0.001970
    15  H    0.000722   0.000551  -0.001060  -0.000001  -0.000108   0.000475
    16  H    0.000553   0.000120  -0.000768   0.000000  -0.000067   0.000782
    17  H    0.001603  -0.000086  -0.000605   0.000053  -0.000123   0.000198
    18  H   -0.001372   0.001560  -0.000281  -0.000689   0.000259  -0.000142
    19  H    0.001326   0.000575  -0.006673   0.000063  -0.000438   0.001877
    20  C    0.009501  -0.006359  -0.066749   0.006424  -0.000939   0.019445
    21  N   -0.000745   0.001089   0.025969  -0.001122   0.000780  -0.001840
    22  C   -0.000483   0.001257   0.002839   0.000148   0.000131   0.001740
    23  N   -0.000027  -0.000834  -0.000386  -0.000270   0.000091   0.001405
    24  C   -0.002715   0.006421   0.069231  -0.000652   0.006453  -0.006562
    25  H    0.002414  -0.002507  -0.009778   0.001172  -0.000461   0.001948
    26  H   -0.000029   0.000127  -0.000976  -0.000015   0.000043   0.000018
    27  O    0.000022   0.000144  -0.000771   0.000029  -0.000098  -0.000072
    28  O   -0.000171  -0.000097  -0.002409   0.000156  -0.001593  -0.000542
               7          8          9         10         11         12
     1  C   -0.003612   0.010210  -0.024782  -0.006032  -0.003880   0.002014
     2  C   -0.008794  -0.011733  -0.017579  -0.002686   0.000541   0.002162
     3  C   -0.049979  -0.193132   0.005207   0.005150   0.000224   0.002459
     4  O    0.003058   0.010919   0.000939   0.000780  -0.000255  -0.000213
     5  H   -0.001002  -0.004380  -0.000193   0.000372   0.000123  -0.000175
     6  O    0.007782   0.028697  -0.020632  -0.000852  -0.000154   0.000441
     7  H    0.017153   0.020548   0.000281   0.000306  -0.000277   0.000285
     8  C    0.020548   0.290408   0.003336  -0.001861  -0.000264   0.001068
     9  C    0.000281   0.003336   0.058746   0.004343   0.003874  -0.008576
    10  H    0.000306  -0.001861   0.004343   0.005080   0.000256  -0.000807
    11  O   -0.000277  -0.000264   0.003874   0.000256   0.003671  -0.000345
    12  C    0.000285   0.001068  -0.008576  -0.000807  -0.000345   0.006475
    13  H   -0.001059   0.002152  -0.011191  -0.000542  -0.000834   0.000074
    14  O   -0.000173   0.001969  -0.000951  -0.000627  -0.000050  -0.002226
    15  H   -0.000089   0.000350  -0.001810  -0.000200  -0.000031   0.000960
    16  H   -0.000103   0.000134  -0.001009  -0.000032  -0.000028   0.000103
    17  H   -0.000139   0.000158  -0.001116  -0.000147  -0.000405   0.000101
    18  H    0.000326   0.000157   0.000547   0.000066   0.000006  -0.000030
    19  H   -0.000073   0.002531  -0.000891  -0.000249  -0.000014   0.000241
    20  C    0.023526   0.217181  -0.002065  -0.000031  -0.000113  -0.000931
    21  N   -0.000455  -0.015895   0.000245  -0.000009   0.000002   0.000090
    22  C   -0.000118  -0.018010   0.000996  -0.000056  -0.000001   0.000371
    23  N   -0.000268  -0.027793  -0.001267  -0.000015  -0.000004   0.000613
    24  C    0.003025   0.034031   0.007136  -0.000365  -0.000113  -0.001185
    25  H    0.001778   0.008019  -0.000240  -0.000024  -0.000099   0.000069
    26  H    0.000146   0.007696  -0.000029  -0.000001  -0.000002  -0.000003
    27  O   -0.000050   0.003265  -0.000005   0.000002  -0.000000  -0.000018
    28  O   -0.000466   0.004406   0.000540   0.000089   0.000008   0.000183
              13         14         15         16         17         18
     1  C    0.008436   0.001696   0.000722   0.000553   0.001603  -0.001372
     2  C    0.001386   0.000815   0.000551   0.000120  -0.000086   0.001560
     3  C   -0.007211  -0.004877  -0.001060  -0.000768  -0.000605  -0.000281
     4  O    0.000106   0.000008  -0.000001   0.000000   0.000053  -0.000689
     5  H   -0.000644   0.000156  -0.000108  -0.000067  -0.000123   0.000259
     6  O    0.002887   0.001970   0.000475   0.000782   0.000198  -0.000142
     7  H   -0.001059  -0.000173  -0.000089  -0.000103  -0.000139   0.000326
     8  C    0.002152   0.001969   0.000350   0.000134   0.000158   0.000157
     9  C   -0.011191  -0.000951  -0.001810  -0.001009  -0.001116   0.000547
    10  H   -0.000542  -0.000627  -0.000200  -0.000032  -0.000147   0.000066
    11  O   -0.000834  -0.000050  -0.000031  -0.000028  -0.000405   0.000006
    12  C    0.000074  -0.002226   0.000960   0.000103   0.000101  -0.000030
    13  H    0.013902   0.000130   0.000352   0.000074   0.000313   0.000009
    14  O    0.000130   0.012364  -0.000039  -0.000193   0.000020   0.000005
    15  H    0.000352  -0.000039  -0.000581   0.000241   0.000036  -0.000001
    16  H    0.000074  -0.000193   0.000241   0.000394   0.000018   0.000002
    17  H    0.000313   0.000020   0.000036   0.000018   0.000143  -0.000013
    18  H    0.000009   0.000005  -0.000001   0.000002  -0.000013  -0.000151
    19  H    0.000192   0.000143   0.000058   0.000139   0.000023  -0.000015
    20  C   -0.000207   0.000790   0.000002   0.000150   0.000213  -0.000489
    21  N    0.000034  -0.000068   0.000003  -0.000016  -0.000022  -0.000011
    22  C    0.000028  -0.000068   0.000040  -0.000017  -0.000004   0.000025
    23  N   -0.000064  -0.000257   0.000036   0.000073   0.000001  -0.000005
    24  C    0.000141  -0.000132  -0.000010  -0.000265  -0.000042  -0.000015
    25  H    0.000092   0.000074   0.000017   0.000027   0.000053  -0.000059
    26  H   -0.000003  -0.000003  -0.000000  -0.000000  -0.000000  -0.000006
    27  O    0.000003   0.000003  -0.000001   0.000000   0.000000   0.000003
    28  O    0.000052   0.000012  -0.000018   0.000063  -0.000001   0.000013
              19         20         21         22         23         24
     1  C    0.001326   0.009501  -0.000745  -0.000483  -0.000027  -0.002715
     2  C    0.000575  -0.006359   0.001089   0.001257  -0.000834   0.006421
     3  C   -0.006673  -0.066749   0.025969   0.002839  -0.000386   0.069231
     4  O    0.000063   0.006424  -0.001122   0.000148  -0.000270  -0.000652
     5  H   -0.000438  -0.000939   0.000780   0.000131   0.000091   0.006453
     6  O    0.001877   0.019445  -0.001840   0.001740   0.001405  -0.006562
     7  H   -0.000073   0.023526  -0.000455  -0.000118  -0.000268   0.003025
     8  C    0.002531   0.217181  -0.015895  -0.018010  -0.027793   0.034031
     9  C   -0.000891  -0.002065   0.000245   0.000996  -0.001267   0.007136
    10  H   -0.000249  -0.000031  -0.000009  -0.000056  -0.000015  -0.000365
    11  O   -0.000014  -0.000113   0.000002  -0.000001  -0.000004  -0.000113
    12  C    0.000241  -0.000931   0.000090   0.000371   0.000613  -0.001185
    13  H    0.000192  -0.000207   0.000034   0.000028  -0.000064   0.000141
    14  O    0.000143   0.000790  -0.000068  -0.000068  -0.000257  -0.000132
    15  H    0.000058   0.000002   0.000003   0.000040   0.000036  -0.000010
    16  H    0.000139   0.000150  -0.000016  -0.000017   0.000073  -0.000265
    17  H    0.000023   0.000213  -0.000022  -0.000004   0.000001  -0.000042
    18  H   -0.000015  -0.000489  -0.000011   0.000025  -0.000005  -0.000015
    19  H   -0.000421   0.000459  -0.000128   0.000131  -0.000030  -0.000073
    20  C    0.000459  -0.281073  -0.070780   0.038078   0.012745   0.060388
    21  N   -0.000128  -0.070780   0.226450   0.018817   0.006644  -0.005645
    22  C    0.000131   0.038078   0.018817  -0.227350   0.024199   0.029986
    23  N   -0.000030   0.012745   0.006644   0.024199   0.246676  -0.011075
    24  C   -0.000073   0.060388  -0.005645   0.029986  -0.011075  -0.246219
    25  H    0.000061  -0.009730   0.004278   0.002061   0.001270  -0.008086
    26  H   -0.000005  -0.016079   0.009846   0.002709  -0.000147   0.003653
    27  O   -0.000013  -0.002337  -0.016502  -0.013992  -0.013537  -0.005438
    28  O    0.000484   0.015126  -0.001301  -0.002181  -0.001864   0.004000
              25         26         27         28
     1  C    0.002414  -0.000029   0.000022  -0.000171
     2  C   -0.002507   0.000127   0.000144  -0.000097
     3  C   -0.009778  -0.000976  -0.000771  -0.002409
     4  O    0.001172  -0.000015   0.000029   0.000156
     5  H   -0.000461   0.000043  -0.000098  -0.001593
     6  O    0.001948   0.000018  -0.000072  -0.000542
     7  H    0.001778   0.000146  -0.000050  -0.000466
     8  C    0.008019   0.007696   0.003265   0.004406
     9  C   -0.000240  -0.000029  -0.000005   0.000540
    10  H   -0.000024  -0.000001   0.000002   0.000089
    11  O   -0.000099  -0.000002  -0.000000   0.000008
    12  C    0.000069  -0.000003  -0.000018   0.000183
    13  H    0.000092  -0.000003   0.000003   0.000052
    14  O    0.000074  -0.000003   0.000003   0.000012
    15  H    0.000017  -0.000000  -0.000001  -0.000018
    16  H    0.000027  -0.000000   0.000000   0.000063
    17  H    0.000053  -0.000000   0.000000  -0.000001
    18  H   -0.000059  -0.000006   0.000003   0.000013
    19  H    0.000061  -0.000005  -0.000013   0.000484
    20  C   -0.009730  -0.016079  -0.002337   0.015126
    21  N    0.004278   0.009846  -0.016502  -0.001301
    22  C    0.002061   0.002709  -0.013992  -0.002181
    23  N    0.001270  -0.000147  -0.013537  -0.001864
    24  C   -0.008086   0.003653  -0.005438   0.004000
    25  H    0.003682  -0.001484   0.000111   0.000600
    26  H   -0.001484  -0.015098  -0.002220   0.000011
    27  O    0.000111  -0.002220   0.466855   0.000213
    28  O    0.000600   0.000011   0.000213  -0.029389
 Mulliken charges and spin densities:
               1          2
     1  C    1.396119   0.007543
     2  C    0.543730   0.035479
     3  C    1.133572  -0.051657
     4  O   -0.619080   0.013775
     5  H   -0.560812  -0.001529
     6  O   -0.864557   0.047454
     7  H   -0.692731   0.011557
     8  C    1.199236   0.374167
     9  C    0.701453  -0.006147
    10  H   -0.335965   0.001909
    11  O   -0.757427   0.001834
    12  C    0.995574   0.003200
    13  H   -0.497117   0.008610
    14  O   -0.526334   0.010491
    15  H   -0.287370  -0.000106
    16  H   -0.246697   0.000375
    17  H    0.122008   0.000230
    18  H    0.095426  -0.000302
    19  H    0.361243  -0.000721
    20  C    1.096723  -0.053854
    21  N   -0.524123   0.179707
    22  C    0.756609  -0.138724
    23  N   -0.587239   0.235910
    24  C    0.283763  -0.064129
    25  H   -0.673472  -0.004742
    26  H   -0.064202  -0.011851
    27  O   -0.539285   0.415594
    28  O   -0.909047  -0.014074
 Sum of Mulliken charges =  -0.00000   1.00000
 Mulliken charges and spin densities with hydrogens summed into heavy atoms:
               1          2
     1  C    1.060154   0.009451
     2  C   -0.017081   0.033950
     3  C    0.440842  -0.040100
     4  O   -0.523653   0.013473
     6  O   -0.864557   0.047454
     8  C    1.199236   0.374167
     9  C    0.204336   0.002463
    11  O   -0.635420   0.002064
    12  C    0.461508   0.003470
    14  O   -0.165091   0.009770
    20  C    0.423250  -0.058596
    21  N   -0.588325   0.167855
    22  C    0.756609  -0.138724
    23  N   -0.587239   0.235910
    24  C    0.283763  -0.064129
    27  O   -0.539285   0.415594
    28  O   -0.909047  -0.014074
 Electronic spatial extent (au):  <R**2>=           4104.8848
 Charge=             -0.0000 electrons
 Dipole moment (field-independent basis, Debye):
    X=             -1.9644    Y=             -7.1124    Z=             -5.0618  Tot=              8.9480
 Quadrupole moment (field-independent basis, Debye-Ang):
   XX=            -93.9084   YY=           -102.6209   ZZ=           -101.5668
   XY=            -13.2964   XZ=             -0.8085   YZ=              1.2193
 Traceless Quadrupole moment (field-independent basis, Debye-Ang):
   XX=              5.4570   YY=             -3.2555   ZZ=             -2.2014
   XY=            -13.2964   XZ=             -0.8085   YZ=              1.2193
 Octapole moment (field-independent basis, Debye-Ang**2):
  XXX=           -138.0719  YYY=            -46.2920  ZZZ=             -2.5370  XYY=             16.9185
  XXY=            -58.3467  XXZ=            -47.0888  XZZ=              2.6260  YZZ=             -1.8188
  YYZ=            -27.8714  XYZ=              5.4166
 Hexadecapole moment (field-independent basis, Debye-Ang**3):
 XXXX=          -3857.0922 YYYY=          -1072.4864 ZZZZ=           -444.5156 XXXY=           -159.2155
 XXXZ=             -6.2973 YYYX=             -7.3607 YYYZ=            -12.2693 ZZZX=              3.4784
 ZZZY=             16.8300 XXYY=           -766.0037 XXZZ=           -652.9456 YYZZ=           -260.1298
 XXYZ=             20.2158 YYXZ=             -5.5284 ZZXY=             -6.1664
 N-N= 1.309173373472D+03 E-N=-4.748555438191D+03  KE= 9.045939992690D+02
                          Isotropic Fermi Contact Couplings
        Atom                 a.u.       MegaHertz       Gauss      10(-4) cm-1
     1  C(13)              0.00014       0.15711       0.05606       0.05241
     2  C(13)              0.00845       9.50502       3.39163       3.17053
     3  C(13)             -0.00710      -7.98414      -2.84894      -2.66322
     4  O(17)              0.00226      -1.36807      -0.48816      -0.45634
     5  H(1)              -0.00022      -1.00460      -0.35847      -0.33510
     6  O(17)              0.01953     -11.83805      -4.22411      -3.94875
     7  H(1)               0.00366      16.35538       5.83601       5.45557
     8  C(13)              0.03028      34.03760      12.14546      11.35372
     9  C(13)             -0.00223      -2.50613      -0.89425      -0.83596
    10  H(1)               0.00126       5.63426       2.01044       1.87939
    11  O(17)              0.00109      -0.66164      -0.23609      -0.22070
    12  C(13)             -0.00036      -0.40149      -0.14326      -0.13392
    13  H(1)               0.00325      14.51267       5.17848       4.84090
    14  O(17)              0.00197      -1.19645      -0.42692      -0.39909
    15  H(1)              -0.00001      -0.03813      -0.01360      -0.01272
    16  H(1)               0.00022       0.96148       0.34308       0.32072
    17  H(1)               0.00003       0.12350       0.04407       0.04120
    18  H(1)              -0.00014      -0.62946      -0.22461      -0.20997
[...]
 .00001409,0.00001752,0.00004057,0.00004972,-0.00000047,-0.00021811,-0.
 00002002,-0.00006804,-0.04492827,-0.01787534,-0.05254843,0.05933073,0.
 02309488,0.07986403,-0.00016441,0.00080393,0.00320835,0.00246822,0.005
 16481,-0.00981584,-0.01233336,-0.00351051,0.01267725,0.00052054,-0.003
 01397,0.00151205,-0.00128965,-0.00061881,0.00092500,-0.00011913,0.0036
 3197,-0.00286337,0.00176414,0.00156616,0.00007245,0.04759401,-0.017582
 39,-0.00106128,0.00082419,-0.00045323,-0.00000672,-0.00086820,0.000012
 97,-0.00068327,-0.00051906,-0.00032118,-0.00046685,-0.00091950,-0.0008
 7824,-0.00105688,-0.00019190,-0.00000299,0.00001293,0.00216942,0.00089
 534,0.00048406,0.00014066,0.00019067,0.00009886,-0.00004874,0.00016693
 ,0.00000577,0.00013241,0.00008781,0.00005260,0.00057119,0.00032732,-0.
 00001556,-0.00308922,-0.00041495,0.00062542,-0.07151176,0.00409713,-0.
 01110487,-0.01766410,0.05972110,0.00558653,0.84063018,0.00026018,0.000
 05410,-0.00072571,0.00030870,0.00056295,0.00242784,0.00198466,-0.00081
 619,-0.00378396,-0.00021272,-0.00021287,-0.00046524,0.00082126,0.00033
 785,-0.00069285,0.00104227,-0.00224089,0.00093233,-0.00245904,-0.00009
 552,-0.00077901,0.02286229,-0.01100297,0.00127132,0.00047675,-0.000379
 28,0.00063626,0.00014677,0.00000139,0.00007528,-0.00036638,-0.00068307
 ,-0.00018706,0.00182720,0.00156432,0.00246344,0.00020939,0.00004455,-0
 .00041384,-0.00511830,-0.00063279,-0.00121847,-0.00045138,-0.00038739,
 -0.00017656,0.00018538,-0.00011956,-0.00016428,0.00008431,0.00007339,0
 .00001718,-0.00022004,0.00004258,-0.00011223,0.00777985,-0.00053586,-0
 .00086861,-0.08149546,0.02921812,-0.00480889,0.08632168,-0.10550466,-0
 .00220611,-0.19523712,0.41058508,0.00004541,-0.00005735,-0.00097979,0.
 00022628,-0.00070835,0.00296759,0.00163888,0.00048703,-0.00402017,-0.0
 0017068,0.00078375,-0.00053984,0.00022826,0.00013177,-0.00017312,0.000
 02195,-0.00071424,0.00036290,-0.00044314,-0.00030497,0.00009046,-0.002
 65492,-0.00197422,-0.00239120,-0.00034379,0.00023117,0.00009803,0.0002
 7052,-0.00002016,0.00016405,0.00009141,0.00005040,0.00005414,0.0001949
 7,0.00019940,0.00039569,0.00001883,-0.00007494,-0.00001487,-0.00072578
 ,-0.00019680,-0.00048850,-0.00006816,-0.00002512,-0.00010276,-0.000009
 76,-0.00001864,-0.00005289,-0.00004210,-0.00001504,0.00001027,-0.00009
 381,-0.00010324,-0.00006225,0.00129181,-0.00032114,0.00054331,-0.00418
 700,-0.00709172,0.00130246,-0.00388403,-0.00129180,-0.06658400,-0.0330
 3699,0.02208256,0.20730138,0.00057344,-0.00039473,-0.00209885,-0.00198
 442,-0.00319677,0.00652027,0.01036785,0.00028831,-0.00802270,-0.000454
 58,0.00141230,-0.00093666,0.00142878,0.00098841,-0.00122835,0.00091683
 ,-0.00378759,0.00170214,-0.00237255,-0.00109308,-0.00038763,-0.0490238
 8,-0.01722076,0.00014612,-0.00018430,0.00030899,0.00046027,0.00061200,
 0.00005835,0.00041259,-0.00002071,-0.00032185,0.00011565,0.00185633,0.
 00148414,0.00296332,0.00023437,-0.00000772,-0.00026003,-0.00640796,-0.
 00048970,-0.00125027,-0.00048426,-0.00035041,-0.00029180,0.00014009,-0
 .00015187,-0.00023440,0.00000839,0.00001047,-0.00002820,-0.00038752,-0
 .00015250,0.00000742,0.00952786,-0.00120910,-0.00113281,-0.00185253,-0
 .01073189,0.00450970,-0.00556116,0.00543861,0.00163051,-0.14954310,0.1
 6467191,0.00631796,0.67864133,-0.00013365,0.00000362,0.00002150,0.0018
 7500,0.00029324,-0.00130097,0.00014892,-0.00840996,-0.00266779,-0.0001
 2219,0.00004776,0.00044977,-0.00050013,-0.00031012,0.00069909,-0.00076
 523,0.00270155,-0.00035349,-0.00165380,-0.00040047,-0.00011838,-0.0370
 0942,-0.00050472,-0.00458849,0.00038109,-0.00005719,-0.00061908,-0.000
 11329,-0.00005292,0.00001199,-0.00003139,0.00036269,0.00015642,-0.0010
 9797,-0.00103921,-0.00167030,-0.00025590,-0.00003500,0.00021976,0.0038
 5311,0.00031450,0.00077989,0.00026108,0.00026080,0.00018261,-0.0000795
 6,0.00007102,0.00011994,-0.00003052,0.00001272,0.00004525,0.00021881,0
 .00006318,-0.00009801,-0.00538324,0.00069609,0.00045478,0.01868078,-0.
 00279080,0.00050446,0.00653573,-0.06181204,-0.00635829,0.11618846,-0.2
 4007199,-0.01490178,-0.14788628,0.40389283,-0.00014800,0.00024374,0.00
 030153,0.00246614,0.00201534,-0.00184729,-0.00342580,-0.00423477,-0.00
 106944,-0.00011203,-0.00098861,0.00046109,-0.00060016,-0.00033994,0.00
 034409,-0.00105974,0.00250431,-0.00037810,-0.00016447,0.00022309,-0.00
 050771,0.00440085,-0.00552828,0.01832357,0.00068036,-0.00008821,-0.000
 38961,-0.00018481,-0.00006191,-0.00009075,-0.00030206,-0.00010576,-0.0
 0002932,-0.00072803,-0.00061576,-0.00090338,-0.00023288,-0.00007761,0.
 00010617,0.00174173,0.00036573,0.00031184,0.00005066,0.00016130,0.0000
 9527,-0.00001326,0.00003829,0.00004541,0.00004892,0.00006176,0.0000393
 4,0.00023180,0.00012012,-0.00007952,-0.00231790,-0.00008050,0.00082481
 ,-0.00354751,0.00598009,-0.00416194,0.01173095,-0.00300147,0.01796784,
 -0.00155424,-0.03259033,-0.06803057,-0.03730530,0.04781818,0.06090938,
 -0.00103078,0.00070499,0.00215676,0.00577798,0.00481879,-0.00878224,-0
 .01497511,-0.03783358,-0.00389917,0.00039647,-0.00159366,0.00161645,-0
 .00307828,-0.00161396,0.00298780,0.00065308,0.00900731,-0.00185429,-0.
 00469847,0.00052061,-0.00045147,-0.07280296,-0.04367522,-0.01969596,0.
 00035064,-0.00023623,-0.00078531,-0.00088271,-0.00002774,-0.00057520,-
 0.00028276,0.00037055,0.00007029,-0.00250075,-0.00170216,-0.00263244,-
 0.00018712,-0.00017521,0.00027130,0.00419217,0.00041362,0.00135259,0.0
 0036695,0.00042611,0.00007833,-0.00016547,0.00028830,0.00010544,0.0000
 4501,0.00015298,0.00020750,0.00077362,0.00043361,-0.00046852,-0.006534
 96,0.00197612,0.00170410,0.01525324,0.04161334,-0.00203420,0.02953274,
 -0.01617259,-0.00615151,-0.13408329,0.00285591,0.01463098,-0.27791476,
 -0.03716610,-0.01944327,0.67998714,0.00048665,-0.00054240,-0.00063354,
 -0.00399464,-0.00092828,0.00369252,-0.01030166,0.01126817,-0.00326155,
 0.00036812,0.00037770,-0.00161245,0.00201622,0.00137407,-0.00194398,0.
 00112050,-0.00766076,0.00093947,0.00307891,0.00143564,0.00052984,-0.02
 683707,-0.13892653,-0.01414315,-0.00015276,0.00014800,0.00089314,0.000
 42157,0.00011746,0.00017817,-0.00012998,-0.00085793,-0.00026916,0.0032
 2594,0.00234818,0.00430770,0.00030817,-0.00006048,-0.00037293,-0.01202
 172,0.00043337,-0.00135523,-0.00070947,-0.00062494,-0.00044333,0.00017
 247,-0.00022888,-0.00034548,0.00003215,-0.00008704,-0.00008756,-0.0007
 1340,-0.00036629,0.00019954,0.01571429,-0.00469397,-0.00248561,0.01321
 327,-0.02267645,-0.00519365,-0.00500763,0.00070554,-0.00319099,0.02135
 734,-0.01759051,0.00297208,-0.07205524,-0.09680754,-0.00566817,-0.1696
 1031,0.62129991,0.00074706,-0.00090686,0.00146315,-0.00837222,-0.00337
 203,-0.00060137,0.00044145,0.00642539,0.01273981,0.00047013,0.00073268
 ,-0.00034745,0.00218506,0.00079369,-0.00153510,0.00411833,-0.00723560,
 0.00124936,0.00079429,-0.00025395,0.00126658,-0.03361529,-0.01485021,-
 0.08686692,-0.00132442,-0.00030944,0.00100915,-0.00010818,0.00021445,-
 0.00014888,0.00016480,-0.00001863,-0.00030865,0.00182416,0.00153683,0.
 00204877,0.00061935,0.00036624,-0.00030718,-0.00464575,-0.00017234,-0.
 00040916,-0.00009961,-0.00044728,-0.00014981,0.00008120,-0.00003823,-0
 .00009145,-0.00000010,-0.00014732,-0.00015209,-0.00038862,-0.00013336,
 0.00033144,0.00545084,-0.00065181,-0.00258032,0.00760105,-0.00562228,0
 .01280161,-0.01078928,0.00132019,0.00098608,0.01890370,0.00599256,-0.0
 1546628,-0.01510754,-0.00408094,-0.04548465,-0.05729090,0.15133878,0.2
 3058863,-0.00006121,0.00008989,0.00005811,-0.00017010,0.00069743,-0.00
 029028,0.00029126,0.00241406,0.00075777,0.00039850,-0.00069242,-0.0002
 0344,0.00002143,0.00001147,-0.00006075,0.00031311,-0.00098331,0.000104
 96,-0.00028458,-0.00065432,-0.00061004,0.01122141,0.01848594,0.0025744
 1,-0.00023099,0.00005228,0.00007104,0.00001271,-0.00000097,-0.00001187
 ,0.00009701,-0.00005281,0.00000608,0.00005771,0.00003906,0.00006607,0.
 00001717,-0.00002098,0.00001624,-0.00015794,-0.00007992,-0.00002976,0.
 00000114,-0.00000822,-0.00002447,-0.00000384,-0.00000651,-0.00000312,-
 0.00001163,-0.00002854,-0.00000644,-0.00030951,0.00001273,0.00012329,0
 .00026726,-0.00002214,-0.00002454,-0.07877737,-0.07100468,-0.01307939,
 -0.01268183,-0.03941251,-0.00576486,0.00001270,0.00888933,-0.00186924,
 0.00122227,-0.00161994,0.00010116,-0.00436475,0.00070801,-0.00059872,0
 .08566759,0.00001224,-0.00002825,-0.00006144,0.00015787,-0.00028234,0.
 00027409,-0.00103529,0.00007054,-0.00069508,-0.00050525,0.00018079,0.0
 0018260,-0.00004350,-0.00004575,0.00005950,-0.00034415,0.00035425,0.00
 025555,0.00100504,0.00043453,0.00041913,-0.00923316,-0.01523739,-0.003
 85643,0.00014889,0.00005776,-0.00002913,-0.00001157,-0.00001603,0.0000
 1391,-0.00007266,-0.00000481,-0.00001849,-0.00009045,-0.00003700,-0.00
 007834,0.00000516,0.00000317,-0.00001210,0.00016584,0.00004800,0.00004
 313,0.00000487,0.00001945,0.00002296,-0.00000010,0.00000042,0.00000405
 ,0.00000305,0.00001600,-0.00000050,0.00002659,0.00010344,-0.00002315,-
 0.00028002,0.00001228,0.00002927,-0.07680023,-0.31889288,-0.03554901,-
 0.00178853,-0.00030485,-0.00134046,0.00179953,0.00271259,-0.00112995,-
 0.00072473,0.00023438,0.00001653,0.00494632,0.00187124,0.00202389,0.08
 402027,0.32987351,0.00014001,-0.00001379,0.00009832,-0.00028750,-0.001
 19602,0.00005988,0.00156118,0.00210827,-0.00075876,-0.00049646,0.00076
 368,-0.00008229,0.00012303,0.00004425,-0.00011070,-0.00007691,-0.00042
 269,0.00010289,0.00013781,-0.00037523,-0.00009639,-0.00065989,-0.00225
 982,0.00758982,-0.00012983,0.00002829,0.00010255,0.00001191,0.00000683
 ,-0.00002070,-0.00003382,0.00006360,-0.00011002,-0.00001647,0.00007610
 ,0.00002287,0.00006186,0.00006875,-0.00004798,0.00006714,0.00001192,-0
 .00007023,0.00002678,-0.00001963,0.00001492,0.00000425,0.00000840,0.00
 000476,-0.00000085,-0.00000104,-0.00000554,0.00018057,0.00001065,0.000
 08501,-0.00016723,0.00006016,0.00003272,-0.01523625,-0.03483589,-0.049
 26726,-0.00051587,-0.00637169,0.00996837,-0.00126752,0.00306264,0.0085
 4386,-0.00057071,0.00069168,-0.00067242,0.00225124,-0.00098541,0.00179
 750,0.01625084,0.03964784,0.02996779,-0.00007606,-0.00002703,-0.000130
 04,-0.00014774,-0.00009957,0.00032310,0.00076464,0.00154004,-0.0002181
 2,0.00006331,0.00007340,-0.00007814,0.00002078,-0.00001597,-0.00002297
 ,-0.00039983,-0.00010955,0.00020649,-0.00011488,-0.00000509,-0.0000318
 3,-0.00233165,-0.00392076,-0.00155857,-0.00005638,-0.00002806,-0.00008
 611,0.00001349,-0.00000514,0.00002094,0.00006289,0.00002051,0.00003027
 ,0.00000875,0.00006830,0.00001000,-0.00000896,0.00002510,-0.00000032,0
 .00001730,-0.00004598,-0.00002255,0.00001165,-0.00001390,0.00000232,-0
 .00000370,-0.00000495,0.00000461,-0.00001274,-0.00001286,-0.00000174,-
 0.00006851,-0.00001822,-0.00000469,-0.00000775,0.00002999,0.00001247,-
 0.01725075,0.02620302,0.00081256,-0.23901184,0.18720741,-0.00473390,0.
 01555610,-0.00796580,0.00060788,0.00021033,-0.00440890,-0.00139065,-0.
 00358007,-0.00015552,0.00087361,0.00056336,-0.00038220,0.00035748,0.24
 683215,0.00009258,0.00019032,0.00041384,0.00031462,0.00073087,-0.00131
 819,-0.00127431,0.00003488,0.00098920,0.00008252,-0.00073358,0.0002939
 0,-0.00010824,-0.00001911,0.00008475,-0.00051588,0.00036600,-0.0003678
 1,0.00017220,-0.00002324,-0.00005075,-0.00363807,0.00090813,-0.0008726
 7,0.00024136,0.00000501,-0.00010860,-0.00010133,-0.00000382,-0.0000681
 4,-0.00014199,-0.00016735,-0.00007328,-0.00010919,-0.00016915,-0.00008
 209,-0.00009589,-0.00002063,0.00002169,0.00009740,0.00011359,0.0000892
 1,-0.00001181,0.00005007,0.00001365,0.00000841,0.00000974,-0.00000563,
 0.00003748,0.00004015,0.00000588,0.00004035,0.00011929,0.00002238,-0.0
 0011881,-0.00006884,-0.00002078,-0.00801735,0.01232424,0.00020153,0.19
 114504,-0.27548241,-0.00012987,0.03063369,-0.00995087,-0.00051112,-0.0
 0341310,-0.00709120,0.00019207,-0.00132840,-0.00042049,-0.00003046,-0.
 00042154,0.00095547,0.00036824,-0.20090377,0.27385204,-0.00001076,-0.0
 0003930,-0.00004326,-0.00060553,-0.00055392,0.00059915,0.00086394,0.00
 087493,0.00133054,-0.00003011,0.00025691,-0.00013366,0.00004267,-0.000
 00017,-0.00008036,0.00043676,-0.00034025,0.00005563,0.00003396,-0.0001
 3205,0.00006901,-0.00374605,-0.00063809,0.00671299,-0.00010868,-0.0000
 8147,-0.00010587,0.00002750,-0.00000180,0.00002317,0.00006116,0.000041
 04,-0.00000877,0.00008225,0.00004919,0.00005338,-0.00000940,0.00002452
 ,0.00002459,-0.00002551,-0.00004044,-0.00005881,-0.00000091,-0.0000263
 8,-0.00000161,-0.00000356,-0.00000009,-0.00000106,-0.00000679,-0.00000
 524,-0.00000499,-0.00002926,-0.00001449,0.00003241,-0.00000488,0.00005
 628,0.00000583,-0.00323971,0.00264752,-0.00012096,-0.00283763,-0.00393
 024,-0.01978096,0.00101692,-0.00002325,0.00021474,0.00066388,0.0002456
 6,0.00469657,0.00187721,0.00079176,-0.00374520,0.00086696,0.00064468,-
 0.00511125,0.00517278,0.00101172,0.01811700,0.00026120,-0.00007879,-0.
 00103015,-0.00069960,-0.00134347,0.00325416,0.00476267,0.00110218,-0.0
 0453257,-0.00030251,0.00051416,-0.00030073,0.00046281,0.00030673,-0.00
 045850,-0.00042517,-0.00131270,0.00077918,-0.00060188,-0.00055102,-0.0
 0002016,-0.02182564,0.00564401,0.00044142,0.00005923,0.00021402,-0.000
 04311,0.00029111,-0.00000137,0.00023035,-0.00003027,-0.00014047,0.0000
 7875,0.00054354,0.00033624,0.00085609,-0.00001746,-0.00004785,-0.00003
 120,-0.00197342,-0.00020882,-0.00028012,-0.00017312,-0.00006750,-0.000
 08013,0.00005665,-0.00006722,-0.00006475,0.00001571,0.00002738,-0.0000
 1155,-0.00009922,-0.00003565,0.00000476,0.00291095,-0.00028281,-0.0004
 8994,0.02890568,-0.02391732,0.00347005,-0.10194629,-0.07155394,-0.0008
 1473,-0.55026080,0.01007913,0.02458635,-0.11143346,0.03529376,0.014845
 51,0.05483692,0.01514621,-0.00319525,-0.00328177,-0.00088664,-0.000956
 72,-0.00202028,-0.00291262,0.00007052,0.72225691,-0.00003694,0.0000062
 2,0.00021313,-0.00005371,-0.00019633,-0.00072653,-0.00065934,0.0001920
 9,0.00123639,0.00002211,0.00005346,0.00016053,-0.00021708,-0.00006880,
 0.00019051,-0.00027334,0.00056776,-0.00025376,0.00074334,0.00011626,0.
 00023338,-0.00555834,0.00081398,-0.00043358,-0.00010142,0.00011168,-0.
 00014210,-0.00003933,0.00000034,-0.00002426,0.00008482,0.00017453,0.00
 004030,-0.00046786,-0.00040894,-0.00062902,-0.00005269,-0.00000959,0.0
 0010218,0.00131555,0.00015994,0.00031623,0.00011401,0.00010290,0.00005
 194,-0.00004106,0.00002958,0.00004147,-0.00001491,-0.00001594,-0.00000
 523,0.00007768,-0.00000578,0.00003345,-0.00198159,0.00017485,0.0001987
 2,0.01241596,-0.01273707,0.00081524,-0.08245219,-0.01970147,0.00136482
 ,-0.01423356,-0.07242125,0.00211919,0.05193211,0.00261036,-0.00030604,
 0.00325017,0.00124452,-0.00313708,-0.00227147,-0.00011378,-0.00129189,
 0.00315576,0.00386850,0.00012689,0.03086912,0.09911744,-0.00000421,0.0
 0001207,0.00022444,-0.00015549,0.00011772,-0.00071060,-0.00041052,0.00
 000898,0.00096239,0.00007275,-0.00017923,0.00015494,-0.00006039,-0.000
 01605,0.00005325,0.00004117,0.00006715,-0.00005062,0.00015791,0.000123
 54,0.00003711,-0.00021488,0.00054453,-0.00106066,0.00004759,-0.0000297
 1,-0.00000594,-0.00005736,0.00000762,-0.00003256,0.00001984,0.00000878
 ,0.00001971,-0.00007388,-0.00004887,-0.00015408,0.00000947,0.00002002,
 0.00000744,0.00024885,0.00003227,0.00016678,0.00002396,0.00000942,0.00
 002338,-0.00000072,-0.00000445,0.00002200,0.00000563,-0.00000142,-0.00
 001327,0.00000495,0.00002157,0.00001132,-0.00039320,0.00009926,-0.0001
 5567,0.00040400,0.00075612,0.00184861,0.00194537,0.00062019,0.02163232
 ,0.02570929,0.00533572,-0.07257981,0.01232644,-0.00786235,0.01453436,-
 0.00005807,-0.00107274,0.00819826,0.00061840,0.00042115,-0.00195401,0.
 00005006,0.00004437,-0.00273051,-0.03984484,0.00099453,0.03292858,0.00
 098545,0.00006531,-0.00162522,-0.00346311,-0.00191697,0.00662881,0.002
 20864,0.00965494,-0.00436474,-0.00009447,0.00029708,-0.00129632,0.0013
 3171,0.00078333,-0.00220853,-0.00075437,-0.00974492,-0.00144992,0.0006
 1964,-0.00040782,0.00012119,-0.00144226,0.02020822,0.00998055,0.000043
 87,0.00066758,0.00076755,0.00068333,0.00016604,0.00035629,-0.00016188,
 -0.00100272,-0.00011081,0.00338536,0.00233465,0.00741792,0.00013426,-0
 .00021873,-0.00040147,-0.02236920,0.00271509,-0.00082101,-0.00118300,-
 0.00052028,-0.00120899,0.00012761,-0.00011572,-0.00086343,0.00008761,0
 .00004220,-0.00007778,-0.00057306,-0.00027448,0.00010371,0.00203064,-0
 .00486584,-0.00247541,0.00344897,-0.00771408,0.00091225,-0.00965152,0.
 00760706,0.00180189,0.03022243,-0.01728075,-0.00264209,-0.09811469,0.0
 5482077,0.03623205,-0.26508373,0.22431959,0.09126085,0.00017089,-0.000
 09720,-0.00075809,0.00096641,0.00024664,-0.00055776,-0.02027248,0.0044
 7421,-0.00041210,0.37671695,-0.00005257,-0.00035772,0.00144296,0.00119
 823,0.00099376,-0.00414559,0.00161592,-0.00271890,0.00603396,-0.000597
 96,-0.00107421,0.00087838,-0.00067441,-0.00116246,0.00023937,-0.003059
 53,0.00384415,-0.00233529,0.00029197,0.00049784,0.00004798,0.02544021,
 -0.05731392,-0.03166208,0.00137654,-0.00054474,-0.00063533,-0.00057856
 ,-0.00014324,-0.00019578,-0.00033241,0.00070773,-0.00011331,-0.0025902
 1,-0.00229497,-0.00497169,-0.00035105,0.00029554,0.00030532,0.01603213
 ,0.00279612,0.00097212,0.00081563,0.00055732,0.00071762,-0.00032293,0.
 00013474,0.00036343,0.00000137,-0.00005970,0.00000443,0.00051979,0.000
 09923,0.00013811,-0.01790001,-0.00009315,0.00327763,-0.00968365,-0.006
 75611,-0.00130149,0.00198794,-0.00272393,0.00107800,-0.01037820,0.0174
 4875,0.00040324,0.03659374,0.00781842,-0.00605319,0.23935643,-0.350151
 32,-0.12933686,0.00185981,-0.00198472,0.00075179,-0.00020025,0.0005823
 8,-0.00094391,0.00387526,-0.00366544,-0.00003021,-0.28424321,0.3952685
 4,-0.00074750,0.00075900,0.00001499,0.00297760,0.00049836,-0.00218478,
 -0.00036437,0.00021931,-0.00251086,0.00008972,-0.00000185,0.00087508,-
 0.00136401,-0.00053440,0.00110703,-0.00466738,-0.00156463,-0.00235724,
 0.00001816,-0.00005434,0.00000325,0.01595287,-0.03156597,0.00846575,0.
 00192335,-0.00006586,-0.00061484,-0.00018276,-0.00013792,-0.00002505,0
 .00030367,0.00010445,0.00035660,-0.00004125,-0.00112137,-0.00279871,-0
 .00038711,0.00001408,0.00018963,0.00663961,-0.00041033,0.00439552,0.00
 033972,0.00026349,0.00058601,0.00015836,-0.00012244,0.00051307,0.00001
 975,0.00009600,0.00003584,0.00016896,0.00017583,-0.00015461,-0.0061485
 6,0.00204692,-0.00407074,-0.00437694,-0.00334324,-0.00130765,0.0017698
 2,-0.00201893,-0.00161291,-0.00795779,0.00491923,0.00943715,0.03107897
 ,-0.00778111,0.00468342,0.09481254,-0.12277805,-0.11628585,0.00096157,
 -0.00126420,-0.00008372,-0.00020493,-0.00011305,-0.00000775,0.00353730
 ,-0.00128940,-0.00137717,-0.13430938,0.16507041,0.10472854\\0.00000447
 ,0.00000829,-0.00000456,0.00000445,-0.00001479,0.00001749,0.00001744,0
 .00000717,-0.00000653,-0.00000118,0.00000783,0.00000017,0.00000253,-0.
 00000067,-0.00000218,-0.00001433,-0.00000397,-0.00000881,-0.00000198,-
 0.00000092,0.00000027,0.00000732,-0.00001540,0.00000763,0.00000156,-0.
 00001081,0.00000438,-0.00000138,-0.00000196,0.00000024,-0.00000680,-0.
 00000203,-0.00000542,-0.00000290,0.00000251,0.00000860,-0.00000192,0.0
 0000394,-0.00000122,-0.00001919,0.00000167,0.00000395,-0.00000201,-0.0
 0000018,-0.00000080,0.00000078,-0.00000128,-0.00000019,-0.00000051,-0.
 00000149,0.00000221,0.00000282,0.00000202,-0.00000282,0.00001464,0.000
 00148,0.00000079,-0.00001809,0.00001157,-0.00000044,-0.00000015,-0.000
 00009,-0.00000970,-0.00000826,-0.00000230,-0.00001603,-0.00000102,0.00
 001171,0.00000099,0.00000628,-0.00002259,-0.00000503,0.00000014,-0.000
 00100,0.00000085,0.00000286,0.00000508,0.00000238,0.00000944,0.0000015
 3,0.00000825,0.00000499,0.00001467,0.00000551\\\@
 The archive entry for this job was punched.


  THE LARGE PRINT GIVETH,
  AND THE SMALL PRINT TAKETH AWAY.

                     -- TOM WAITS
 Job cpu time:       0 days 17 hours 35 minutes  1.8 seconds.
 Elapsed time:       0 days  0 hours 26 minutes 35.7 seconds.
 File lengths (MBytes):  RWF=   1167 Int=      0 D2E=      0 Chk=     28 Scr=      1
 Normal termination of Gaussian 16 at Mon Oct 28 03:18:18 2024.
