 Entering Gaussian System, Link 0=g16
 Input=UridineMSarrgPBE0aVDZ.gjf
 Output=UridineMSarrgPBE0aVDZ.log
 Initial command:
 /sw/contrib/chem-src/g16/c01/g16/l1.exe "/scr/Gau-28393.inp" -scrdir="/scr/"
 Entering Link 1 = /sw/contrib/chem-src/g16/c01/g16/l1.exe PID=     28394.
  
 Copyright (c) 1988-2019, Gaussian, Inc.  All Rights Reserved.
  
 This is part of the Gaussian(R) 16 program.  It is based on
 the Gaussian(R) 09 system (copyright 2009, Gaussian, Inc.),
 the Gaussian(R) 03 system (copyright 2003, Gaussian, Inc.),
 the Gaussian(R) 98 system (copyright 1998, Gaussian, Inc.),
 the Gaussian(R) 94 system (copyright 1995, Gaussian, Inc.),
 the Gaussian 92(TM) system (copyright 1992, Gaussian, Inc.),
 the Gaussian 90(TM) system (copyright 1990, Gaussian, Inc.),
 the Gaussian 88(TM) system (copyright 1988, Gaussian, Inc.),
 the Gaussian 86(TM) system (copyright 1986, Carnegie Mellon
 University), and the Gaussian 82(TM) system (copyright 1983,
 Carnegie Mellon University). Gaussian is a federally registered
 trademark of Gaussian, Inc.
  
 This software contains proprietary and confidential information,
 including trade secrets, belonging to Gaussian, Inc.
  
 This software is provided under written license and may be
 used, copied, transmitted, or stored only in accord with that
 written license.
  
 The following legend is applicable only to US Government
 contracts under FAR:
  
                    RESTRICTED RIGHTS LEGEND
  
 Use, reproduction and disclosure by the US Government is
 subject to restrictions as set forth in subparagraphs (a)
 and (c) of the Commercial Computer Software - Restricted
 Rights clause in FAR 52.227-19.
  
 Gaussian, Inc.
 340 Quinnipiac St., Bldg. 40, Wallingford CT 06492
  
  
 ---------------------------------------------------------------
 Warning -- This program may not be used in any manner that
 competes with the business of Gaussian, Inc. or will provide
 assistance to any competitor of Gaussian, Inc.  The licensee
 of this program is prohibited from giving any competitor of
 Gaussian, Inc. access to this program.  By using this program,
 the user acknowledges that Gaussian, Inc. is engaged in the
 business of creating and licensing software in the field of
 computational chemistry and represents and warrants to the
 licensee that it is not a competitor of Gaussian, Inc. and that
 it will not use this program in any manner prohibited above.
 ---------------------------------------------------------------
  

 Cite this work as:
 Gaussian 16, Revision C.01,
 M. J. Frisch, G. W. Trucks, H. B. Schlegel, G. E. Scuseria, 
 M. A. Robb, J. R. Cheeseman, G. Scalmani, V. Barone, 
 G. A. Petersson, H. Nakatsuji, X. Li, M. Caricato, A. V. Marenich, 
 J. Bloino, B. G. Janesko, R. Gomperts, B. Mennucci, H. P. Hratchian, 
 J. V. Ortiz, A. F. Izmaylov, J. L. Sonnenberg, D. Williams-Young, 
 F. Ding, F. Lipparini, F. Egidi, J. Goings, B. Peng, A. Petrone, 
 T. Henderson, D. Ranasinghe, V. G. Zakrzewski, J. Gao, N. Rega, 
 G. Zheng, W. Liang, M. Hada, M. Ehara, K. Toyota, R. Fukuda, 
 J. Hasegawa, M. Ishida, T. Nakajima, Y. Honda, O. Kitao, H. Nakai, 
 T. Vreven, K. Throssell, J. A. Montgomery, Jr., J. E. Peralta, 
 F. Ogliaro, M. J. Bearpark, J. J. Heyd, E. N. Brothers, K. N. Kudin, 
 V. N. Staroverov, T. A. Keith, R. Kobayashi, J. Normand, 
 K. Raghavachari, A. P. Rendell, J. C. Burant, S. S. Iyengar, 
 J. Tomasi, M. Cossi, J. M. Millam, M. Klene, C. Adamo, R. Cammi, 
 J. W. Ochterski, R. L. Martin, K. Morokuma, O. Farkas, 
 J. B. Foresman, and D. J. Fox, Gaussian, Inc., Wallingford CT, 2019.
 
 ******************************************
 Gaussian 16:  EM64L-G16RevC.01  3-Jul-2019
                24-Oct-2024 
 ******************************************
 %nprocshared=40
 Will use up to   40 processors via shared memory.
 %mem=50gb
 ------------------------------------------------------
 # PBE1PBE/aug-cc-pVDZ opt freq EmpiricalDispersion=GD3
 ------------------------------------------------------
 1/18=20,19=15,26=3,38=1/1,3;
 2/9=110,12=2,17=6,18=5,40=1/2;
 3/5=16,7=10,11=2,25=1,30=1,71=1,74=-13,124=31/1,2,3;
 4//1;
 5/5=2,38=5/2;
 6/7=2,8=2,9=2,10=2,28=1/1;
 7//1,2,3,16;
 1/18=20,19=15,26=3/3(2);
 2/9=110/2;
 99//99;
 2/9=110/2;
 3/5=16,7=10,11=2,25=1,30=1,71=1,74=-13,124=31/1,2,3;
 4/5=5,16=3,69=1/1;
 5/5=2,38=5/2;
 7//1,2,3,16;
 1/18=20,19=15,26=3/3(-5);
 2/9=110/2;
 6/7=2,8=2,9=2,10=2,19=2,28=1/1;
 99/9=1/99;
 ----
 blah
 ----
 Symbolic Z-matrix:
 Charge = -1 Multiplicity = 1
 C                    -2.70582  -0.51186   0.27689 
 C                    -1.30781  -0.75432   0.84942 
 C                    -0.46996  -0.72047  -0.43794 
 O                    -1.16526  -1.94672   1.56615 
 H                    -1.03087   0.07999   1.49966 
 O                    -1.06134   0.22925  -1.28077 
 H                    -0.50485  -1.72658  -0.88845 
 N                     0.94683  -0.42605  -0.2753 
 C                    -2.44187   0.41938  -0.91184 
 H                    -3.37779  -0.05739   1.0164 
 O                    -3.17605  -1.7936   -0.1349 
 C                    -2.68287   1.88805  -0.61115 
 H                    -3.06323   0.11255  -1.76854 
 O                    -2.11622   2.30041   0.60485 
 H                    -3.76785   2.05709  -0.53699 
 H                    -2.30981   2.47977  -1.46535 
 H                    -4.11985  -1.74851  -0.30577 
 H                    -1.78972  -2.57649   1.18053 
 H                    -1.15343   2.17008   0.55646 
 C                     1.87597  -1.33854  -0.7206 
 C                     3.20925  -1.16281  -0.62149 
 C                     3.7285    0.05256  -0.02662 
 N                     2.715     0.92993   0.3853 
 C                     1.35566   0.77134   0.29805 
 H                     1.44905  -2.23586  -1.16475 
 H                     3.9094   -1.9098   -0.98188 
 O                     4.89827   0.35029   0.12726 
 O                     0.58847   1.63119   0.70682 
 

 GradGradGradGradGradGradGradGradGradGradGradGradGradGradGradGradGradGrad
 Berny optimization.
 Initialization pass.
                           ----------------------------
                           !    Initial Parameters    !
                           ! (Angstroms and Degrees)  !
 --------------------------                            --------------------------
 ! Name  Definition              Value          Derivative Info.                !
 --------------------------------------------------------------------------------
 ! R1    R(1,2)                  1.53           estimate D2E/DX2                !
 ! R2    R(1,9)                  1.533          estimate D2E/DX2                !
 ! R3    R(1,10)                 1.0977         estimate D2E/DX2                !
 ! R4    R(1,11)                 1.426          estimate D2E/DX2                !
 ! R5    R(2,3)                  1.5364         estimate D2E/DX2                !
 ! R6    R(2,4)                  1.3985         estimate D2E/DX2                !
 ! R7    R(2,5)                  1.0934         estimate D2E/DX2                !
 ! R8    R(3,6)                  1.4007         estimate D2E/DX2                !
 ! R9    R(3,7)                  1.1029         estimate D2E/DX2                !
 ! R10   R(3,8)                  1.4562         estimate D2E/DX2                !
 ! R11   R(4,18)                 0.9671         estimate D2E/DX2                !
 ! R12   R(6,9)                  1.4416         estimate D2E/DX2                !
 ! R13   R(8,20)                 1.3763         estimate D2E/DX2                !
 ! R14   R(8,24)                 1.3891         estimate D2E/DX2                !
 ! R15   R(9,12)                 1.5184         estimate D2E/DX2                !
 ! R16   R(9,13)                 1.1019         estimate D2E/DX2                !
 ! R17   R(11,17)                0.9602         estimate D2E/DX2                !
 ! R18   R(12,14)                1.4035         estimate D2E/DX2                !
 ! R19   R(12,15)                1.1006         estimate D2E/DX2                !
 ! R20   R(12,16)                1.1041         estimate D2E/DX2                !
 ! R21   R(14,19)                0.9728         estimate D2E/DX2                !
 ! R22   R(20,21)                1.3485         estimate D2E/DX2                !
 ! R23   R(20,25)                1.0885         estimate D2E/DX2                !
 ! R24   R(21,22)                1.4493         estimate D2E/DX2                !
 ! R25   R(21,26)                1.0854         estimate D2E/DX2                !
 ! R26   R(22,23)                1.4024         estimate D2E/DX2                !
 ! R27   R(22,27)                1.2168         estimate D2E/DX2                !
 ! R28   R(23,24)                1.3713         estimate D2E/DX2                !
 ! R29   R(24,28)                1.2227         estimate D2E/DX2                !
 ! A1    A(2,1,9)              103.2445         estimate D2E/DX2                !
 ! A2    A(2,1,10)             111.8919         estimate D2E/DX2                !
 ! A3    A(2,1,11)             105.481          estimate D2E/DX2                !
 ! A4    A(9,1,10)             112.1055         estimate D2E/DX2                !
 ! A5    A(9,1,11)             112.2632         estimate D2E/DX2                !
 ! A6    A(10,1,11)            111.3954         estimate D2E/DX2                !
 ! A7    A(1,2,3)              100.4425         estimate D2E/DX2                !
 ! A8    A(1,2,4)              114.8357         estimate D2E/DX2                !
 ! A9    A(1,2,5)              109.4529         estimate D2E/DX2                !
 ! A10   A(3,2,4)              113.1184         estimate D2E/DX2                !
 ! A11   A(3,2,5)              110.0821         estimate D2E/DX2                !
 ! A12   A(4,2,5)              108.6615         estimate D2E/DX2                !
 ! A13   A(2,3,6)              106.791          estimate D2E/DX2                !
 ! A14   A(2,3,7)              107.7534         estimate D2E/DX2                !
 ! A15   A(2,3,8)              116.1972         estimate D2E/DX2                !
 ! A16   A(6,3,7)              111.0616         estimate D2E/DX2                !
 ! A17   A(6,3,8)              109.9314         estimate D2E/DX2                !
 ! A18   A(7,3,8)              105.1194         estimate D2E/DX2                !
 ! A19   A(2,4,18)             106.5621         estimate D2E/DX2                !
 ! A20   A(3,6,9)              109.8615         estimate D2E/DX2                !
 ! A21   A(3,8,20)             119.1211         estimate D2E/DX2                !
 ! A22   A(3,8,24)             120.4465         estimate D2E/DX2                !
 ! A23   A(20,8,24)            120.4207         estimate D2E/DX2                !
 ! A24   A(1,9,6)              106.4531         estimate D2E/DX2                !
 ! A25   A(1,9,12)             113.9974         estimate D2E/DX2                !
 ! A26   A(1,9,13)             109.6728         estimate D2E/DX2                !
 ! A27   A(6,9,12)             109.2841         estimate D2E/DX2                !
 ! A28   A(6,9,13)             107.7176         estimate D2E/DX2                !
 ! A29   A(12,9,13)            109.4997         estimate D2E/DX2                !
 ! A30   A(1,11,17)            109.469          estimate D2E/DX2                !
 ! A31   A(9,12,14)            113.0592         estimate D2E/DX2                !
 ! A32   A(9,12,15)            108.5652         estimate D2E/DX2                !
 ! A33   A(9,12,16)            108.1529         estimate D2E/DX2                !
 ! A34   A(14,12,15)           107.1281         estimate D2E/DX2                !
 ! A35   A(14,12,16)           112.1133         estimate D2E/DX2                !
 ! A36   A(15,12,16)           107.6336         estimate D2E/DX2                !
 ! A37   A(12,14,19)           108.4896         estimate D2E/DX2                !
 ! A38   A(8,20,21)            123.8705         estimate D2E/DX2                !
 ! A39   A(8,20,25)            114.4447         estimate D2E/DX2                !
 ! A40   A(21,20,25)           121.6842         estimate D2E/DX2                !
 ! A41   A(20,21,22)           119.5825         estimate D2E/DX2                !
 ! A42   A(20,21,26)           121.5813         estimate D2E/DX2                !
 ! A43   A(22,21,26)           118.8355         estimate D2E/DX2                !
 ! A44   A(21,22,23)           112.723          estimate D2E/DX2                !
 ! A45   A(21,22,27)           126.9765         estimate D2E/DX2                !
 ! A46   A(23,22,27)           120.3            estimate D2E/DX2                !
 ! A47   A(22,23,24)           128.707          estimate D2E/DX2                !
 ! A48   A(8,24,23)            114.6886         estimate D2E/DX2                !
 ! A49   A(8,24,28)            124.0209         estimate D2E/DX2                !
 ! A50   A(23,24,28)           121.2897         estimate D2E/DX2                !
 ! D1    D(9,1,2,3)            -33.4657         estimate D2E/DX2                !
 ! D2    D(9,1,2,4)           -155.1494         estimate D2E/DX2                !
 ! D3    D(9,1,2,5)             82.3439         estimate D2E/DX2                !
 ! D4    D(10,1,2,3)          -154.2107         estimate D2E/DX2                !
 ! D5    D(10,1,2,4)            84.1055         estimate D2E/DX2                !
 ! D6    D(10,1,2,5)           -38.4011         estimate D2E/DX2                !
 ! D7    D(11,1,2,3)            84.5074         estimate D2E/DX2                !
 ! D8    D(11,1,2,4)           -37.1763         estimate D2E/DX2                !
 ! D9    D(11,1,2,5)          -159.683          estimate D2E/DX2                !
 ! D10   D(2,1,9,6)             22.0845         estimate D2E/DX2                !
 ! D11   D(2,1,9,12)           -98.473          estimate D2E/DX2                !
 ! D12   D(2,1,9,13)           138.3525         estimate D2E/DX2                !
 ! D13   D(10,1,9,6)           142.684          estimate D2E/DX2                !
 ! D14   D(10,1,9,12)           22.1265         estimate D2E/DX2                !
 ! D15   D(10,1,9,13)         -101.0479         estimate D2E/DX2                !
 ! D16   D(11,1,9,6)           -91.0354         estimate D2E/DX2                !
 ! D17   D(11,1,9,12)          148.4071         estimate D2E/DX2                !
 ! D18   D(11,1,9,13)           25.2326         estimate D2E/DX2                !
 ! D19   D(2,1,11,17)          166.4083         estimate D2E/DX2                !
 ! D20   D(9,1,11,17)          -81.8596         estimate D2E/DX2                !
 ! D21   D(10,1,11,17)          44.8042         estimate D2E/DX2                !
 ! D22   D(1,2,3,6)             35.0553         estimate D2E/DX2                !
 ! D23   D(1,2,3,7)            -84.335          estimate D2E/DX2                !
 ! D24   D(1,2,3,8)            158.1003         estimate D2E/DX2                !
 ! D25   D(4,2,3,6)            157.9479         estimate D2E/DX2                !
 ! D26   D(4,2,3,7)             38.5576         estimate D2E/DX2                !
 ! D27   D(4,2,3,8)            -79.0071         estimate D2E/DX2                !
 ! D28   D(5,2,3,6)            -80.2818         estimate D2E/DX2                !
 ! D29   D(5,2,3,7)            160.3279         estimate D2E/DX2                !
 ! D30   D(5,2,3,8)             42.7633         estimate D2E/DX2                !
 ! D31   D(1,2,4,18)            29.6813         estimate D2E/DX2                !
 ! D32   D(3,2,4,18)           -84.822          estimate D2E/DX2                !
 ! D33   D(5,2,4,18)           152.6134         estimate D2E/DX2                !
 ! D34   D(2,3,6,9)            -22.4903         estimate D2E/DX2                !
 ! D35   D(7,3,6,9)             94.7357         estimate D2E/DX2                !
 ! D36   D(8,3,6,9)           -149.3545         estimate D2E/DX2                !
 ! D37   D(2,3,8,20)           121.5219         estimate D2E/DX2                !
 ! D38   D(2,3,8,24)           -59.7184         estimate D2E/DX2                !
 ! D39   D(6,3,8,20)          -117.0874         estimate D2E/DX2                !
 ! D40   D(6,3,8,24)            61.6723         estimate D2E/DX2                !
 ! D41   D(7,3,8,20)             2.5131         estimate D2E/DX2                !
 ! D42   D(7,3,8,24)          -178.7272         estimate D2E/DX2                !
 ! D43   D(3,6,9,1)              0.0703         estimate D2E/DX2                !
 ! D44   D(3,6,9,12)           123.6155         estimate D2E/DX2                !
 ! D45   D(3,6,9,13)          -117.5008         estimate D2E/DX2                !
 ! D46   D(3,8,20,21)          179.8465         estimate D2E/DX2                !
 ! D47   D(3,8,20,25)           -0.4433         estimate D2E/DX2                !
 ! D48   D(24,8,20,21)           1.0865         estimate D2E/DX2                !
 ! D49   D(24,8,20,25)        -179.2034         estimate D2E/DX2                !
 ! D50   D(3,8,24,23)         -179.5771         estimate D2E/DX2                !
 ! D51   D(3,8,24,28)            0.7412         estimate D2E/DX2                !
 ! D52   D(20,8,24,23)          -0.8336         estimate D2E/DX2                !
 ! D53   D(20,8,24,28)         179.4846         estimate D2E/DX2                !
 ! D54   D(1,9,12,14)           46.0715         estimate D2E/DX2                !
 ! D55   D(1,9,12,15)          -72.6551         estimate D2E/DX2                !
 ! D56   D(1,9,12,16)          170.831          estimate D2E/DX2                !
 ! D57   D(6,9,12,14)          -72.8896         estimate D2E/DX2                !
 ! D58   D(6,9,12,15)          168.3839         estimate D2E/DX2                !
 ! D59   D(6,9,12,16)           51.8699         estimate D2E/DX2                !
 ! D60   D(13,9,12,14)         169.3399         estimate D2E/DX2                !
 ! D61   D(13,9,12,15)          50.6134         estimate D2E/DX2                !
 ! D62   D(13,9,12,16)         -65.9006         estimate D2E/DX2                !
 ! D63   D(9,12,14,19)          61.172          estimate D2E/DX2                !
 ! D64   D(15,12,14,19)       -179.2716         estimate D2E/DX2                !
 ! D65   D(16,12,14,19)        -61.4074         estimate D2E/DX2                !
 ! D66   D(8,20,21,22)          -0.56           estimate D2E/DX2                !
 ! D67   D(8,20,21,26)         179.7401         estimate D2E/DX2                !
 ! D68   D(25,20,21,22)        179.7501         estimate D2E/DX2                !
 ! D69   D(25,20,21,26)          0.0502         estimate D2E/DX2                !
 ! D70   D(20,21,22,23)         -0.122          estimate D2E/DX2                !
 ! D71   D(20,21,22,27)       -179.857          estimate D2E/DX2                !
 ! D72   D(26,21,22,23)        179.5862         estimate D2E/DX2                !
 ! D73   D(26,21,22,27)         -0.1488         estimate D2E/DX2                !
 ! D74   D(21,22,23,24)          0.3216         estimate D2E/DX2                !
 ! D75   D(27,22,23,24)       -179.9236         estimate D2E/DX2                !
 ! D76   D(22,23,24,8)           0.1502         estimate D2E/DX2                !
 ! D77   D(22,23,24,28)        179.8416         estimate D2E/DX2                !
 --------------------------------------------------------------------------------
 Trust Radius=3.00D-01 FncErr=1.00D-07 GrdErr=1.00D-06 EigMax=2.50D+02 EigMin=1.00D-04
 Number of steps in this run=    166 maximum allowed number of steps=    168.
 GradGradGradGradGradGradGradGradGradGradGradGradGradGradGradGradGradGrad

                          Input orientation:                          
 ---------------------------------------------------------------------
 Center     Atomic      Atomic             Coordinates (Angstroms)
 Number     Number       Type             X           Y           Z
 ---------------------------------------------------------------------
      1          6           0       -2.705818   -0.511856    0.276891
      2          6           0       -1.307810   -0.754317    0.849418
      3          6           0       -0.469963   -0.720468   -0.437941
      4          8           0       -1.165261   -1.946719    1.566154
      5          1           0       -1.030871    0.079994    1.499663
      6          8           0       -1.061340    0.229254   -1.280768
      7          1           0       -0.504847   -1.726583   -0.888453
      8          7           0        0.946832   -0.426054   -0.275301
      9          6           0       -2.441868    0.419378   -0.911840
     10          1           0       -3.377790   -0.057393    1.016400
     11          8           0       -3.176053   -1.793600   -0.134904
     12          6           0       -2.682871    1.888053   -0.611152
     13          1           0       -3.063228    0.112547   -1.768543
     14          8           0       -2.116223    2.300411    0.604847
     15          1           0       -3.767852    2.057093   -0.536986
     16          1           0       -2.309812    2.479773   -1.465350
     17          1           0       -4.119854   -1.748509   -0.305773
     18          1           0       -1.789723   -2.576492    1.180530
     19          1           0       -1.153433    2.170077    0.556456
     20          6           0        1.875969   -1.338535   -0.720601
     21          6           0        3.209254   -1.162806   -0.621490
     22          6           0        3.728499    0.052559   -0.026623
     23          7           0        2.715002    0.929931    0.385295
     24          6           0        1.355664    0.771335    0.298048
     25          1           0        1.449052   -2.235865   -1.164747
     26          1           0        3.909402   -1.909802   -0.981881
     27          8           0        4.898272    0.350291    0.127262
     28          8           0        0.588465    1.631190    0.706819
 ---------------------------------------------------------------------
                    Distance matrix (angstroms):
                    1          2          3          4          5
     1  C    0.000000
     2  C    1.530033   0.000000
     3  C    2.356597   1.536368   0.000000
     4  O    2.468673   1.398518   2.450210   0.000000
     5  H    2.156596   1.093430   2.170177   2.032252   0.000000
     6  O    2.383244   2.359206   1.400734   3.584777   2.784601
     7  H    2.770895   2.147148   1.102926   2.551412   3.040316
     8  N    3.695150   2.540897   1.456173   3.188152   2.705160
     9  C    1.532954   2.401182   2.326422   3.656309   2.814505
    10  H    1.097705   2.190526   3.318167   2.960923   2.400093
    11  O    1.426031   2.353578   2.926836   2.638243   3.283895
    12  C    2.559045   3.317556   3.425105   4.663612   3.233222
    13  H    2.168276   3.269047   3.031409   4.354659   3.848728
    14  O    2.892062   3.169339   3.594898   4.457191   2.628486
    15  H    2.896517   3.984714   4.312856   5.217968   3.943086
    16  H    3.484547   4.101402   3.831730   5.485786   4.023174
    17  H    1.966801   3.198511   3.794212   3.503287   4.018064
    18  H    2.432800   1.913687   2.793929   0.967095   2.781118
    19  H    3.111402   2.943083   3.132285   4.238825   2.296325
    20  C    4.761424   3.597599   2.442396   3.853338   3.923202
    21  C    6.018214   4.768050   3.710255   4.953452   4.901276
    22  C    6.466152   5.175220   4.288804   5.521136   4.998190
    23  N    5.610329   4.385786   3.680426   4.972523   3.999472
    24  C    4.259420   3.118608   2.469832   3.918032   2.759960
    25  H    4.723714   3.721845   2.550940   3.791577   4.314198
    26  H    6.877492   5.648726   4.570473   5.678561   5.875683
    27  O    7.654271   6.344850   5.503083   6.641769   6.091903
    28  O    3.953452   3.050711   2.821532   4.076205   2.378457
                    6          7          8          9         10
     6  O    0.000000
     7  H    2.070964   0.000000
     8  N    2.339476   2.043209   0.000000
     9  C    1.441566   2.890977   3.550102   0.000000
    10  H    3.274918   3.829943   4.528439   2.195762   0.000000
    11  O    3.142762   2.776269   4.346041   2.457627   2.092992
    12  C    2.414407   4.229217   4.317711   1.518388   2.629943
    13  H    2.063759   3.271433   4.312823   1.101895   2.807799
    14  O    2.992994   4.587282   4.194112   2.438169   2.705581
    15  H    3.349539   5.008686   5.335049   2.140294   2.652585
    16  H    2.580230   4.613474   4.523912   2.137531   3.706329
    17  H    3.770500   3.661731   5.236518   2.807613   2.271271
    18  H    3.802728   2.579524   3.772607   3.711946   2.982408
    19  H    2.674073   4.206232   3.441341   2.623148   3.181342
    20  C    3.376320   2.418065   1.376303   4.665892   5.679831
    21  C    4.539874   3.766120   2.404413   5.875610   6.877047
    22  C    4.954458   4.672185   2.833475   6.244325   7.183267
    23  N    4.186583   4.364279   2.324114   5.341960   6.204451
    24  C    2.937417   3.332999   1.389105   4.001119   4.858848
    25  H    3.520276   2.037996   2.078161   4.717365   5.727263
    26  H    5.419702   4.419037   3.387858   6.765251   7.779956
    27  O    6.124882   5.876970   4.047054   7.413647   8.333665
    28  O    2.939011   3.874902   2.307648   3.643002   4.321844
                   11         12         13         14         15
    11  O    0.000000
    12  C    3.744945   0.000000
    13  H    2.512947   2.153287   0.000000
    14  O    4.293180   1.403489   3.364008   0.000000
    15  H    3.916597   1.100572   2.407174   2.022589   0.000000
    16  H    4.558747   1.104065   2.502663   2.086951   1.779438
    17  H    0.960203   3.922086   2.592235   4.608418   3.828834
    18  H    2.065235   4.892852   4.189245   4.921605   5.322872
    19  H    4.503299   1.944743   3.645047   0.972776   2.836118
    20  C    5.106178   5.586222   5.253522   5.562044   6.589136
    21  C    6.434813   6.635133   6.502791   6.469813   7.684719
    22  C    7.147927   6.694504   7.011807   6.293836   7.776497
    23  N    6.510972   5.572068   6.220537   5.026644   6.644433
    24  C    5.225208   4.287595   4.922541   3.806074   5.347978
    25  H    4.758967   5.863954   5.122527   6.034936   6.785253
    26  H    7.136844   7.617034   7.302486   7.520090   8.653000
    27  O    8.358213   7.770695   8.187556   7.296177   8.857545
    28  O    5.158418   3.536194   4.665678   2.788116   4.550378
                   16         17         18         19         20
    16  H    0.000000
    17  H    4.743336   0.000000
    18  H    5.730357   2.885163   0.000000
    19  H    2.349643   4.989831   4.829519   0.000000
    20  C    5.714446   6.024123   4.310932   4.808171   0.000000
    21  C    6.666376   7.359249   5.498687   5.615043   1.348463
    22  C    6.665021   8.057197   6.230562   5.353235   2.418391
    23  N    5.574554   7.373389   5.763675   4.065962   2.659496
    24  C    4.411808   6.057682   4.677625   2.884237   2.399982
    25  H    6.037935   5.655799   4.013230   5.398870   1.088451
    26  H    7.627630   8.059286   6.131927   6.681631   2.128254
    27  O    7.682941   9.269254   7.375955   6.333953   3.564452
    28  O    3.720003   5.883534   4.856415   1.829540   3.537578
                   21         22         23         24         25
    21  C    0.000000
    22  C    1.449343   0.000000
    23  N    2.374331   1.402367   0.000000
    24  C    2.832357   2.500479   1.371337   0.000000
    25  H    2.131876   3.424630   3.745334   3.345406   0.000000
    26  H    1.085399   2.190001   3.370437   3.917690   2.488590
    27  O    2.388069   1.216838   2.273594   3.571627   4.500512
    28  O    4.054547   3.590240   2.262145   1.222718   4.381493
                   26         27         28
    26  H    0.000000
    27  O    2.704826   0.000000
    28  O    5.139937   4.533324   0.000000
 Stoichiometry    C9H11N2O6(1-)
 Framework group  C1[X(C9H11N2O6)]
 Deg. of freedom    78
 Full point group                 C1      NOp   1
 Largest Abelian subgroup         C1      NOp   1
 Largest concise Abelian subgroup C1      NOp   1
                         Standard orientation:                         
 ---------------------------------------------------------------------
 Center     Atomic      Atomic             Coordinates (Angstroms)
 Number     Number       Type             X           Y           Z
 ---------------------------------------------------------------------
      1          6           0       -2.678063   -0.526503    0.268572
      2          6           0       -1.279746   -0.761347    0.843514
      3          6           0       -0.437840   -0.706058   -0.440450
      4          8           0       -1.128094   -1.959676    1.548398
      5          1           0       -1.013162    0.068822    1.503317
      6          8           0       -1.035506    0.246580   -1.275514
      7          1           0       -0.461402   -1.707742   -0.901449
      8          7           0        0.975461   -0.399653   -0.269759
      9          6           0       -2.419077    0.419507   -0.909536
     10          1           0       -3.356959   -0.086248    1.010349
     11          8           0       -3.134410   -1.808401   -0.158102
     12          6           0       -2.675363    1.882588   -0.594553
     13          1           0       -3.034475    0.115572   -1.771559
     14          8           0       -2.116936    2.287787    0.627639
     15          1           0       -3.762183    2.040346   -0.522490
     16          1           0       -2.305129    2.486708   -1.441268
     17          1           0       -4.078010   -1.770674   -0.331839
     18          1           0       -1.745080   -2.591432    1.154081
     19          1           0       -1.152765    2.167282    0.581317
     20          6           0        1.914942   -1.298440   -0.721164
     21          6           0        3.246109   -1.110857   -0.615520
     22          6           0        3.751477    0.103245   -0.006297
     23          7           0        2.728096    0.966457    0.411066
     24          6           0        1.370670    0.795631    0.317370
     25          1           0        1.498290   -2.195208   -1.176063
     26          1           0        3.954714   -1.847271   -0.981123
     27          8           0        4.917767    0.410669    0.154798
     28          8           0        0.593756    1.643742    0.732278
 ---------------------------------------------------------------------
 Rotational constants (GHZ):           0.9454295           0.3124738           0.2685749
 Standard basis: Aug-CC-pVDZ (5D, 7F)
 There are   524 symmetry adapted cartesian basis functions of A   symmetry.
 There are   490 symmetry adapted basis functions of A   symmetry.
   490 basis functions,   852 primitive gaussians,   524 cartesian basis functions
    64 alpha electrons       64 beta electrons
       nuclear repulsion energy      1317.5685939486 Hartrees.
 NAtoms=   28 NActive=   28 NUniq=   28 SFac= 1.00D+00 NAtFMM=   60 NAOKFM=F Big=F
 Integral buffers will be    131072 words long.
 Raffenetti 2 integral format.
 Two-electron integral symmetry is turned on.
 Nuclear repulsion after empirical dispersion term =     1317.5488566984 Hartrees.
 One-electron integrals computed using PRISM.
 NBasis=   490 RedAO= T EigKep=  3.00D-06  NBF=   490
 NBsUse=   490 1.00D-06 EigRej= -1.00D+00 NBFU=   490
 ExpMin= 2.97D-02 ExpMax= 1.17D+04 ExpMxC= 4.01D+02 IAcc=3 IRadAn=         5 AccDes= 0.00D+00
 Harris functional with IExCor= 1009 and IRadAn=       5 diagonalized for initial guess.
 HarFok:  IExCor= 1009 AccDes= 0.00D+00 IRadAn=         5 IDoV= 1 UseB2=F ITyADJ=14
 ICtDFT=  3500011 ScaDFX=  1.000000  1.000000  1.000000  1.000000
 FoFCou: FMM=F IPFlag=           0 FMFlag=      100000 FMFlg1=           0
         NFxFlg=           0 DoJE=T BraDBF=F KetDBF=T FulRan=T
         wScrn=  0.000000 ICntrl=       500 IOpCl=  0 I1Cent=   200000004 NGrid=           0
         NMat0=    1 NMatS0=      1 NMatT0=    0 NMatD0=    1 NMtDS0=    0 NMtDT0=    0
 Petite list used in FoFCou.
 Requested convergence on RMS density matrix=1.00D-08 within 128 cycles.
 Requested convergence on MAX density matrix=1.00D-06.
 Requested convergence on             energy=1.00D-06.
 No special actions if energy rises.
 EnCoef did     3 forward-backward iterations
 SCF Done:  E(RPBE1PBE) =  -909.653395014     A.U. after   16 cycles
            NFock= 16  Conv=0.84D-08     -V/T= 2.0053

 **********************************************************************

            Population analysis using the SCF Density.

 **********************************************************************

 Orbital symmetries:
       Occupied  (A) (A) (A) (A) (A) (A) (A) (A) (A) (A) (A) (A)
                 (A) (A) (A) (A) (A) (A) (A) (A) (A) (A) (A) (A)
                 (A) (A) (A) (A) (A) (A) (A) (A) (A) (A) (A) (A)
                 (A) (A) (A) (A) (A) (A) (A) (A) (A) (A) (A) (A)
                 (A) (A) (A) (A) (A) (A) (A) (A) (A) (A) (A) (A)
                 (A) (A) (A) (A)
       Virtual   (A) (A) (A) (A) (A) (A) (A) (A) (A) (A) (A) (A)
                 (A) (A) (A) (A) (A) (A) (A) (A) (A) (A) (A) (A)
                 (A) (A) (A) (A) (A) (A) (A) (A) (A) (A) (A) (A)
                 (A) (A) (A) (A) (A) (A) (A) (A) (A) (A) (A) (A)
                 (A) (A) (A) (A) (A) (A) (A) (A) (A) (A) (A) (A)
                 (A) (A) (A) (A) (A) (A) (A) (A) (A) (A) (A) (A)
                 (A) (A) (A) (A) (A) (A) (A) (A) (A) (A) (A) (A)
                 (A) (A) (A) (A) (A) (A) (A) (A) (A) (A) (A) (A)
                 (A) (A) (A) (A) (A) (A) (A) (A) (A) (A) (A) (A)
                 (A) (A) (A) (A) (A) (A) (A) (A) (A) (A) (A) (A)
                 (A) (A) (A) (A) (A) (A) (A) (A) (A) (A) (A) (A)
                 (A) (A) (A) (A) (A) (A) (A) (A) (A) (A) (A) (A)
                 (A) (A) (A) (A) (A) (A) (A) (A) (A) (A) (A) (A)
                 (A) (A) (A) (A) (A) (A) (A) (A) (A) (A) (A) (A)
                 (A) (A) (A) (A) (A) (A) (A) (A) (A) (A) (A) (A)
                 (A) (A) (A) (A) (A) (A) (A) (A) (A) (A) (A) (A)
                 (A) (A) (A) (A) (A) (A) (A) (A) (A) (A) (A) (A)
                 (A) (A) (A) (A) (A) (A) (A) (A) (A) (A) (A) (A)
                 (A) (A) (A) (A) (A) (A) (A) (A) (A) (A) (A) (A)
                 (A) (A) (A) (A) (A) (A) (A) (A) (A) (A) (A) (A)
                 (A) (A) (A) (A) (A) (A) (A) (A) (A) (A) (A) (A)
                 (A) (A) (A) (A) (A) (A) (A) (A) (A) (A) (A) (A)
                 (A) (A) (A) (A) (A) (A) (A) (A) (A) (A) (A) (A)
                 (A) (A) (A) (A) (A) (A) (A) (A) (A) (A) (A) (A)
                 (A) (A) (A) (A) (A) (A) (A) (A) (A) (A) (A) (A)
                 (A) (A) (A) (A) (A) (A) (A) (A) (A) (A) (A) (A)
                 (A) (A) (A) (A) (A) (A) (A) (A) (A) (A) (A) (A)
                 (A) (A) (A) (A) (A) (A) (A) (A) (A) (A) (A) (A)
                 (A) (A) (A) (A) (A) (A) (A) (A) (A) (A) (A) (A)
                 (A) (A) (A) (A) (A) (A) (A) (A) (A) (A) (A) (A)
                 (A) (A) (A) (A) (A) (A) (A) (A) (A) (A) (A) (A)
                 (A) (A) (A) (A) (A) (A) (A) (A) (A) (A) (A) (A)
                 (A) (A) (A) (A) (A) (A) (A) (A) (A) (A) (A) (A)
                 (A) (A) (A) (A) (A) (A) (A) (A) (A) (A) (A) (A)
                 (A) (A) (A) (A) (A) (A) (A) (A) (A) (A) (A) (A)
                 (A) (A) (A) (A) (A) (A)
 The electronic state is 1-A.
 Alpha  occ. eigenvalues --  -19.16948 -19.13665 -19.13423 -19.10503 -19.03553
 Alpha  occ. eigenvalues --  -19.01417 -14.31660 -14.19036 -10.21363 -10.20621
 Alpha  occ. eigenvalues --  -10.19618 -10.19536 -10.18330 -10.18283 -10.15601
 Alpha  occ. eigenvalues --  -10.15598 -10.09268  -1.01332  -0.98733  -0.96448
 Alpha  occ. eigenvalues --   -0.94106  -0.93209  -0.89031  -0.85580  -0.73213
 Alpha  occ. eigenvalues --   -0.71251  -0.68060  -0.65649  -0.59473  -0.54902
 Alpha  occ. eigenvalues --   -0.53497  -0.52202  -0.48815  -0.47584  -0.45131
 Alpha  occ. eigenvalues --   -0.43234  -0.41156  -0.40882  -0.38389  -0.38127
 Alpha  occ. eigenvalues --   -0.36873  -0.35417  -0.33423  -0.33107  -0.32305
 Alpha  occ. eigenvalues --   -0.31068  -0.30864  -0.29712  -0.29098  -0.28625
 Alpha  occ. eigenvalues --   -0.26434  -0.25386  -0.24609  -0.23937  -0.22660
 Alpha  occ. eigenvalues --   -0.21916  -0.20602  -0.18278  -0.17325  -0.14070
 Alpha  occ. eigenvalues --   -0.10532  -0.10249  -0.08343  -0.08272
 Alpha virt. eigenvalues --    0.05299   0.07874   0.08589   0.09465   0.10491
 Alpha virt. eigenvalues --    0.11275   0.11537   0.11817   0.12435   0.13229
 Alpha virt. eigenvalues --    0.13540   0.14092   0.15239   0.15549   0.15882
 Alpha virt. eigenvalues --    0.16307   0.16859   0.17159   0.17440   0.17867
 Alpha virt. eigenvalues --    0.18468   0.18516   0.19139   0.19167   0.19553
 Alpha virt. eigenvalues --    0.19972   0.20420   0.20942   0.21065   0.21463
 Alpha virt. eigenvalues --    0.22028   0.22239   0.22449   0.22778   0.23292
 Alpha virt. eigenvalues --    0.23562   0.23695   0.24054   0.24962   0.25133
 Alpha virt. eigenvalues --    0.25870   0.26105   0.26538   0.27084   0.27554
 Alpha virt. eigenvalues --    0.28132   0.28419   0.29007   0.29308   0.29559
 Alpha virt. eigenvalues --    0.30013   0.30291   0.31435   0.31900   0.32270
 Alpha virt. eigenvalues --    0.32691   0.33071   0.33865   0.34138   0.34666
 Alpha virt. eigenvalues --    0.34693   0.35188   0.35741   0.35908   0.36091
 Alpha virt. eigenvalues --    0.36685   0.36763   0.37038   0.37293   0.37830
 Alpha virt. eigenvalues --    0.37949   0.38358   0.38722   0.38807   0.39247
 Alpha virt. eigenvalues --    0.39950   0.40711   0.40957   0.41170   0.41450
 Alpha virt. eigenvalues --    0.41933   0.42157   0.42265   0.42583   0.42988
 Alpha virt. eigenvalues --    0.43296   0.43884   0.43953   0.44143   0.44366
 Alpha virt. eigenvalues --    0.44907   0.45214   0.45539   0.45908   0.47123
 Alpha virt. eigenvalues --    0.47470   0.48178   0.48542   0.48932   0.49286
 Alpha virt. eigenvalues --    0.50036   0.50196   0.50959   0.51254   0.51901
 Alpha virt. eigenvalues --    0.52416   0.52810   0.53270   0.54215   0.54590
 Alpha virt. eigenvalues --    0.55137   0.55380   0.55976   0.56529   0.57444
 Alpha virt. eigenvalues --    0.58032   0.58573   0.59040   0.59375   0.60285
 Alpha virt. eigenvalues --    0.60588   0.60994   0.61416   0.61499   0.62291
 Alpha virt. eigenvalues --    0.62842   0.63552   0.63694   0.63937   0.65408
 Alpha virt. eigenvalues --    0.65962   0.66874   0.67103   0.67549   0.68082
 Alpha virt. eigenvalues --    0.68867   0.69187   0.69935   0.70910   0.71183
 Alpha virt. eigenvalues --    0.71541   0.72241   0.72542   0.73541   0.73970
 Alpha virt. eigenvalues --    0.74231   0.74590   0.75799   0.75920   0.76436
 Alpha virt. eigenvalues --    0.76770   0.76933   0.77817   0.78426   0.78822
 Alpha virt. eigenvalues --    0.78883   0.80054   0.80195   0.81211   0.81290
 Alpha virt. eigenvalues --    0.82462   0.82841   0.83258   0.83458   0.83917
 Alpha virt. eigenvalues --    0.84359   0.84670   0.85452   0.85784   0.86893
 Alpha virt. eigenvalues --    0.87797   0.88204   0.88604   0.89532   0.90025
 Alpha virt. eigenvalues --    0.90547   0.91315   0.92379   0.92836   0.93772
 Alpha virt. eigenvalues --    0.94535   0.94703   0.95855   0.96405   0.96556
 Alpha virt. eigenvalues --    0.97579   0.98455   0.99305   1.00040   1.00716
 Alpha virt. eigenvalues --    1.01241   1.01572   1.02647   1.03221   1.04276
 Alpha virt. eigenvalues --    1.04890   1.06071   1.06587   1.07245   1.08894
 Alpha virt. eigenvalues --    1.09634   1.10096   1.11551   1.11905   1.12882
 Alpha virt. eigenvalues --    1.13336   1.14683   1.14926   1.15427   1.16368
 Alpha virt. eigenvalues --    1.17451   1.18212   1.18848   1.19930   1.20496
 Alpha virt. eigenvalues --    1.21768   1.22999   1.23803   1.24428   1.25416
 Alpha virt. eigenvalues --    1.26501   1.26649   1.27456   1.28663   1.29326
 Alpha virt. eigenvalues --    1.29507   1.30894   1.32559   1.32959   1.34169
 Alpha virt. eigenvalues --    1.35159   1.36522   1.37097   1.37824   1.38556
 Alpha virt. eigenvalues --    1.39221   1.39811   1.41515   1.42801   1.43342
 Alpha virt. eigenvalues --    1.43550   1.44035   1.46478   1.47374   1.48608
 Alpha virt. eigenvalues --    1.50180   1.50517   1.52463   1.53326   1.53989
 Alpha virt. eigenvalues --    1.54678   1.55226   1.55731   1.56527   1.57721
 Alpha virt. eigenvalues --    1.59376   1.59648   1.61175   1.62014   1.62775
 Alpha virt. eigenvalues --    1.64058   1.65688   1.66423   1.66772   1.67490
 Alpha virt. eigenvalues --    1.68242   1.69124   1.70175   1.71268   1.72194
 Alpha virt. eigenvalues --    1.72629   1.74193   1.74788   1.76272   1.76645
 Alpha virt. eigenvalues --    1.77388   1.79523   1.80127   1.81076   1.82854
 Alpha virt. eigenvalues --    1.84016   1.84232   1.85192   1.86272   1.87010
 Alpha virt. eigenvalues --    1.87744   1.88278   1.89429   1.89633   1.90670
 Alpha virt. eigenvalues --    1.92644   1.93151   1.93767   1.94508   1.94806
 Alpha virt. eigenvalues --    1.96766   1.97906   1.98943   1.99731   2.00305
 Alpha virt. eigenvalues --    2.01959   2.02043   2.03133   2.03588   2.05338
 Alpha virt. eigenvalues --    2.07046   2.07261   2.08589   2.09420   2.10725
 Alpha virt. eigenvalues --    2.11127   2.12379   2.13076   2.14096   2.15921
 Alpha virt. eigenvalues --    2.16402   2.17531   2.17821   2.19567   2.21042
 Alpha virt. eigenvalues --    2.22593   2.23356   2.23802   2.25771   2.27346
 Alpha virt. eigenvalues --    2.28925   2.29168   2.30594   2.30938   2.34306
 Alpha virt. eigenvalues --    2.35080   2.35870   2.38241   2.38845   2.39525
 Alpha virt. eigenvalues --    2.41102   2.42218   2.42865   2.44711   2.45630
 Alpha virt. eigenvalues --    2.47729   2.48168   2.50932   2.51279   2.51923
 Alpha virt. eigenvalues --    2.52011   2.54207   2.57327   2.58868   2.60408
 Alpha virt. eigenvalues --    2.62364   2.63536   2.65206   2.66199   2.67203
 Alpha virt. eigenvalues --    2.68561   2.70535   2.71185   2.72561   2.73236
 Alpha virt. eigenvalues --    2.74865   2.75659   2.77777   2.78333   2.79565
 Alpha virt. eigenvalues --    2.82317   2.85029   2.85359   2.86777   2.88884
 Alpha virt. eigenvalues --    2.89357   2.91814   2.92865   2.95938   2.98413
 Alpha virt. eigenvalues --    2.98843   3.02593   3.05540   3.08109   3.10556
 Alpha virt. eigenvalues --    3.12723   3.14812   3.21483   3.24871   3.28715
 Alpha virt. eigenvalues --    3.33125   3.35328   3.38097   3.42939   3.48678
 Alpha virt. eigenvalues --    3.51261   3.54415   3.56900   3.58222   3.58602
 Alpha virt. eigenvalues --    3.59324   3.60615   3.61282   3.61739   3.62268
 Alpha virt. eigenvalues --    3.63556   3.64301   3.67226   3.68622   3.69913
 Alpha virt. eigenvalues --    3.70604   3.72637   3.73236   3.74918   3.77556
 Alpha virt. eigenvalues --    3.79917   3.82452   3.83670   3.85724   3.89085
 Alpha virt. eigenvalues --    3.94497   3.97136   3.98937   4.05809   4.08584
 Alpha virt. eigenvalues --    4.13308   4.16305   4.22502   4.37701   4.46071
 Alpha virt. eigenvalues --    4.75703
          Condensed to atoms (all electrons):
               1          2          3          4          5          6
     1  C    9.264958  -1.604937  -0.205922   0.023495   0.055764   0.123630
     2  C   -1.604937   8.421383  -2.675929  -0.279284  -0.503028  -0.033377
     3  C   -0.205922  -2.675929  14.850305   0.225829  -0.227491  -0.618693
     4  O    0.023495  -0.279284   0.225829   8.592014  -0.172428  -0.018395
     5  H    0.055764  -0.503028  -0.227491  -0.172428   2.302362   0.079958
     6  O    0.123630  -0.033377  -0.618693  -0.018395   0.079958   9.514195
     7  H   -0.090140   0.211649  -1.523638  -0.016975   0.138064  -0.049326
     8  N    0.290914   0.173338  -0.789217   0.004518  -0.129341   0.012912
     9  C   -1.706913   1.021050  -2.019711  -0.053858  -0.068228  -0.102552
    10  H   -1.021582   0.307420   0.182028   0.035230  -0.145949   0.012962
    11  O   -0.510221   0.000411   0.108300  -0.021974   0.040079   0.020727
    12  C   -0.068907  -0.023606  -0.010400  -0.013159   0.057602   0.053771
    13  H    0.100703   0.030440   0.335463   0.006691  -0.018278  -0.252158
    14  O   -0.021665  -0.028533  -0.061766   0.004674  -0.007364  -0.018168
    15  H    0.025871   0.023470   0.001506  -0.001783   0.017756   0.105548
    16  H    0.042961  -0.037744   0.011087  -0.000668  -0.002971  -0.029679
    17  H    0.066661  -0.011696  -0.012175   0.000903   0.005472   0.001388
    18  H    0.018434  -0.160088  -0.005805   0.332684   0.054323   0.011162
    19  H    0.009235  -0.009033   0.026935  -0.000648   0.030010   0.026536
    20  C    0.042847   0.127365  -1.898364   0.027080  -0.091818  -0.162451
    21  C   -0.067914   0.027541  -0.238767   0.009499   0.016841   0.023767
    22  C    0.032893  -0.032136  -0.176940  -0.003101  -0.018736  -0.024316
    23  N    0.026434  -0.000792   0.284247  -0.001922  -0.002321  -0.027651
    24  C    0.016394   0.028000  -1.179971   0.002010   0.095100   0.208607
    25  H   -0.010226   0.070026   0.292808  -0.000166  -0.001378   0.072524
    26  H    0.001664  -0.003071   0.142454   0.000112  -0.002533  -0.002409
    27  O   -0.001143   0.001430  -0.002588  -0.000079   0.001421   0.000742
    28  O    0.033786  -0.014840   0.111108  -0.004093   0.072679  -0.008098
               7          8          9         10         11         12
     1  C   -0.090140   0.290914  -1.706913  -1.021582  -0.510221  -0.068907
     2  C    0.211649   0.173338   1.021050   0.307420   0.000411  -0.023606
     3  C   -1.523638  -0.789217  -2.019711   0.182028   0.108300  -0.010400
     4  O   -0.016975   0.004518  -0.053858   0.035230  -0.021974  -0.013159
     5  H    0.138064  -0.129341  -0.068228  -0.145949   0.040079   0.057602
     6  O   -0.049326   0.012912  -0.102552   0.012962   0.020727   0.053771
     7  H    2.876194  -0.196130   0.043595  -0.001227   0.012295  -0.019882
     8  N   -0.196130   8.039759  -0.113179  -0.034276  -0.027358   0.004114
     9  C    0.043595  -0.113179   9.449532   0.071504   0.134226  -0.181963
    10  H   -0.001227  -0.034276   0.071504   2.124029  -0.071636  -0.082298
    11  O    0.012295  -0.027358   0.134226  -0.071636   8.710592  -0.004356
    12  C   -0.019882   0.004114  -0.181963  -0.082298  -0.004356   4.998003
    13  H   -0.010622   0.006396  -0.830018   0.091126  -0.006065  -0.009330
    14  O    0.003151   0.005194   0.098040   0.046245   0.003742   0.037183
    15  H   -0.003221  -0.000962  -0.185368  -0.050394   0.000650   0.225986
    16  H    0.006096   0.009769   0.101679   0.024617   0.000549   0.057768
    17  H    0.003039   0.007008  -0.056349  -0.097739   0.382627  -0.006074
    18  H   -0.003042  -0.012154   0.012311  -0.005311   0.022788   0.004646
    19  H   -0.001797  -0.012032  -0.045868  -0.013148  -0.000371  -0.005874
    20  C    0.370296   0.304882  -0.403454   0.003331  -0.022003  -0.019123
    21  C    0.016780  -0.503039   0.032566  -0.003679   0.002921   0.003004
    22  C    0.034408  -0.071900  -0.027804   0.002058  -0.000725  -0.008820
    23  N   -0.001841  -0.013058  -0.032070   0.000578  -0.000581   0.005374
    24  C    0.028312   0.043908   0.159820  -0.008459   0.004702  -0.064431
    25  H   -0.294940  -0.011260   0.038475   0.000508  -0.000207   0.013898
    26  H    0.002061   0.107982   0.001870   0.000124  -0.000048  -0.000733
    27  O   -0.000456  -0.012648   0.000797  -0.000086   0.000006   0.000172
    28  O    0.017589  -0.140038  -0.063687  -0.009103  -0.001203   0.033287
              13         14         15         16         17         18
     1  C    0.100703  -0.021665   0.025871   0.042961   0.066661   0.018434
     2  C    0.030440  -0.028533   0.023470  -0.037744  -0.011696  -0.160088
     3  C    0.335463  -0.061766   0.001506   0.011087  -0.012175  -0.005805
     4  O    0.006691   0.004674  -0.001783  -0.000668   0.000903   0.332684
     5  H   -0.018278  -0.007364   0.017756  -0.002971   0.005472   0.054323
     6  O   -0.252158  -0.018168   0.105548  -0.029679   0.001388   0.011162
     7  H   -0.010622   0.003151  -0.003221   0.006096   0.003039  -0.003042
     8  N    0.006396   0.005194  -0.000962   0.009769   0.007008  -0.012154
     9  C   -0.830018   0.098040  -0.185368   0.101679  -0.056349   0.012311
    10  H    0.091126   0.046245  -0.050394   0.024617  -0.097739  -0.005311
    11  O   -0.006065   0.003742   0.000650   0.000549   0.382627   0.022788
    12  C   -0.009330   0.037183   0.225986   0.057768  -0.006074   0.004646
    13  H    2.156367   0.026325  -0.136524   0.003749  -0.020572  -0.002361
    14  O    0.026325   8.501579  -0.179544  -0.061300  -0.000148  -0.001961
    15  H   -0.136524  -0.179544   1.826378  -0.378444   0.005840   0.000667
    16  H    0.003749  -0.061300  -0.378444   1.528050  -0.001602  -0.000339
    17  H   -0.020572  -0.000148   0.005840  -0.001602   0.620788  -0.004518
    18  H   -0.002361  -0.001961   0.000667  -0.000339  -0.004518   0.652977
    19  H    0.008880   0.183034   0.023658  -0.049666  -0.000129   0.000649
    20  C    0.000720   0.001441  -0.001334   0.007044   0.005401  -0.024347
    21  C    0.001009  -0.000310   0.000929  -0.001716  -0.000765  -0.002486
    22  C   -0.001603   0.001433  -0.001337   0.001620   0.000264  -0.000724
    23  N   -0.001527  -0.006364   0.000174   0.001069   0.000220  -0.000561
    24  C   -0.002323   0.042508  -0.018698   0.026375   0.000234   0.008096
    25  H    0.006331  -0.000443   0.001088  -0.000099  -0.000370   0.004217
    26  H    0.000049   0.000116  -0.000080   0.000033  -0.000008  -0.000119
    27  O    0.000044  -0.000017   0.000021   0.000004  -0.000002  -0.000005
    28  O   -0.001841  -0.056511   0.005119   0.002554   0.000699  -0.000733
              19         20         21         22         23         24
     1  C    0.009235   0.042847  -0.067914   0.032893   0.026434   0.016394
     2  C   -0.009033   0.127365   0.027541  -0.032136  -0.000792   0.028000
     3  C    0.026935  -1.898364  -0.238767  -0.176940   0.284247  -1.179971
     4  O   -0.000648   0.027080   0.009499  -0.003101  -0.001922   0.002010
     5  H    0.030010  -0.091818   0.016841  -0.018736  -0.002321   0.095100
     6  O    0.026536  -0.162451   0.023767  -0.024316  -0.027651   0.208607
     7  H   -0.001797   0.370296   0.016780   0.034408  -0.001841   0.028312
     8  N   -0.012032   0.304882  -0.503039  -0.071900  -0.013058   0.043908
     9  C   -0.045868  -0.403454   0.032566  -0.027804  -0.032070   0.159820
    10  H   -0.013148   0.003331  -0.003679   0.002058   0.000578  -0.008459
    11  O   -0.000371  -0.022003   0.002921  -0.000725  -0.000581   0.004702
    12  C   -0.005874  -0.019123   0.003004  -0.008820   0.005374  -0.064431
    13  H    0.008880   0.000720   0.001009  -0.001603  -0.001527  -0.002323
    14  O    0.183034   0.001441  -0.000310   0.001433  -0.006364   0.042508
    15  H    0.023658  -0.001334   0.000929  -0.001337   0.000174  -0.018698
    16  H   -0.049666   0.007044  -0.001716   0.001620   0.001069   0.026375
    17  H   -0.000129   0.005401  -0.000765   0.000264   0.000220   0.000234
    18  H    0.000649  -0.024347  -0.002486  -0.000724  -0.000561   0.008096
    19  H    0.554842  -0.019000   0.009070  -0.005693   0.008409  -0.038892
    20  C   -0.019000  10.586799  -1.888320   0.179941  -0.022424  -1.220537
    21  C    0.009070  -1.888320   9.704625  -2.480224   0.390015   0.917577
    22  C   -0.005693   0.179941  -2.480224   9.238527  -0.324456  -0.725885
    23  N    0.008409  -0.022424   0.390015  -0.324456   8.381697  -0.539102
    24  C   -0.038892  -1.220537   0.917577  -0.725885  -0.539102   7.527690
    25  H   -0.000137  -0.963455  -0.117681  -0.169660   0.018029   0.088242
    26  H    0.000134   0.547474  -0.961059   0.059152  -0.039426  -0.153513
    27  O   -0.000115   0.022000  -0.018735   0.034559  -0.131561   0.087253
    28  O    0.074880  -0.048172  -0.010124   0.029199  -0.314433   0.224871
              25         26         27         28
     1  C   -0.010226   0.001664  -0.001143   0.033786
     2  C    0.070026  -0.003071   0.001430  -0.014840
     3  C    0.292808   0.142454  -0.002588   0.111108
     4  O   -0.000166   0.000112  -0.000079  -0.004093
     5  H   -0.001378  -0.002533   0.001421   0.072679
     6  O    0.072524  -0.002409   0.000742  -0.008098
     7  H   -0.294940   0.002061  -0.000456   0.017589
     8  N   -0.011260   0.107982  -0.012648  -0.140038
     9  C    0.038475   0.001870   0.000797  -0.063687
    10  H    0.000508   0.000124  -0.000086  -0.009103
    11  O   -0.000207  -0.000048   0.000006  -0.001203
    12  C    0.013898  -0.000733   0.000172   0.033287
    13  H    0.006331   0.000049   0.000044  -0.001841
    14  O   -0.000443   0.000116  -0.000017  -0.056511
    15  H    0.001088  -0.000080   0.000021   0.005119
    16  H   -0.000099   0.000033   0.000004   0.002554
    17  H   -0.000370  -0.000008  -0.000002   0.000699
    18  H    0.004217  -0.000119  -0.000005  -0.000733
    19  H   -0.000137   0.000134  -0.000115   0.074880
    20  C   -0.963455   0.547474   0.022000  -0.048172
    21  C   -0.117681  -0.961059  -0.018735  -0.010124
    22  C   -0.169660   0.059152   0.034559   0.029199
    23  N    0.018029  -0.039426  -0.131561  -0.314433
    24  C    0.088242  -0.153513   0.087253   0.224871
    25  H    2.958608  -0.155685   0.001400   0.001081
    26  H   -0.155685   2.058227  -0.011635   0.003866
    27  O    0.001400  -0.011635   8.815085  -0.011049
    28  O    0.001081   0.003866  -0.011049   8.835046
 Mulliken charges:
               1
     1  C    1.132926
     2  C    0.974568
     3  C    1.075306
     4  O   -0.676205
     5  H   -0.575565
     6  O   -0.921155
     7  H   -0.550291
     8  N    0.055900
     9  C    0.725554
    10  H   -0.356873
    11  O   -0.777868
    12  C    1.024150
    13  H   -0.481073
    14  O   -0.510569
    15  H   -0.306974
    16  H   -0.260798
    17  H    0.111601
    18  H    0.101598
    19  H    0.246131
    20  C    0.558182
    21  C    1.138673
    22  C    0.460006
    23  N   -0.656157
    24  C    0.442112
    25  H   -0.841528
    26  H   -0.594998
    27  O   -0.774813
    28  O   -0.761840
 Sum of Mulliken charges =  -1.00000
 Mulliken charges with hydrogens summed into heavy atoms:
               1
     1  C    0.776053
     2  C    0.399003
     3  C    0.525015
     4  O   -0.574607
     6  O   -0.921155
     8  N    0.055900
     9  C    0.244482
    11  O   -0.666267
    12  C    0.456377
    14  O   -0.264438
    20  C   -0.283346
    21  C    0.543675
    22  C    0.460006
    23  N   -0.656157
    24  C    0.442112
    27  O   -0.774813
    28  O   -0.761840
 Electronic spatial extent (au):  <R**2>=           4115.1586
 Charge=             -1.0000 electrons
 Dipole moment (field-independent basis, Debye):
    X=            -14.7488    Y=             -6.3159    Z=             -3.9161  Tot=             16.5153
 Quadrupole moment (field-independent basis, Debye-Ang):
   XX=           -154.0395   YY=           -115.8113   ZZ=           -109.0210
   XY=             -7.4360   XZ=             -1.8605   YZ=             -2.8620
 Traceless Quadrupole moment (field-independent basis, Debye-Ang):
   XX=            -27.7489   YY=             10.4793   ZZ=             17.2696
   XY=             -7.4360   XZ=             -1.8605   YZ=             -2.8620
 Octapole moment (field-independent basis, Debye-Ang**2):
  XXX=           -388.5436  YYY=            -32.8303  ZZZ=              1.4987  XYY=            -13.8062
  XXY=            -65.9593  XXZ=            -28.3612  XZZ=             -9.1921  YZZ=              1.8362
  YYZ=            -21.6364  XYZ=              0.5652
 Hexadecapole moment (field-independent basis, Debye-Ang**3):
 XXXX=          -5080.1753 YYYY=          -1149.4824 ZZZZ=           -475.5730 XXXY=            -66.4125
 XXXZ=            -38.0181 YYYX=             46.6459 YYYZ=            -30.5881 ZZZX=             11.0016
 ZZZY=              5.7011 XXYY=           -885.9588 XXZZ=           -737.5583 YYZZ=           -278.9555
 XXYZ=            -32.0411 YYXZ=              1.7470 ZZXY=              2.0720
 N-N= 1.317548856698D+03 E-N=-4.784693024990D+03  KE= 9.048929571009D+02
 Calling FoFJK, ICntrl=      2127 FMM=F ISym2X=0 I1Cent= 0 IOpClX= 0 NMat=1 NMatS=1 NMatT=0.
 ***** Axes restored to original set *****
 -------------------------------------------------------------------
 Center     Atomic                   Forces (Hartrees/Bohr)
 Number     Number              X              Y              Z
 -------------------------------------------------------------------
      1        6           0.002436184    0.002299224    0.002142890
      2        6           0.000366511    0.004833274   -0.004191002
      3        6           0.019671905   -0.004211853    0.004324420
      4        8          -0.003235498   -0.004407001    0.002868014
      5        1           0.001868559    0.000601469   -0.001093743
      6        8          -0.012241402    0.003709519   -0.002856732
      7        1          -0.002443455   -0.001372220   -0.000836945
      8        7          -0.027716160   -0.016606994   -0.007375009
      9        6           0.007860332   -0.001562306   -0.001067099
     10        1          -0.001234690   -0.000106895    0.000132328
     11        8          -0.004409000   -0.003809035   -0.001162779
     12        6           0.002138904    0.000495118    0.003927438
     13        1          -0.001847254   -0.000367353   -0.000910802
     14        8          -0.009451285    0.001770908   -0.002418896
     15        1          -0.001639367    0.000141018   -0.000052126
     16        1           0.000610961   -0.000066824   -0.000620744
     17        1           0.000996119    0.000924008   -0.000162947
     18        1           0.001711311    0.000996933   -0.000648632
     19        1           0.013045068   -0.004053643    0.000641203
     20        6          -0.002631887   -0.000985832   -0.000614298
     21        6           0.004560374   -0.008036529   -0.004109727
     22        6          -0.064055552    0.026768674    0.012392873
     23        7          -0.004533099    0.005581526    0.002599214
     24        6           0.089069720   -0.007129421   -0.003036053
     25        1          -0.000731659   -0.001161385   -0.000496781
     26        1          -0.000434796   -0.005295765   -0.002605322
     27        8           0.031291010   -0.004873977   -0.002009070
     28        8          -0.039021855    0.015925359    0.007240327
 -------------------------------------------------------------------
 Cartesian Forces:  Max     0.089069720 RMS     0.014732763

 GradGradGradGradGradGradGradGradGradGradGradGradGradGradGradGradGradGrad
 Berny optimization.
 FormGI is forming the generalized inverse of G from B-inverse, IUseBI=4.
 Internal  Forces:  Max     0.038104060 RMS     0.007504663
 Search for a local minimum.
 Step number   1 out of a maximum of  166
 All quantities printed in internal units (Hartrees-Bohrs-Radians)
 Mixed Optimization -- RFO/linear search
 Second derivative matrix not updated -- first step.
 ITU=  0
     Eigenvalues ---    0.00498   0.00523   0.00878   0.00949   0.01347
     Eigenvalues ---    0.01500   0.01508   0.01646   0.01711   0.01741
     Eigenvalues ---    0.01913   0.01918   0.02098   0.02267   0.02468
     Eigenvalues ---    0.03054   0.03755   0.04313   0.04849   0.04908
     Eigenvalues ---    0.05132   0.05438   0.05605   0.05815   0.06110
     Eigenvalues ---    0.06221   0.06926   0.07710   0.08432   0.09796
     Eigenvalues ---    0.11657   0.13176   0.14028   0.16000   0.16000
     Eigenvalues ---    0.16000   0.16000   0.16000   0.16187   0.17114
     Eigenvalues ---    0.18364   0.20321   0.22074   0.22440   0.24484
     Eigenvalues ---    0.24994   0.24999   0.25000   0.25000   0.26282
     Eigenvalues ---    0.28365   0.28556   0.30522   0.33237   0.33361
     Eigenvalues ---    0.33473   0.33619   0.33937   0.34419   0.34992
     Eigenvalues ---    0.35350   0.37273   0.37448   0.37638   0.41565
     Eigenvalues ---    0.43081   0.43293   0.45047   0.45867   0.46048
     Eigenvalues ---    0.48153   0.49851   0.52814   0.53975   0.54258
     Eigenvalues ---    0.55430   0.94189   0.96798
 RFO step:  Lambda=-2.69136780D-02 EMin= 4.97621159D-03
 Linear search not attempted -- first point.
 Iteration  1 RMS(Cart)=  0.16045255 RMS(Int)=  0.00650924
 Iteration  2 RMS(Cart)=  0.01486491 RMS(Int)=  0.00020878
 Iteration  3 RMS(Cart)=  0.00010966 RMS(Int)=  0.00020323
 Iteration  4 RMS(Cart)=  0.00000002 RMS(Int)=  0.00020323
 Variable       Old X    -DE/DX   Delta X   Delta X   Delta X     New X
                                 (Linear)    (Quad)   (Total)
    R1        2.89134  -0.00001   0.00000  -0.00138  -0.00136   2.88999
    R2        2.89686   0.00024   0.00000  -0.00419  -0.00422   2.89264
    R3        2.07436   0.00080   0.00000   0.00219   0.00219   2.07655
    R4        2.69481   0.00410   0.00000   0.00927   0.00927   2.70407
    R5        2.90331  -0.00218   0.00000  -0.00237  -0.00234   2.90097
    R6        2.64282   0.00389   0.00000   0.00801   0.00801   2.65083
    R7        2.06628   0.00028   0.00000   0.00076   0.00076   2.06704
    R8        2.64700   0.00361   0.00000   0.00997   0.00997   2.65698
    R9        2.08423   0.00167   0.00000   0.00463   0.00463   2.08886
   R10        2.75177  -0.01275   0.00000  -0.03177  -0.03177   2.72000
   R11        1.82754  -0.00150   0.00000  -0.00264  -0.00264   1.82490
   R12        2.72416  -0.00905   0.00000  -0.02285  -0.02289   2.70128
   R13        2.60084  -0.01053   0.00000  -0.01851  -0.01851   2.58232
   R14        2.62503   0.02397   0.00000   0.04807   0.04812   2.67315
   R15        2.86934  -0.00211   0.00000  -0.00636  -0.00636   2.86297
   R16        2.08228   0.00185   0.00000   0.00512   0.00512   2.08740
   R17        1.81452  -0.00091   0.00000  -0.00156  -0.00156   1.81296
   R18        2.65221  -0.00076   0.00000  -0.00160  -0.00160   2.65061
   R19        2.07978   0.00163   0.00000   0.00450   0.00450   2.08428
   R20        2.08638   0.00065   0.00000   0.00182   0.00182   2.08820
   R21        1.83828   0.01342   0.00000   0.02418   0.02418   1.86246
   R22        2.54823  -0.00559   0.00000  -0.00841  -0.00846   2.53976
   R23        2.05687   0.00145   0.00000   0.00384   0.00384   2.06071
   R24        2.73886   0.01695   0.00000   0.04111   0.04106   2.77992
   R25        2.05111   0.00423   0.00000   0.01112   0.01112   2.06223
   R26        2.65009  -0.01711   0.00000  -0.03744  -0.03744   2.61265
   R27        2.29949   0.02863   0.00000   0.02878   0.02878   2.32827
   R28        2.59145  -0.02511   0.00000  -0.04836  -0.04831   2.54314
   R29        2.31060   0.03810   0.00000   0.03933   0.03933   2.34993
    A1        1.80196  -0.00325   0.00000  -0.01227  -0.01223   1.78973
    A2        1.95288  -0.00075   0.00000  -0.00845  -0.00855   1.94433
    A3        1.84099   0.00474   0.00000   0.03031   0.03029   1.87128
    A4        1.95661   0.00129   0.00000  -0.00237  -0.00244   1.95417
    A5        1.95936  -0.00038   0.00000   0.00185   0.00177   1.96113
    A6        1.94422  -0.00155   0.00000  -0.00751  -0.00746   1.93676
    A7        1.75305   0.00156   0.00000   0.02010   0.02011   1.77316
    A8        2.00426  -0.00029   0.00000   0.00116   0.00078   2.00504
    A9        1.91031  -0.00145   0.00000  -0.01725  -0.01711   1.89320
   A10        1.97429   0.00117   0.00000   0.00975   0.00967   1.98396
   A11        1.92130  -0.00225   0.00000  -0.02207  -0.02207   1.89922
   A12        1.89650   0.00103   0.00000   0.00651   0.00657   1.90307
   A13        1.86385  -0.00049   0.00000  -0.00552  -0.00669   1.85716
   A14        1.88065  -0.00002   0.00000   0.00490   0.00540   1.88605
   A15        2.02802  -0.00474   0.00000  -0.03454  -0.03514   1.99289
   A16        1.93839  -0.00025   0.00000   0.00225   0.00255   1.94095
   A17        1.91866  -0.00055   0.00000  -0.02532  -0.02625   1.89241
   A18        1.83468   0.00614   0.00000   0.05996   0.06032   1.89500
   A19        1.85986  -0.00111   0.00000  -0.00593  -0.00593   1.85393
   A20        1.91744  -0.00118   0.00000   0.01001   0.00998   1.92742
   A21        2.07906   0.00668   0.00000   0.02188   0.02185   2.10091
   A22        2.10219  -0.00592   0.00000  -0.02364  -0.02367   2.07852
   A23        2.10174  -0.00076   0.00000   0.00165   0.00170   2.10344
   A24        1.85796   0.00446   0.00000   0.01122   0.01043   1.86838
   A25        1.98963  -0.00038   0.00000  -0.00787  -0.00801   1.98162
   A26        1.91415  -0.00191   0.00000  -0.00078  -0.00102   1.91314
   A27        1.90737  -0.00741   0.00000  -0.04973  -0.04967   1.85770
   A28        1.88003   0.00153   0.00000   0.01837   0.01871   1.89874
   A29        1.91113   0.00373   0.00000   0.02913   0.02936   1.94049
   A30        1.91059  -0.00156   0.00000  -0.00834  -0.00834   1.90225
   A31        1.97326  -0.00631   0.00000  -0.02715  -0.02732   1.94594
   A32        1.89482   0.00261   0.00000   0.01785   0.01801   1.91283
   A33        1.88762   0.00004   0.00000  -0.00908  -0.00938   1.87824
   A34        1.86974   0.00272   0.00000   0.01951   0.01967   1.88941
   A35        1.95675   0.00161   0.00000  -0.00311  -0.00359   1.95316
   A36        1.87856  -0.00033   0.00000   0.00458   0.00460   1.88316
   A37        1.89350   0.00072   0.00000   0.00387   0.00387   1.89737
   A38        2.16195  -0.01220   0.00000  -0.04228  -0.04233   2.11961
   A39        1.99744   0.00592   0.00000   0.02016   0.02019   2.01762
   A40        2.12379   0.00628   0.00000   0.02212   0.02215   2.14594
   A41        2.08711  -0.00099   0.00000  -0.00031  -0.00042   2.08669
   A42        2.12199  -0.00375   0.00000  -0.02255  -0.02250   2.09949
   A43        2.07407   0.00474   0.00000   0.02287   0.02292   2.09700
   A44        1.96739   0.01889   0.00000   0.06580   0.06574   2.03313
   A45        2.21616  -0.02517   0.00000  -0.08968  -0.08965   2.12651
   A46        2.09963   0.00628   0.00000   0.02388   0.02391   2.12354
   A47        2.24636  -0.02381   0.00000  -0.09206  -0.09198   2.15438
   A48        2.00169   0.01887   0.00000   0.06717   0.06727   2.06896
   A49        2.16457  -0.03186   0.00000  -0.11456  -0.11461   2.04996
   A50        2.11690   0.01299   0.00000   0.04741   0.04736   2.16426
    D1       -0.58409   0.00152   0.00000   0.01268   0.01295  -0.57114
    D2       -2.70787  -0.00078   0.00000  -0.01293  -0.01278  -2.72065
    D3        1.43717  -0.00080   0.00000  -0.00895  -0.00880   1.42838
    D4       -2.69149   0.00234   0.00000   0.02730   0.02736  -2.66412
    D5        1.46792   0.00005   0.00000   0.00169   0.00163   1.46955
    D6       -0.67023   0.00002   0.00000   0.00567   0.00562  -0.66461
    D7        1.47493   0.00163   0.00000   0.02190   0.02200   1.49693
    D8       -0.64885  -0.00066   0.00000  -0.00372  -0.00374  -0.65258
    D9       -2.78699  -0.00069   0.00000   0.00026   0.00025  -2.78674
   D10        0.38545  -0.00022   0.00000   0.01923   0.01913   0.40458
   D11       -1.71868   0.00618   0.00000   0.07845   0.07845  -1.64023
   D12        2.41471   0.00304   0.00000   0.04656   0.04651   2.46121
   D13        2.49031  -0.00245   0.00000   0.00042   0.00040   2.49071
   D14        0.38618   0.00396   0.00000   0.05964   0.05972   0.44590
   D15       -1.76362   0.00082   0.00000   0.02774   0.02778  -1.73584
   D16       -1.58887  -0.00380   0.00000  -0.01012  -0.01017  -1.59904
   D17        2.59019   0.00261   0.00000   0.04910   0.04915   2.63934
   D18        0.44039  -0.00054   0.00000   0.01720   0.01721   0.45760
   D19        2.90437   0.00118   0.00000   0.00837   0.00827   2.91264
   D20       -1.42872  -0.00020   0.00000   0.01151   0.01160  -1.41712
   D21        0.78198  -0.00002   0.00000   0.00377   0.00378   0.78576
   D22        0.61183  -0.00149   0.00000  -0.04526  -0.04534   0.56649
   D23       -1.47192  -0.00092   0.00000  -0.04751  -0.04756  -1.51948
   D24        2.75937  -0.00580   0.00000  -0.10612  -0.10602   2.65335
   D25        2.75671  -0.00028   0.00000  -0.02642  -0.02637   2.73034
   D26        0.67296   0.00029   0.00000  -0.02868  -0.02859   0.64437
   D27       -1.37893  -0.00460   0.00000  -0.08728  -0.08705  -1.46599
   D28       -1.40118   0.00023   0.00000  -0.02733  -0.02737  -1.42855
   D29        2.79825   0.00080   0.00000  -0.02959  -0.02959   2.76866
   D30        0.74636  -0.00409   0.00000  -0.08820  -0.08805   0.65831
   D31        0.51804   0.00208   0.00000   0.03426   0.03429   0.55233
   D32       -1.48042  -0.00056   0.00000   0.00058   0.00054  -1.47988
   D33        2.66361   0.00078   0.00000   0.01754   0.01754   2.68115
   D34       -0.39253   0.00196   0.00000   0.06361   0.06352  -0.32901
   D35        1.65345   0.00151   0.00000   0.06745   0.06741   1.72086
   D36       -2.60673   0.00854   0.00000   0.12683   0.12665  -2.48007
   D37        2.12096   0.00208   0.00000   0.02777   0.02733   2.14828
   D38       -1.04228   0.00184   0.00000   0.02234   0.02192  -1.02036
   D39       -2.04356  -0.00243   0.00000  -0.02479  -0.02444  -2.06800
   D40        1.07639  -0.00267   0.00000  -0.03023  -0.02985   1.04654
   D41        0.04386   0.00049   0.00000  -0.00101  -0.00096   0.04290
   D42       -3.11938   0.00025   0.00000  -0.00645  -0.00637  -3.12574
   D43        0.00123  -0.00142   0.00000  -0.05183  -0.05211  -0.05088
   D44        2.15750  -0.00347   0.00000  -0.08361  -0.08367   2.07382
   D45       -2.05078  -0.00226   0.00000  -0.06589  -0.06613  -2.11691
   D46        3.13891  -0.00036   0.00000  -0.00489  -0.00496   3.13396
   D47       -0.00774  -0.00031   0.00000  -0.00453  -0.00462  -0.01235
   D48        0.01896  -0.00006   0.00000   0.00086   0.00085   0.01981
   D49       -3.12769  -0.00001   0.00000   0.00122   0.00119  -3.12650
   D50       -3.13421  -0.00002   0.00000   0.00284   0.00272  -3.13149
   D51        0.01294  -0.00014   0.00000  -0.00013  -0.00011   0.01283
   D52       -0.01455  -0.00017   0.00000  -0.00242  -0.00245  -0.01700
   D53        3.13260  -0.00029   0.00000  -0.00539  -0.00527   3.12733
   D54        0.80410   0.00171   0.00000   0.01762   0.01767   0.82177
   D55       -1.26807   0.00045   0.00000  -0.00197  -0.00174  -1.26981
   D56        2.98156  -0.00057   0.00000  -0.01202  -0.01169   2.96987
   D57       -1.27216   0.00148   0.00000   0.04337   0.04291  -1.22925
   D58        2.93885   0.00023   0.00000   0.02379   0.02350   2.96235
   D59        0.90530  -0.00080   0.00000   0.01374   0.01354   0.91885
   D60        2.95554   0.00179   0.00000   0.03325   0.03322   2.98875
   D61        0.88337   0.00054   0.00000   0.01366   0.01380   0.89717
   D62       -1.15018  -0.00048   0.00000   0.00361   0.00385  -1.14633
   D63        1.06765  -0.00309   0.00000  -0.05259  -0.05246   1.01519
   D64       -3.12888  -0.00181   0.00000  -0.03369  -0.03376   3.12055
   D65       -1.07176   0.00038   0.00000  -0.01772  -0.01779  -1.08955
   D66       -0.00977  -0.00001   0.00000   0.00112   0.00102  -0.00875
   D67        3.13706  -0.00005   0.00000  -0.00040  -0.00045   3.13660
   D68        3.13723  -0.00005   0.00000   0.00076   0.00068   3.13791
   D69        0.00088  -0.00010   0.00000  -0.00077  -0.00080   0.00008
   D70       -0.00213  -0.00009   0.00000  -0.00240  -0.00246  -0.00459
   D71       -3.13910  -0.00010   0.00000  -0.00221  -0.00221  -3.14131
   D72        3.13437  -0.00008   0.00000  -0.00105  -0.00112   3.13325
   D73       -0.00260  -0.00009   0.00000  -0.00086  -0.00087  -0.00347
   D74        0.00561   0.00006   0.00000   0.00146   0.00152   0.00713
   D75       -3.14026  -0.00003   0.00000   0.00094   0.00094  -3.13932
   D76        0.00262   0.00001   0.00000   0.00073   0.00070   0.00333
   D77        3.13883  -0.00003   0.00000   0.00304   0.00317  -3.14119
         Item               Value     Threshold  Converged?
 Maximum Force            0.038104     0.000450     NO 
 RMS     Force            0.007505     0.000300     NO 
 Maximum Displacement     0.732874     0.001800     NO 
 RMS     Displacement     0.170185     0.001200     NO 
 Predicted change in Energy=-1.581281D-02
 GradGradGradGradGradGradGradGradGradGradGradGradGradGradGradGradGradGrad

                          Input orientation:                          
 ---------------------------------------------------------------------
 Center     Atomic      Atomic             Coordinates (Angstroms)
 Number     Number       Type             X           Y           Z
 ---------------------------------------------------------------------
      1          6           0       -2.716423   -0.504620    0.293100
      2          6           0       -1.314222   -0.824573    0.812972
      3          6           0       -0.498202   -0.835760   -0.487262
      4          8           0       -1.215262   -2.013825    1.550272
      5          1           0       -0.976271    0.009707    1.434451
      6          8           0       -1.095409    0.110061   -1.339105
      7          1           0       -0.553096   -1.852445   -0.917610
      8          7           0        0.887122   -0.484098   -0.317054
      9          6           0       -2.427439    0.398881   -0.908265
     10          1           0       -3.319984    0.006466    1.055993
     11          8           0       -3.319012   -1.744480   -0.090572
     12          6           0       -2.459514    1.876575   -0.575580
     13          1           0       -3.126696    0.159296   -1.729115
     14          8           0       -1.728403    2.157387    0.588048
     15          1           0       -3.502508    2.196837   -0.414017
     16          1           0       -2.067616    2.425067   -1.451168
     17          1           0       -4.258827   -1.606411   -0.225070
     18          1           0       -1.872627   -2.616451    1.179753
     19          1           0       -0.799125    1.855895    0.458053
     20          6           0        1.872117   -1.341800   -0.718888
     21          6           0        3.172244   -1.031672   -0.578226
     22          6           0        3.550031    0.262439    0.010505
     23          7           0        2.512506    1.096363    0.384092
     24          6           0        1.213762    0.774104    0.240838
     25          1           0        1.530152   -2.282937   -1.150716
     26          1           0        3.943486   -1.732827   -0.901437
     27          8           0        4.728521    0.589823    0.158737
     28          8           0        0.272488    1.515885    0.572703
 ---------------------------------------------------------------------
                    Distance matrix (angstroms):
                    1          2          3          4          5
     1  C    0.000000
     2  C    1.529315   0.000000
     3  C    2.374684   1.535129   0.000000
     4  O    2.472179   1.402756   2.460398   0.000000
     5  H    2.143675   1.093833   2.153217   2.040885   0.000000
     6  O    2.381095   2.356450   1.406012   3.588001   2.777927
     7  H    2.821779   2.151917   1.105378   2.560263   3.029666
     8  N    3.654893   2.497758   1.439361   3.201091   2.604581
     9  C    1.530720   2.387205   2.328849   3.651702   2.783104
    10  H    1.098862   2.184666   3.324670   2.959010   2.374075
    11  O    1.430934   2.383653   2.990000   2.681544   3.300197
    12  C    2.547684   3.245916   3.348329   4.604630   3.118563
    13  H    2.167593   3.273417   3.072672   4.373832   3.828166
    14  O    2.854726   3.018977   3.410076   4.311403   2.427886
    15  H    2.901002   3.927214   4.269410   5.178764   3.818671
    16  H    3.470805   4.031636   3.745019   5.425763   3.918137
    17  H    1.965058   3.218618   3.847720   3.546987   4.017589
    18  H    2.440896   1.912373   2.799793   0.965697   2.786580
    19  H    3.045534   2.752490   2.868656   4.042381   2.095983
    20  C    4.772807   3.573076   2.434777   3.890065   3.817951
    21  C    5.976068   4.701776   3.676796   4.974468   4.727104
    22  C    6.319548   5.048416   4.223980   5.500934   4.751726
    23  N    5.469289   4.303229   3.681945   4.992945   3.802057
    24  C    4.133306   3.045293   2.460206   3.922668   2.608689
    25  H    4.824978   3.751447   2.578509   3.860706   4.268660
    26  H    6.876758   5.604250   4.550260   5.718611   5.718111
    27  O    7.526158   6.240455   5.456027   6.636558   5.874404
    28  O    3.618592   2.837802   2.692159   3.953213   2.137892
                    6          7          8          9         10
     6  O    0.000000
     7  H    2.079228   0.000000
     8  N    2.308255   2.075397   0.000000
     9  C    1.429456   2.929456   3.480732   0.000000
    10  H    3.270468   3.873800   4.452600   2.192929   0.000000
    11  O    3.153183   2.888933   4.396751   2.461203   2.092946
    12  C    2.358882   4.202024   4.103606   1.515021   2.626737
    13  H    2.068975   3.365866   4.303325   1.104606   2.795987
    14  O    2.882038   4.441521   3.825914   2.412457   2.716351
    15  H    3.317310   5.034811   5.144479   2.152371   2.644233
    16  H    2.513363   4.568978   4.298829   2.128296   3.701880
    17  H    3.767567   3.777907   5.267716   2.800345   2.263608
    18  H    3.792437   2.593029   3.795204   3.709429   2.998308
    19  H    2.522995   3.962924   2.986601   2.577038   3.183183
    20  C    3.361366   2.486344   1.366507   4.642415   5.650304
    21  C    4.482784   3.829754   2.364282   5.788943   6.774763
    22  C    4.839915   4.708480   2.784905   6.049207   6.953824
    23  N    4.118161   4.448350   2.373043   5.153612   5.971370
    24  C    2.875664   3.370838   1.414570   3.836610   4.669967
    25  H    3.557457   2.139996   2.084299   4.786800   5.799546
    26  H    5.383145   4.498202   3.352937   6.718103   7.721053
    27  O    6.032567   5.917658   4.016967   7.237590   8.119347
    28  O    2.739068   3.774688   2.273625   3.275755   3.926547
                   11         12         13         14         15
    11  O    0.000000
    12  C    3.753133   0.000000
    13  H    2.519160   2.173665   0.000000
    14  O    4.267918   1.402644   3.364050   0.000000
    15  H    3.958821   1.102953   2.454035   2.037925   0.000000
    16  H    4.560957   1.105026   2.516470   2.084495   1.785129
    17  H    0.959377   3.935933   2.581005   4.607644   3.882320
    18  H    2.113312   4.859311   4.211765   4.812530   5.325819
    19  H    4.428716   1.955945   3.616593   0.985573   2.860949
    20  C    5.244497   5.398287   5.316199   5.188077   6.442165
    21  C    6.548458   6.338344   6.513033   5.962099   7.416370
    22  C    7.156933   6.250085   6.900406   5.637930   7.325327
    23  N    6.504021   5.123542   6.094615   4.376377   6.166718
    24  C    5.196069   3.921089   4.806066   3.269612   4.969527
    25  H    4.992817   5.792215   5.290111   5.775635   6.777814
    26  H    7.307634   7.357471   7.365640   7.037233   8.433425
    27  O    8.382953   7.339128   8.090350   6.658335   8.405973
    28  O    4.895792   2.985379   4.323557   2.101268   3.960796
                   16         17         18         19         20
    16  H    0.000000
    17  H    4.749477   0.000000
    18  H    5.690050   2.947484   0.000000
    19  H    2.361811   4.942040   4.655657   0.000000
    20  C    5.499729   6.156488   4.387787   4.329663   0.000000
    21  C    6.337760   7.461626   5.572498   5.018335   1.343985
    22  C    6.194466   8.032830   6.249829   4.653446   2.433309
    23  N    5.109906   7.316215   5.800642   3.398420   2.751600
[...]
 2753,0.00008560,0.00003785,-0.00008841,-0.00079185,0.00016081,-0.00008
 743,-0.01350429,-0.03252607,-0.07147054,-0.04433076,0.21144527,0.21077
 307,-0.00060967,-0.00040747,-0.00058726,0.00022302,-0.00125048,0.00114
 939,-0.00580121,0.00073076,-0.00098557,0.00064483,0.00150725,-0.000767
 62,-0.00087130,-0.00048458,0.00049217,0.00304008,-0.00054401,0.0009974
 7,0.00109612,0.00118115,0.00052805,0.00813451,0.01532314,0.00685220,-0
 .00188390,0.00039316,0.00027222,0.00030024,-0.00001721,-0.00002242,0.0
 0105775,0.00090550,0.00026707,-0.00071811,-0.00026184,-0.00151398,0.00
 058697,0.00011247,0.00026811,0.00400646,-0.00082785,0.00082856,0.00052
 258,-0.00003118,0.00010953,-0.00018643,0.00001246,0.00026092,-0.000186
 75,-0.00018997,0.00005312,-0.00025879,-0.00021126,0.00015160,-0.006011
 94,0.00175393,-0.00004571,-0.00517340,-0.03557458,-0.01837492,-0.09912
 852,-0.02514698,-0.01174126,0.88018718,0.00038111,0.00014869,-0.000560
 58,0.00034475,0.00019806,0.00134292,-0.00624127,-0.00268599,-0.0033121
 6,0.00040738,-0.00054912,-0.00050496,0.00075031,0.00067514,-0.00040245
 ,0.00360508,-0.00250418,0.00094846,-0.00117760,-0.00056080,-0.00018701
 ,0.01530129,-0.03767461,-0.01800920,-0.00094586,0.00065950,0.00088391,
 0.00035567,0.00001455,-0.00001444,0.00002314,-0.00036947,-0.00016402,0
 .00094234,0.00082779,0.00153406,0.00034385,-0.00015614,-0.00007289,-0.
 00384107,-0.00015160,-0.00093327,-0.00020249,-0.00019575,-0.00021186,0
 .00005208,-0.00004634,-0.00015380,-0.00004283,-0.00000599,0.00005175,-
 0.00033899,-0.00005766,0.00011080,0.00557860,-0.00093568,-0.00011878,-
 0.05527486,0.01711861,0.00977844,-0.00538994,-0.18737996,-0.05522869,0
 .06346156,0.49984318,0.00026673,0.00002529,-0.00031612,0.00034456,0.00
 017614,0.00087315,-0.00270632,-0.00115861,-0.00182761,0.00004666,-0.00
 025044,-0.00035947,0.00052222,0.00048109,-0.00024507,0.00128527,-0.001
 21586,-0.00001921,-0.00063910,-0.00029476,0.00012564,0.00689969,-0.016
 27405,-0.01634712,-0.00048269,0.00024575,0.00037977,0.00018666,-0.0000
 0810,-0.00000480,-0.00005033,-0.00017044,-0.00015547,0.00043965,0.0003
 6236,0.00070589,0.00011901,-0.00007137,-0.00004131,-0.00130006,-0.0000
 9673,-0.00076606,-0.00010595,-0.00008450,-0.00010115,0.00001414,0.0000
 0003,-0.00009259,-0.00003906,0.00000038,0.00003527,-0.00011432,-0.0000
 5290,0.00007804,0.00208420,-0.00053448,0.00072728,-0.02741699,0.007941
 79,0.01009685,-0.00204465,-0.05431343,-0.10961798,0.01079745,0.1441406
 4,0.28999216,0.00112260,0.00056300,0.00028632,-0.00037833,0.00168278,-
 0.00038486,0.00395537,-0.00165423,-0.00041449,-0.00035835,-0.00242251,
 0.00046834,0.00173307,0.00159824,-0.00130022,-0.00077431,-0.00155141,-
 0.00102853,-0.00165527,-0.00153808,-0.00071557,-0.01923305,-0.05298608
 ,-0.02523064,0.00134878,0.00027646,0.00033235,-0.00003640,0.00005824,-
 0.00003041,-0.00115494,-0.00130861,-0.00043134,0.00174627,0.00112572,0
 .00378977,-0.00040355,-0.00030287,-0.00036103,-0.00998224,0.00174294,-
 0.00226601,-0.00085087,-0.00014317,-0.00048302,0.00021881,-0.00001878,
 -0.00061726,0.00015883,0.00018653,-0.00002268,0.00007835,0.00008716,-0
 .00002895,0.01451314,-0.00502314,0.00067189,-0.03462950,0.01879939,0.0
 1158190,0.02489466,0.01836665,0.00861431,-0.16161782,0.08950378,0.0493
 1430,0.72480164,-0.00033094,-0.00019863,0.00011065,0.00100278,-0.00020
 875,-0.00108760,0.00391091,-0.00666449,-0.00289835,-0.00021023,0.00067
 587,0.00041320,-0.00059820,-0.00044207,0.00077613,-0.00149008,0.002357
 75,-0.00026756,-0.00195975,-0.00084117,-0.00013322,-0.04074024,-0.0020
 8987,-0.00928008,0.00057367,-0.00052876,-0.00054951,-0.00020926,-0.000
 01323,0.00004033,0.00001626,0.00043038,0.00020023,-0.00079214,-0.00074
 293,-0.00137186,-0.00015971,0.00012503,0.00007353,0.00394893,-0.000376
 43,0.00103722,0.00024475,0.00016249,0.00020208,-0.00003699,0.00004122,
 0.00015165,0.00000176,-0.00000128,-0.00000292,0.00024613,0.00010037,-0
 .00017668,-0.00528025,0.00190914,-0.00060584,0.00399373,-0.00138037,-0
 .00044900,0.02027998,-0.02438387,-0.02287369,0.06720543,-0.19157975,-0
 .06884072,-0.06834417,0.30807696,-0.00026098,-0.00020810,0.00008886,-0
 .00031193,-0.00022037,-0.00055170,0.00190292,-0.00509756,0.00201941,-0
 .00002181,0.00024566,0.00035256,-0.00043320,-0.00047236,0.00009815,0.0
 0026652,0.00136351,0.00051553,-0.00108823,-0.00001541,-0.00058229,-0.0
 1813798,-0.00863595,0.01636502,0.00034594,-0.00019169,-0.00009939,-0.0
 0011983,-0.00000871,0.00001835,0.00001601,0.00021955,0.00015712,-0.000
 53800,-0.00033956,-0.00107087,0.00000607,0.00007474,0.00004220,0.00256
 766,-0.00038740,0.00065413,0.00014278,0.00007974,0.00015882,-0.0000097
 4,-0.00001602,0.00017260,0.00002518,-0.00002433,-0.00002365,0.00009714
 ,0.00003469,-0.00010303,-0.00348753,0.00127742,0.00005771,0.00320602,-
 0.00099694,-0.00132189,0.01004778,-0.02312411,0.00681905,0.03805896,-0
 .06886999,-0.09798406,-0.05974846,0.12666263,0.12648312,-0.00190508,-0
 .00072691,-0.00009202,0.00109844,-0.00327955,-0.00104714,-0.00600944,-
 0.03594900,-0.01395904,0.00060793,0.00399070,0.00000418,-0.00519285,-0
 .00289580,0.00385256,0.00125786,0.00648358,0.00120531,-0.00510772,-0.0
 0004597,0.00057836,-0.14455868,0.00184880,0.00447342,-0.00203499,-0.00
 068901,-0.00121668,-0.00007860,0.00002970,-0.00002906,0.00161898,0.002
 05067,0.00096906,-0.00325530,-0.00116651,-0.00465969,0.00052488,0.0003
 8940,0.00054259,0.01004459,-0.00130647,0.00194047,0.00101845,0.0001427
 6,0.00034893,-0.00037654,0.00006216,0.00066441,-0.00014883,-0.00013092
 ,0.00005217,0.00016478,0.00015167,-0.00036563,-0.01661929,0.00545810,0
 .00209831,0.04792976,-0.00097883,-0.00376935,-0.01880922,-0.01249147,-
 0.00549069,-0.07850466,0.03436905,0.01906034,-0.34586814,-0.04427875,-
 0.01127333,0.83974105,0.00191240,0.00076651,-0.00216206,0.00008610,-0.
 00064082,0.00481472,-0.03741232,0.00589429,-0.00302588,0.00056411,-0.0
 0241614,-0.00160850,0.00261061,0.00340827,-0.00242848,0.01104099,-0.01
 133526,0.00182941,0.00425748,0.00383886,0.00007396,-0.01600501,-0.1137
 2081,-0.02593683,-0.00260175,0.00228500,0.00311667,0.00131871,-0.00000
 721,-0.00004838,0.00018018,-0.00120732,-0.00051632,0.00407111,0.003003
 34,0.00590069,0.00107710,-0.00059569,-0.00029338,-0.01714452,0.0026035
 4,-0.00387907,-0.00092612,-0.00072848,-0.00085197,0.00013890,-0.000179
 40,-0.00070315,-0.00008163,-0.00005841,0.00011191,-0.00071559,-0.00065
 432,0.00067353,0.02265608,-0.01063733,0.00089049,0.03455171,-0.0426573
 9,-0.02251688,-0.01820640,-0.00666736,-0.00284565,0.01459897,0.0205427
 4,0.02026805,-0.06021149,-0.11251974,-0.01844259,-0.14390011,0.5164729
 2,0.00108843,0.00021150,-0.00090662,0.00074768,0.00141935,0.00360238,-
 0.02016973,0.00565405,-0.00529106,0.00009729,-0.00123935,-0.00120878,0
 .00271780,0.00144050,-0.00162730,0.00562008,-0.00665211,0.00055679,0.0
 0302590,0.00066485,0.00171247,-0.00206239,-0.02253088,-0.07630418,-0.0
 0234582,0.00131453,0.00176579,0.00061318,0.00006995,-0.00013739,-0.000
 10968,-0.00067607,-0.00058512,0.00245189,0.00160555,0.00415297,0.00071
 353,-0.00037005,-0.00017910,-0.01273351,0.00162794,-0.00166281,-0.0005
 0887,-0.00040621,-0.00066402,0.00010258,0.00006228,-0.00057397,-0.0001
 2866,-0.00005876,0.00008106,-0.00034822,-0.00034386,0.00035388,0.01672
 706,-0.00474052,-0.00179522,0.01491747,-0.02254651,-0.01208830,-0.0080
 5412,-0.00311355,-0.00071096,0.00980993,0.01786656,-0.01049313,-0.0204
 8409,-0.01874617,-0.07940180,-0.09375440,0.15099030,0.29773966,-0.0000
 1220,0.00002237,-0.00000064,-0.00016414,-0.00018279,-0.00001949,-0.000
 09445,0.00484025,0.00175625,0.00003483,0.00004864,-0.00015428,0.000098
 71,0.00009170,-0.00011442,0.00034289,-0.00071604,0.00037138,-0.0007895
 5,-0.00011702,0.00016207,0.00655653,0.01940661,0.00997203,-0.00027602,
 0.00010855,0.00008302,0.00003817,-0.00000452,-0.00001048,0.00007911,0.
 00001641,-0.00002873,0.00004249,0.00005641,0.00004047,0.00006879,0.000
 00575,0.00000510,-0.00009942,-0.00004320,-0.00004916,0.00001450,-0.000
 01854,-0.00001345,-0.00000761,-0.00000082,0.00000284,-0.00001714,-0.00
 001779,0.00000080,-0.00003964,-0.00003461,0.00006385,0.00016671,-0.000
 01653,0.00003147,-0.09445730,-0.09211394,-0.04538430,-0.00353550,-0.02
 686369,-0.01326579,-0.00450732,0.00353094,0.00270203,0.00097964,-0.000
 38478,-0.00033540,-0.00390423,0.00028164,0.00059962,0.10049950,-0.0000
 1609,-0.00002999,-0.00003957,0.00035632,0.00060117,-0.00008159,-0.0041
 0936,-0.00145080,0.00067455,-0.00007306,0.00002403,0.00013584,-0.00026
 143,-0.00005720,0.00024884,0.00026703,0.00035265,0.00017643,0.00106324
 ,0.00146198,0.00034008,-0.00839226,-0.02061682,-0.01157380,0.00024410,
 0.00000277,0.00007334,-0.00003090,-0.00000512,0.00001501,-0.00003083,0
 .00006059,0.00007258,-0.00014403,-0.00008704,-0.00020102,0.00004528,0.
 00000036,-0.00000810,0.00043741,0.00002434,0.00016106,0.00001785,0.000
 03083,0.00003025,-0.00000513,-0.00000527,0.00002508,0.00001230,-0.0000
 0114,-0.00000862,0.00008642,0.00002413,-0.00006076,-0.00066316,0.00014
 221,-0.00008063,-0.08429432,-0.24405045,-0.10376984,-0.00006683,-0.000
 31202,-0.00431001,-0.00052950,0.00469257,-0.00356522,-0.00072740,-0.00
 028923,0.00093117,0.00533288,0.00448811,0.00027341,0.09171804,0.259130
 69,0.00006648,-0.00005831,-0.00013757,0.00039158,-0.00024585,0.0003761
 2,-0.00166904,-0.00044755,-0.00139258,-0.00029566,0.00037942,0.0000387
 0,-0.00013107,-0.00002770,0.00007691,-0.00018012,0.00052499,0.00003320
 ,0.00068611,0.00059774,0.00045996,-0.00468344,-0.01325243,-0.00389138,
 0.00005463,0.00005834,-0.00004763,0.00002037,-0.00000268,0.00002007,-0
 .00002881,0.00007488,-0.00000761,-0.00007870,-0.00004378,-0.00006953,0
 .00000084,0.00000921,-0.00000785,0.00021083,0.00001930,0.00004525,0.00
 000916,0.00001719,0.00001605,-0.00000154,0.00001064,0.00000292,0.00000
 026,0.00000734,0.00001125,0.00018003,-0.00003610,-0.00003681,-0.000338
 56,0.00005934,-0.00002834,-0.04150403,-0.10295615,-0.08964705,0.000501
 82,-0.00317000,0.00664499,0.00046869,-0.00390900,0.00970107,-0.0005546
 3,0.00093714,-0.00153399,0.00331771,0.00101289,0.00310178,0.04394648,0
 .11847398,0.08308361,-0.00002032,0.00005884,0.00010246,-0.00019178,0.0
 0004565,-0.00031064,0.00038052,0.00097129,0.00098659,-0.00002379,-0.00
 014037,0.00009700,0.00001882,-0.00001902,-0.00001722,-0.00038362,0.000
 11972,-0.00005546,-0.00004871,-0.00005245,-0.00004566,-0.00382661,-0.0
 0335542,-0.00133872,0.00010158,-0.00006648,-0.00005751,-0.00005141,-0.
 00000056,-0.00000884,-0.00005960,-0.00006438,-0.00002343,-0.00001024,-
 0.00002225,0.00001305,-0.00006165,0.00000919,-0.00001096,-0.00002811,0
 .00003837,-0.00000573,-0.00001406,0.00001093,0.00000458,0.00000732,0.0
 0000393,-0.00000683,0.00001048,0.00001277,0.00000146,0.00000184,0.0000
 3314,-0.00000547,0.00004823,-0.00004196,-0.00000058,-0.01355578,0.0219
 9170,0.01208493,-0.18722493,0.12660852,0.07343422,0.00669654,-0.006482
 57,-0.00367245,0.00089244,-0.00233233,-0.00111629,-0.00048391,-0.00082
 975,-0.00041340,0.00058311,-0.00014507,-0.00034401,0.19609555,-0.00001
 707,0.00000794,-0.00004961,0.00015249,-0.00000683,0.00004717,-0.000096
 49,0.00078179,-0.00053231,0.00000991,0.00004060,-0.00000319,-0.0000539
 2,-0.00002929,0.00003962,-0.00044075,0.00006137,-0.00008320,-0.0000335
 7,0.00005163,0.00008413,-0.00278750,0.00319923,-0.00279526,-0.00003558
 ,-0.00002499,-0.00011274,0.00000869,-0.00000723,0.00001032,0.00003565,
 0.00002559,0.00002860,-0.00006227,-0.00003585,-0.00011169,-0.00003175,
 0.00001484,0.00001872,0.00025526,-0.00002395,0.00008343,0.00002338,0.0
 0000978,0.00001306,-0.00000650,-0.00000414,0.00001610,0.00000085,-0.00
 000041,-0.00000497,-0.00001137,-0.00000040,0.00000257,-0.00034179,0.00
 009254,-0.00002011,-0.00815679,0.00508165,0.00376536,0.13010905,-0.169
 14436,-0.08046995,0.02341435,-0.00771484,-0.00593258,-0.00093391,-0.00
 540320,-0.00354606,-0.00359715,-0.00108131,-0.00039170,0.00080958,-0.0
 0046154,0.00263882,-0.13759381,0.17233368,-0.00008290,-0.00000513,0.00
 014510,-0.00044648,-0.00017246,-0.00023578,-0.00073937,-0.00083433,0.0
 0148843,0.00000806,0.00004733,0.00000121,0.00001802,-0.00000286,-0.000
 01145,0.00071079,0.00001543,0.00017206,0.00001461,0.00003817,-0.000033
 00,-0.00018440,-0.00242803,0.00756053,-0.00002598,0.00002435,0.0001521
 3,-0.00004550,0.00001351,-0.00002199,0.00001449,0.00002686,-0.00002786
 ,-0.00000342,-0.00001410,-0.00001119,0.00006085,-0.00000502,-0.0000111
 6,0.00008023,-0.00000437,0.00000063,0.00001079,-0.00000412,0.00000031,
 -0.00000204,0.00001102,-0.00000149,-0.00000985,-0.00001137,0.00000746,
 0.00000623,-0.00000390,0.00001104,-0.00012103,0.00004367,-0.00001615,-
 0.00353515,0.00248170,0.00003242,0.07487556,-0.08029324,-0.07175857,0.
 01200672,-0.00435587,-0.00107926,-0.00034721,-0.00366596,-0.00024474,-
 0.00195461,-0.00074518,-0.00028752,0.00007454,0.00265070,-0.00421875,-
 0.07978814,0.08491788,0.06936913,0.00045017,0.00030508,0.00068713,-0.0
 0039561,0.00127122,-0.00126324,0.00622885,0.00023498,0.00174258,-0.000
 53219,-0.00118666,0.00073865,0.00052338,0.00025841,-0.00037134,-0.0034
 9380,0.00110717,-0.00114991,-0.00039379,-0.00034802,-0.00014185,-0.009
 49473,-0.00680430,-0.00208574,0.00178270,-0.00042924,-0.00049254,-0.00
 032896,0.00001984,0.00000581,-0.00087705,-0.00070215,-0.00019364,0.000
 40876,0.00009611,0.00107963,-0.00057817,-0.00006531,-0.00020287,-0.002
 92252,0.00086720,-0.00060091,-0.00041042,0.00005796,-0.00006945,0.0001
 3567,0.00000006,-0.00020645,0.00016475,0.00016243,-0.00006082,0.000272
 95,0.00018227,-0.00015185,0.00439118,-0.00165768,0.00015997,0.00634675
 ,-0.00356628,-0.00218117,-0.04320516,-0.03169622,-0.01432401,-0.560595
 15,-0.11589457,-0.04399221,-0.09627051,0.01965403,0.01312103,0.0274301
 3,0.00927945,0.00361907,-0.00176159,-0.00076218,-0.00036839,0.00103251
 ,-0.00184475,-0.00108193,0.68693064,-0.00004425,-0.00001074,0.00025583
 ,-0.00016888,0.00014160,-0.00054099,0.00239369,0.00061901,0.00156352,-
 0.00022790,0.00001564,0.00024271,-0.00009976,-0.00012800,0.00005409,-0
 .00146404,0.00090323,-0.00044342,0.00036934,0.00027588,0.00005824,-0.0
 0372544,0.00783039,0.00498011,0.00057586,-0.00025161,-0.00029513,-0.00
 015375,0.00000096,0.00000841,-0.00015454,0.00001345,0.00000800,-0.0001
 9233,-0.00022409,-0.00021890,-0.00017953,0.00003182,-0.00001872,0.0005
 2790,0.00021562,0.00016430,-0.00001159,0.00006453,0.00004689,0.0000130
 6,0.00001540,-0.00000247,0.00003948,0.00002203,-0.00002387,0.00016053,
 0.00003387,-0.00005544,-0.00069488,-0.00001250,0.00000762,0.00927062,-
 0.00983854,-0.00725531,-0.05244251,-0.00762930,-0.01448987,-0.11566927
 ,-0.12081585,-0.01963114,0.03555738,0.02155334,0.00232266,-0.00242534,
 -0.00449314,-0.00695983,-0.00218384,-0.00118898,0.00085102,0.00098586,
 0.00224900,0.00195014,0.12650584,0.11081897,-0.00002376,0.00000947,0.0
 0008855,-0.00003695,0.00006755,-0.00030039,0.00093650,0.00064901,-0.00
 001189,-0.00005160,-0.00004064,0.00018734,-0.00010279,-0.00007755,0.00
 004861,-0.00066951,0.00038208,0.00001126,0.00021618,0.00009428,0.00003
 028,-0.00157879,0.00453915,0.00189733,0.00024381,-0.00008345,-0.000151
 60,-0.00006825,0.00000264,0.00000880,-0.00003746,-0.00000158,0.0000581
 4,-0.00010160,-0.00009095,-0.00018552,-0.00006775,0.00001581,0.0000024
 2,0.00025307,0.00005276,0.00021567,0.00000224,0.00002914,0.00002769,0.
 00000328,-0.00000928,0.00003196,0.00002420,0.00001148,-0.00002301,0.00
 005138,0.00002425,-0.00004232,-0.00036035,0.00008216,-0.00019505,0.004
 48477,-0.00645150,-0.00079048,-0.02485365,-0.01515372,0.01684922,-0.04
 402356,-0.01995409,-0.08440003,0.02146395,0.00345776,0.01557323,-0.001
 78429,-0.00778273,0.00629070,-0.00123468,0.00067495,-0.00205237,0.0004
 1144,0.00212555,-0.00058544,0.04471557,0.03687100,0.04895089,0.0021046
 2,0.00125656,-0.00088091,-0.00135227,0.00003480,0.00393467,-0.01504597
 ,0.00600540,-0.00171964,-0.00038146,-0.00430787,-0.00065504,0.00032880
 ,-0.00044082,-0.00268691,0.00459051,-0.00916496,-0.00160337,0.00130750
 ,-0.00002268,-0.00029664,0.02211662,0.01821069,0.00710550,-0.00041779,
 0.00159905,0.00197453,0.00068227,0.00007988,-0.00016526,-0.00107869,-0
 .00215734,-0.00073377,0.00383812,0.00395193,0.01065740,0.00015486,-0.0
 0077141,-0.00056819,-0.03795390,0.00923299,-0.00703723,-0.00194113,-0.
 00073513,-0.00192203,0.00021510,0.00000773,-0.00167618,0.00014207,0.00
 019027,0.00002701,-0.00030174,-0.00044370,0.00041122,0.01050240,-0.007
 62575,-0.00329928,-0.00960516,0.00434104,0.00360353,0.00469384,0.00796
 896,0.00388013,0.01955870,-0.02311890,-0.01151877,-0.10323034,0.046069
 46,0.02707872,-0.29857936,0.18940914,0.09826137,0.00016113,0.00067068,
 0.00032299,0.00011558,0.00122577,0.00048710,-0.01483881,0.00343830,0.0
 0218862,0.41421451,-0.00040301,-0.00139735,0.00067330,-0.00240253,-0.0
 0091550,0.00101597,0.01345595,-0.00075313,0.00559928,-0.00133233,-0.00
 024367,-0.00001869,-0.00206867,-0.00467451,-0.00018817,-0.00572650,0.0
 0472247,-0.00249247,-0.00044327,0.00017807,-0.00001294,0.02920824,-0.0
 6288932,-0.04005873,0.00248162,-0.00164185,-0.00086166,-0.00077584,-0.
 00019229,0.00015569,-0.00050500,0.00111577,-0.00022909,-0.00238389,-0.
 00357861,-0.00722473,-0.00043505,0.00065103,0.00021643,0.02725869,-0.0
 0057884,0.00514503,0.00131670,0.00070992,0.00137532,-0.00030350,0.0000
 9903,0.00089885,-0.00012287,-0.00022287,-0.00003771,0.00053081,-0.0002
 6914,-0.00000961,-0.02400349,0.00455923,-0.00017638,-0.00871505,-0.002
 57640,-0.00249653,0.00158411,-0.00247677,-0.00037293,-0.00945394,0.008
 66288,-0.00114618,0.02761758,0.01223120,-0.00261460,0.19355231,-0.2537
 0346,-0.09442518,0.00176120,-0.00248085,-0.00152270,0.00025651,-0.0000
 1130,0.00032519,0.00495531,-0.00021199,0.00055646,-0.24490410,0.305888
 24,-0.00113310,0.00069909,0.00024032,0.00207374,-0.00059059,-0.0024342
 8,0.00665114,0.00283562,-0.00119717,0.00015926,0.00139594,0.00103685,-
 0.00179674,-0.00066298,0.00140990,-0.00526068,-0.00176827,-0.00227146,
 -0.00038089,-0.00000650,0.00022711,0.01335224,-0.03940389,-0.00201429,
 0.00270698,-0.00016793,-0.00101182,-0.00027576,-0.00000823,0.00005920,
 0.00064847,0.00029408,0.00083885,0.00042364,-0.00108011,-0.00174664,-0
 .00045263,0.00014672,0.00013286,0.00543150,-0.00045385,0.00618992,0.00
 026057,0.00021344,0.00049693,0.00019639,-0.00018970,0.00061741,0.00016
 073,0.00015474,-0.00007377,0.00004430,0.00035260,-0.00020249,-0.011583
 79,0.00319151,-0.00763332,-0.00314567,-0.00314558,0.00226228,0.0002320
 0,-0.00058395,-0.00221086,-0.00530987,0.00030553,0.01113532,0.01792625
 ,-0.00311340,0.01334154,0.10028810,-0.09589556,-0.12544019,0.00079888,
 -0.00125811,-0.00054041,0.00008562,0.00026205,-0.00039612,0.00306889,0
 .00055055,-0.00153399,-0.12516955,0.13792679,0.11071831\\0.00000821,-0
 .00000463,0.00000179,-0.00000274,0.00000548,0.00001236,-0.00000308,-0.
 00000061,-0.00002047,0.00000218,-0.00000249,0.00000392,0.00000353,-0.0
 0000135,0.00000270,0.00000748,0.00000128,0.00000926,0.00000516,-0.0000
 0453,0.00000340,-0.00000506,0.00001094,-0.00000242,-0.00000713,0.00001
 016,0.00000133,0.00000207,-0.00000017,-0.00000105,-0.00000668,-0.00000
 556,-0.00000544,0.00000092,-0.00000879,-0.00001780,0.00000330,-0.00000
 391,-0.00000018,0.00003064,-0.00000747,0.00000480,0.00000336,0.0000012
 2,0.00000549,-0.00000086,0.00000194,0.00000326,0.00000056,-0.00000124,
 -0.00000042,0.00000078,-0.00000043,-0.00000047,-0.00002596,0.00000598,
 0.00000419,0.00000501,-0.00000374,-0.00000321,-0.00001428,-0.00000331,
 -0.00000554,-0.00003299,-0.00000075,0.00001011,0.00001404,0.00000154,-
 0.00000170,-0.00000920,0.00000547,0.00000430,-0.00000254,0.00000078,-0
 .00000107,0.00000493,0.00000446,0.00000030,0.00002405,0.00000585,-0.00
 000174,-0.00000573,-0.00000611,-0.00000569\\\@
 The archive entry for this job was punched.


 WAR ES EIN GOTT DER DIESE ZEICHEN SCHRIEB?
          - LUDWIG BOLTZMANN, QUOTING GOETHE, ABOUT MAXWELL'S EQUATIONS.
 Job cpu time:       0 days 10 hours  9 minutes 24.9 seconds.
 Elapsed time:       0 days  0 hours 15 minutes 22.2 seconds.
 File lengths (MBytes):  RWF=    600 Int=      0 D2E=      0 Chk=     20 Scr=      1
 Normal termination of Gaussian 16 at Thu Oct 24 06:57:08 2024.
