 Entering Gaussian System, Link 0=g16
 Input=UridineRSarrgPBE0aVDZ.gjf
 Output=UridineRSarrgPBE0aVDZ.log
 Initial command:
 /sw/contrib/chem-src/g16/c01/g16/l1.exe "/scr/Gau-74308.inp" -scrdir="/scr/"
 Entering Link 1 = /sw/contrib/chem-src/g16/c01/g16/l1.exe PID=     74309.
  
 Copyright (c) 1988-2019, Gaussian, Inc.  All Rights Reserved.
  
 This is part of the Gaussian(R) 16 program.  It is based on
 the Gaussian(R) 09 system (copyright 2009, Gaussian, Inc.),
 the Gaussian(R) 03 system (copyright 2003, Gaussian, Inc.),
 the Gaussian(R) 98 system (copyright 1998, Gaussian, Inc.),
 the Gaussian(R) 94 system (copyright 1995, Gaussian, Inc.),
 the Gaussian 92(TM) system (copyright 1992, Gaussian, Inc.),
 the Gaussian 90(TM) system (copyright 1990, Gaussian, Inc.),
 the Gaussian 88(TM) system (copyright 1988, Gaussian, Inc.),
 the Gaussian 86(TM) system (copyright 1986, Carnegie Mellon
 University), and the Gaussian 82(TM) system (copyright 1983,
 Carnegie Mellon University). Gaussian is a federally registered
 trademark of Gaussian, Inc.
  
 This software contains proprietary and confidential information,
 including trade secrets, belonging to Gaussian, Inc.
  
 This software is provided under written license and may be
 used, copied, transmitted, or stored only in accord with that
 written license.
  
 The following legend is applicable only to US Government
 contracts under FAR:
  
                    RESTRICTED RIGHTS LEGEND
  
 Use, reproduction and disclosure by the US Government is
 subject to restrictions as set forth in subparagraphs (a)
 and (c) of the Commercial Computer Software - Restricted
 Rights clause in FAR 52.227-19.
  
 Gaussian, Inc.
 340 Quinnipiac St., Bldg. 40, Wallingford CT 06492
  
  
 ---------------------------------------------------------------
 Warning -- This program may not be used in any manner that
 competes with the business of Gaussian, Inc. or will provide
 assistance to any competitor of Gaussian, Inc.  The licensee
 of this program is prohibited from giving any competitor of
 Gaussian, Inc. access to this program.  By using this program,
 the user acknowledges that Gaussian, Inc. is engaged in the
 business of creating and licensing software in the field of
 computational chemistry and represents and warrants to the
 licensee that it is not a competitor of Gaussian, Inc. and that
 it will not use this program in any manner prohibited above.
 ---------------------------------------------------------------
  

 Cite this work as:
 Gaussian 16, Revision C.01,
 M. J. Frisch, G. W. Trucks, H. B. Schlegel, G. E. Scuseria, 
 M. A. Robb, J. R. Cheeseman, G. Scalmani, V. Barone, 
 G. A. Petersson, H. Nakatsuji, X. Li, M. Caricato, A. V. Marenich, 
 J. Bloino, B. G. Janesko, R. Gomperts, B. Mennucci, H. P. Hratchian, 
 J. V. Ortiz, A. F. Izmaylov, J. L. Sonnenberg, D. Williams-Young, 
 F. Ding, F. Lipparini, F. Egidi, J. Goings, B. Peng, A. Petrone, 
 T. Henderson, D. Ranasinghe, V. G. Zakrzewski, J. Gao, N. Rega, 
 G. Zheng, W. Liang, M. Hada, M. Ehara, K. Toyota, R. Fukuda, 
 J. Hasegawa, M. Ishida, T. Nakajima, Y. Honda, O. Kitao, H. Nakai, 
 T. Vreven, K. Throssell, J. A. Montgomery, Jr., J. E. Peralta, 
 F. Ogliaro, M. J. Bearpark, J. J. Heyd, E. N. Brothers, K. N. Kudin, 
 V. N. Staroverov, T. A. Keith, R. Kobayashi, J. Normand, 
 K. Raghavachari, A. P. Rendell, J. C. Burant, S. S. Iyengar, 
 J. Tomasi, M. Cossi, J. M. Millam, M. Klene, C. Adamo, R. Cammi, 
 J. W. Ochterski, R. L. Martin, K. Morokuma, O. Farkas, 
 J. B. Foresman, and D. J. Fox, Gaussian, Inc., Wallingford CT, 2019.
 
 ******************************************
 Gaussian 16:  EM64L-G16RevC.01  3-Jul-2019
                26-Oct-2024 
 ******************************************
 %nprocshared=40
 Will use up to   40 processors via shared memory.
 %mem=50gb
 ------------------------------------------------------
 # PBE1PBE/aug-cc-pVDZ opt freq EmpiricalDispersion=GD3
 ------------------------------------------------------
 1/18=20,19=15,26=3,38=1/1,3;
 2/9=110,12=2,17=6,18=5,40=1/2;
 3/5=16,7=10,11=2,25=1,30=1,71=1,74=-13,124=31/1,2,3;
 4//1;
 5/5=2,38=5/2;
 6/7=2,8=2,9=2,10=2,28=1/1;
 7//1,2,3,16;
 1/18=20,19=15,26=3/3(2);
 2/9=110/2;
 99//99;
 2/9=110/2;
 3/5=16,7=10,11=2,25=1,30=1,71=1,74=-13,124=31/1,2,3;
 4/5=5,16=3,69=1/1;
 5/5=2,38=5/2;
 7//1,2,3,16;
 1/18=20,19=15,26=3/3(-5);
 2/9=110/2;
 6/7=2,8=2,9=2,10=2,19=2,28=1/1;
 99/9=1/99;
 ----
 blah
 ----
 Symbolic Z-matrix:
 Charge =  0 Multiplicity = 2
 C                    -2.68706  -0.43628   0.26856 
 C                    -1.31032  -0.75073   0.85389 
 C                    -0.4273   -0.75978  -0.40716 
 O                    -1.25821  -1.95759   1.57588 
 H                    -0.98926   0.05695   1.51555 
 O                    -1.02764   0.1446   -1.32399 
 H                    -0.46787  -1.78051  -0.82657 
 N                     0.96507  -0.46274  -0.23325 
 C                    -2.36201   0.45654  -0.92927 
 H                    -3.34376   0.06498   0.99319 
 O                    -3.2445   -1.6946   -0.13195 
 C                    -2.49589   1.94563  -0.63604 
 H                    -3.03173   0.20589  -1.77449 
 O                    -1.94598   2.33059   0.58641 
 H                    -3.57137   2.19532  -0.61189 
 H                    -2.04736   2.48905  -1.48971 
 H                    -4.05549  -1.52626  -0.61709 
 H                    -1.81845  -2.58444   1.10207 
 H                    -0.98471   2.0777    0.5956 
 C                     1.89078  -1.33967  -0.74204 
 C                     3.21226  -1.10397  -0.64874 
 C                     3.67393   0.12697   0.007 
 N                     2.7215    0.9938    0.47324 
 C                     1.41997   0.75533   0.3687 
 H                     1.47923  -2.2331   -1.21428 
 H                     3.94324  -1.80572  -1.04536 
 O                     4.88789   0.35514   0.11802 
 O                     0.53785   1.54168   0.78608 
 

 GradGradGradGradGradGradGradGradGradGradGradGradGradGradGradGradGradGrad
 Berny optimization.
 Initialization pass.
                           ----------------------------
                           !    Initial Parameters    !
                           ! (Angstroms and Degrees)  !
 --------------------------                            --------------------------
 ! Name  Definition              Value          Derivative Info.                !
 --------------------------------------------------------------------------------
 ! R1    R(1,2)                  1.5287         estimate D2E/DX2                !
 ! R2    R(1,9)                  1.5289         estimate D2E/DX2                !
 ! R3    R(1,10)                 1.0989         estimate D2E/DX2                !
 ! R4    R(1,11)                 1.4334         estimate D2E/DX2                !
 ! R5    R(2,3)                  1.5395         estimate D2E/DX2                !
 ! R6    R(2,4)                  1.4073         estimate D2E/DX2                !
 ! R7    R(2,5)                  1.0924         estimate D2E/DX2                !
 ! R8    R(3,6)                  1.4209         estimate D2E/DX2                !
 ! R9    R(3,7)                  1.1043         estimate D2E/DX2                !
 ! R10   R(3,8)                  1.4343         estimate D2E/DX2                !
 ! R11   R(4,18)                 0.965          estimate D2E/DX2                !
 ! R12   R(6,9)                  1.4261         estimate D2E/DX2                !
 ! R13   R(8,20)                 1.3729         estimate D2E/DX2                !
 ! R14   R(8,24)                 1.4328         estimate D2E/DX2                !
 ! R15   R(9,12)                 1.5236         estimate D2E/DX2                !
 ! R16   R(9,13)                 1.1071         estimate D2E/DX2                !
 ! R17   R(11,17)                0.9599         estimate D2E/DX2                !
 ! R18   R(12,14)                1.3946         estimate D2E/DX2                !
 ! R19   R(12,15)                1.1043         estimate D2E/DX2                !
 ! R20   R(12,16)                1.1069         estimate D2E/DX2                !
 ! R21   R(14,19)                0.994          estimate D2E/DX2                !
 ! R22   R(20,21)                1.3456         estimate D2E/DX2                !
 ! R23   R(20,25)                1.0911         estimate D2E/DX2                !
 ! R24   R(21,22)                1.4691         estimate D2E/DX2                !
 ! R25   R(21,26)                1.0882         estimate D2E/DX2                !
 ! R26   R(22,23)                1.3696         estimate D2E/DX2                !
 ! R27   R(22,27)                1.2402         estimate D2E/DX2                !
 ! R28   R(23,24)                1.3273         estimate D2E/DX2                !
 ! R29   R(24,28)                1.2533         estimate D2E/DX2                !
 ! A1    A(2,1,9)              103.2161         estimate D2E/DX2                !
 ! A2    A(2,1,10)             112.3049         estimate D2E/DX2                !
 ! A3    A(2,1,11)             106.0605         estimate D2E/DX2                !
 ! A4    A(9,1,10)             112.1665         estimate D2E/DX2                !
 ! A5    A(9,1,11)             112.1116         estimate D2E/DX2                !
 ! A6    A(10,1,11)            110.6276         estimate D2E/DX2                !
 ! A7    A(1,2,3)              101.7789         estimate D2E/DX2                !
 ! A8    A(1,2,4)              113.9655         estimate D2E/DX2                !
 ! A9    A(1,2,5)              110.1535         estimate D2E/DX2                !
 ! A10   A(3,2,4)              113.2014         estimate D2E/DX2                !
 ! A11   A(3,2,5)              109.3862         estimate D2E/DX2                !
 ! A12   A(4,2,5)              108.2062         estimate D2E/DX2                !
 ! A13   A(2,3,6)              106.4073         estimate D2E/DX2                !
 ! A14   A(2,3,7)              107.1854         estimate D2E/DX2                !
 ! A15   A(2,3,8)              117.1469         estimate D2E/DX2                !
 ! A16   A(6,3,7)              109.1322         estimate D2E/DX2                !
 ! A17   A(6,3,8)              110.891          estimate D2E/DX2                !
 ! A18   A(7,3,8)              105.8516         estimate D2E/DX2                !
 ! A19   A(2,4,18)             106.4785         estimate D2E/DX2                !
 ! A20   A(3,6,9)              110.8536         estimate D2E/DX2                !
 ! A21   A(3,8,20)             118.5131         estimate D2E/DX2                !
 ! A22   A(3,8,24)             122.3579         estimate D2E/DX2                !
 ! A23   A(20,8,24)            118.9883         estimate D2E/DX2                !
 ! A24   A(1,9,6)              106.7409         estimate D2E/DX2                !
 ! A25   A(1,9,12)             113.6574         estimate D2E/DX2                !
 ! A26   A(1,9,13)             109.7122         estimate D2E/DX2                !
 ! A27   A(6,9,12)             110.4436         estimate D2E/DX2                !
 ! A28   A(6,9,13)             107.7696         estimate D2E/DX2                !
 ! A29   A(12,9,13)            108.364          estimate D2E/DX2                !
 ! A30   A(1,11,17)            108.411          estimate D2E/DX2                !
 ! A31   A(9,12,14)            113.8183         estimate D2E/DX2                !
 ! A32   A(9,12,15)            108.105          estimate D2E/DX2                !
 ! A33   A(9,12,16)            107.2044         estimate D2E/DX2                !
 ! A34   A(14,12,15)           107.6034         estimate D2E/DX2                !
 ! A35   A(14,12,16)           112.3784         estimate D2E/DX2                !
 ! A36   A(15,12,16)           107.4865         estimate D2E/DX2                !
 ! A37   A(12,14,19)           108.6146         estimate D2E/DX2                !
 ! A38   A(8,20,21)            121.6427         estimate D2E/DX2                !
 ! A39   A(8,20,25)            115.4086         estimate D2E/DX2                !
 ! A40   A(21,20,25)           122.9471         estimate D2E/DX2                !
 ! A41   A(20,21,22)           119.1002         estimate D2E/DX2                !
 ! A42   A(20,21,26)           121.4319         estimate D2E/DX2                !
 ! A43   A(22,21,26)           119.4677         estimate D2E/DX2                !
 ! A44   A(21,22,23)           117.6265         estimate D2E/DX2                !
 ! A45   A(21,22,27)           120.1128         estimate D2E/DX2                !
 ! A46   A(23,22,27)           122.26           estimate D2E/DX2                !
 ! A47   A(22,23,24)           122.7759         estimate D2E/DX2                !
 ! A48   A(8,24,23)            119.8111         estimate D2E/DX2                !
 ! A49   A(8,24,28)            116.7341         estimate D2E/DX2                !
 ! A50   A(23,24,28)           123.4506         estimate D2E/DX2                !
 ! D1    D(9,1,2,3)            -32.144          estimate D2E/DX2                !
 ! D2    D(9,1,2,4)           -154.3589         estimate D2E/DX2                !
 ! D3    D(9,1,2,5)             83.8145         estimate D2E/DX2                !
 ! D4    D(10,1,2,3)          -153.158          estimate D2E/DX2                !
 ! D5    D(10,1,2,4)            84.6271         estimate D2E/DX2                !
 ! D6    D(10,1,2,5)           -37.1996         estimate D2E/DX2                !
 ! D7    D(11,1,2,3)            85.8881         estimate D2E/DX2                !
 ! D8    D(11,1,2,4)           -36.3268         estimate D2E/DX2                !
 ! D9    D(11,1,2,5)          -158.1535         estimate D2E/DX2                !
 ! D10   D(2,1,9,6)             24.6108         estimate D2E/DX2                !
 ! D11   D(2,1,9,12)           -97.3935         estimate D2E/DX2                !
 ! D12   D(2,1,9,13)           141.1178         estimate D2E/DX2                !
 ! D13   D(10,1,9,6)           145.7187         estimate D2E/DX2                !
 ! D14   D(10,1,9,12)           23.7145         estimate D2E/DX2                !
 ! D15   D(10,1,9,13)          -97.7742         estimate D2E/DX2                !
 ! D16   D(11,1,9,6)           -89.1021         estimate D2E/DX2                !
 ! D17   D(11,1,9,12)          148.8936         estimate D2E/DX2                !
 ! D18   D(11,1,9,13)           27.4049         estimate D2E/DX2                !
 ! D19   D(2,1,11,17)         -172.0897         estimate D2E/DX2                !
 ! D20   D(9,1,11,17)          -60.1418         estimate D2E/DX2                !
 ! D21   D(10,1,11,17)          65.8797         estimate D2E/DX2                !
 ! D22   D(1,2,3,6)             29.6441         estimate D2E/DX2                !
 ! D23   D(1,2,3,7)            -87.0159         estimate D2E/DX2                !
 ! D24   D(1,2,3,8)            154.306          estimate D2E/DX2                !
 ! D25   D(4,2,3,6)            152.3831         estimate D2E/DX2                !
 ! D26   D(4,2,3,7)             35.7231         estimate D2E/DX2                !
 ! D27   D(4,2,3,8)            -82.9551         estimate D2E/DX2                !
 ! D28   D(5,2,3,6)            -86.8738         estimate D2E/DX2                !
 ! D29   D(5,2,3,7)            156.4662         estimate D2E/DX2                !
 ! D30   D(5,2,3,8)             37.788          estimate D2E/DX2                !
 ! D31   D(1,2,4,18)            37.7952         estimate D2E/DX2                !
 ! D32   D(3,2,4,18)           -77.8997         estimate D2E/DX2                !
 ! D33   D(5,2,4,18)           160.6909         estimate D2E/DX2                !
 ! D34   D(2,3,6,9)            -15.1561         estimate D2E/DX2                !
 ! D35   D(7,3,6,9)            100.195          estimate D2E/DX2                !
 ! D36   D(8,3,6,9)           -143.5818         estimate D2E/DX2                !
 ! D37   D(2,3,8,20)           127.5255         estimate D2E/DX2                !
 ! D38   D(2,3,8,24)           -56.833          estimate D2E/DX2                !
 ! D39   D(6,3,8,20)          -110.0981         estimate D2E/DX2                !
 ! D40   D(6,3,8,24)            65.5435         estimate D2E/DX2                !
 ! D41   D(7,3,8,20)             8.1347         estimate D2E/DX2                !
 ! D42   D(7,3,8,24)          -176.2237         estimate D2E/DX2                !
 ! D43   D(3,6,9,1)             -6.0383         estimate D2E/DX2                !
 ! D44   D(3,6,9,12)           117.9703         estimate D2E/DX2                !
 ! D45   D(3,6,9,13)          -123.8306         estimate D2E/DX2                !
 ! D46   D(3,8,20,21)          178.0581         estimate D2E/DX2                !
 ! D47   D(3,8,20,25)           -2.3822         estimate D2E/DX2                !
 ! D48   D(24,8,20,21)           2.2669         estimate D2E/DX2                !
 ! D49   D(24,8,20,25)        -178.1735         estimate D2E/DX2                !
 ! D50   D(3,8,24,23)         -178.2566         estimate D2E/DX2                !
 ! D51   D(3,8,24,28)            2.4712         estimate D2E/DX2                !
 ! D52   D(20,8,24,23)          -2.635          estimate D2E/DX2                !
 ! D53   D(20,8,24,28)         178.0928         estimate D2E/DX2                !
 ! D54   D(1,9,12,14)           43.903          estimate D2E/DX2                !
 ! D55   D(1,9,12,15)          -75.5775         estimate D2E/DX2                !
 ! D56   D(1,9,12,16)          168.8168         estimate D2E/DX2                !
 ! D57   D(6,9,12,14)          -76.025          estimate D2E/DX2                !
 ! D58   D(6,9,12,15)          164.4945         estimate D2E/DX2                !
 ! D59   D(6,9,12,16)           48.8888         estimate D2E/DX2                !
 ! D60   D(13,9,12,14)         166.1403         estimate D2E/DX2                !
 ! D61   D(13,9,12,15)          46.6598         estimate D2E/DX2                !
 ! D62   D(13,9,12,16)         -68.946          estimate D2E/DX2                !
 ! D63   D(9,12,14,19)          57.897          estimate D2E/DX2                !
 ! D64   D(15,12,14,19)        177.6617         estimate D2E/DX2                !
 ! D65   D(16,12,14,19)        -64.2032         estimate D2E/DX2                !
 ! D66   D(8,20,21,22)          -0.3801         estimate D2E/DX2                !
 ! D67   D(8,20,21,26)         179.4457         estimate D2E/DX2                !
 ! D68   D(25,20,21,22)       -179.9061         estimate D2E/DX2                !
 ! D69   D(25,20,21,26)         -0.0803         estimate D2E/DX2                !
 ! D70   D(20,21,22,23)         -1.2013         estimate D2E/DX2                !
 ! D71   D(20,21,22,27)        179.1087         estimate D2E/DX2                !
 ! D72   D(26,21,22,23)        178.9694         estimate D2E/DX2                !
 ! D73   D(26,21,22,27)         -0.7206         estimate D2E/DX2                !
 ! D74   D(21,22,23,24)          0.8268         estimate D2E/DX2                !
 ! D75   D(27,22,23,24)       -179.4904         estimate D2E/DX2                !
 ! D76   D(22,23,24,8)           1.0629         estimate D2E/DX2                !
 ! D77   D(22,23,24,28)       -179.7161         estimate D2E/DX2                !
 --------------------------------------------------------------------------------
 Trust Radius=3.00D-01 FncErr=1.00D-07 GrdErr=1.00D-06 EigMax=2.50D+02 EigMin=1.00D-04
 Number of steps in this run=    166 maximum allowed number of steps=    168.
 GradGradGradGradGradGradGradGradGradGradGradGradGradGradGradGradGradGrad

                          Input orientation:                          
 ---------------------------------------------------------------------
 Center     Atomic      Atomic             Coordinates (Angstroms)
 Number     Number       Type             X           Y           Z
 ---------------------------------------------------------------------
      1          6           0       -2.687063   -0.436280    0.268561
      2          6           0       -1.310317   -0.750731    0.853885
      3          6           0       -0.427299   -0.759780   -0.407163
      4          8           0       -1.258206   -1.957590    1.575883
      5          1           0       -0.989258    0.056949    1.515553
      6          8           0       -1.027637    0.144597   -1.323987
      7          1           0       -0.467869   -1.780509   -0.826566
      8          7           0        0.965066   -0.462744   -0.233249
      9          6           0       -2.362010    0.456541   -0.929273
     10          1           0       -3.343756    0.064975    0.993189
     11          8           0       -3.244495   -1.694604   -0.131953
     12          6           0       -2.495889    1.945633   -0.636036
     13          1           0       -3.031729    0.205888   -1.774489
     14          8           0       -1.945980    2.330589    0.586407
     15          1           0       -3.571367    2.195321   -0.611890
     16          1           0       -2.047362    2.489049   -1.489705
     17          1           0       -4.055485   -1.526261   -0.617088
     18          1           0       -1.818448   -2.584440    1.102073
     19          1           0       -0.984710    2.077705    0.595601
     20          6           0        1.890784   -1.339672   -0.742044
     21          6           0        3.212265   -1.103967   -0.648736
     22          6           0        3.673928    0.126967    0.007001
     23          7           0        2.721501    0.993804    0.473244
     24          6           0        1.419966    0.755332    0.368699
     25          1           0        1.479226   -2.233103   -1.214280
     26          1           0        3.943244   -1.805718   -1.045363
     27          8           0        4.887885    0.355136    0.118024
     28          8           0        0.537852    1.541680    0.786081
 ---------------------------------------------------------------------
                    Distance matrix (angstroms):
                    1          2          3          4          5
     1  C    0.000000
     2  C    1.528697   0.000000
     3  C    2.380712   1.539495   0.000000
     4  O    2.462744   1.407304   2.461225   0.000000
     5  H    2.163517   1.092351   2.163257   2.033308   0.000000
     6  O    2.372198   2.371634   1.420869   3.589094   2.841152
     7  H    2.816217   2.143380   1.104279   2.535301   3.022188
     8  N    3.686538   2.538142   1.434279   3.232717   2.673532
     9  C    1.528920   2.396501   2.344172   3.649961   2.832189
    10  H    1.098903   2.195372   3.338702   2.963076   2.411761
    11  O    1.433360   2.367238   2.980978   2.632719   3.296712
    12  C    2.555064   3.300882   3.413313   4.653987   3.235182
    13  H    2.169154   3.284316   3.095989   4.364747   3.875338
    14  O    2.881977   3.157554   3.583846   4.454276   2.635919
    15  H    2.912475   3.992501   4.319687   5.232947   3.970634
    16  H    3.472501   4.065935   3.788323   5.458314   4.008275
    17  H    1.960870   3.209541   3.714202   3.580494   4.056656
    18  H    2.462484   1.918928   2.746356   0.965043   2.799189
    19  H    3.053700   2.858808   3.060648   4.161653   2.220312
    20  C    4.774319   3.625036   2.412867   3.958629   3.916878
    21  C    6.007438   4.778744   3.663775   5.065838   4.866690
    22  C    6.391234   5.131302   4.216386   5.579670   4.901626
    23  N    5.598178   4.409518   3.710137   5.075885   3.966590
    24  C    4.277576   3.155642   2.511954   3.998730   2.758147
    25  H    4.773401   3.775749   2.541054   3.918476   4.334713
    26  H    6.896574   5.685072   4.539045   5.826584   5.861518
    27  O    7.617666   6.338938   5.456193   6.726700   6.048373
    28  O    3.818407   2.945416   2.766237   4.011795   2.251360
                    6          7          8          9         10
     6  O    0.000000
     7  H    2.065624   0.000000
     8  N    2.351476   2.035149   0.000000
     9  C    1.426064   2.933038   3.521217   0.000000
    10  H    3.277202   3.871440   4.510941   2.193857   0.000000
    11  O    3.117381   2.863480   4.387271   2.458032   2.090913
    12  C    2.423380   4.246563   4.235649   1.523583   2.628712
    13  H    2.055017   3.379010   4.335535   1.107132   2.788774
    14  O    3.044917   4.591561   4.116884   2.445899   2.693001
    15  H    3.344116   5.048268   5.271423   2.141642   2.677024
    16  H    2.561983   4.600400   4.400737   2.131707   3.704259
    17  H    3.529778   3.602709   5.146293   2.626180   2.373095
    18  H    3.736147   2.487974   3.746015   3.697214   3.059055
    19  H    2.724622   4.144333   3.307945   2.617321   3.126381
    20  C    3.325491   2.400984   1.372891   4.620356   5.690736
    21  C    4.471202   3.746027   2.373542   5.795380   6.858845
    22  C    4.886364   4.635491   2.782699   6.117007   7.086910
    23  N    4.243492   4.422488   2.388667   5.300735   6.157955
    24  C    3.037918   3.379803   1.432824   4.009657   4.853826
    25  H    3.456856   2.036257   2.088290   4.697926   5.780591
    26  H    5.347057   4.416608   3.366401   6.699815   7.794585
    27  O    6.092382   5.842716   4.022540   7.325851   8.283117
    28  O    2.975732   3.827407   2.288943   3.539656   4.158177
                   11         12         13         14         15
    11  O    0.000000
    12  C    3.750445   0.000000
    13  H    2.520925   2.147071   0.000000
    14  O    4.290030   1.394617   3.356640   0.000000
    15  H    3.933027   1.104346   2.366578   2.023881   0.000000
    16  H    4.558461   1.106900   2.502580   2.084617   1.783095
    17  H    0.959896   3.806146   2.321205   4.557818   3.752941
    18  H    2.085243   4.899134   4.187194   4.943651   5.371826
    19  H    4.457160   1.953979   3.648467   0.994020   2.857037
    20  C    5.183558   5.481548   5.261733   5.473240   6.507550
    21  C    6.504281   6.471726   6.478464   6.318959   7.543495
    22  C    7.155558   6.464339   6.938715   6.064242   7.560120
    23  N    6.571675   5.418269   6.226779   4.856457   6.497796
    24  C    5.292451   4.214289   4.971190   3.722690   5.286637
    25  H    4.875957   5.796356   5.158607   5.983460   6.744057
    26  H    7.246396   7.463419   7.295782   7.379341   8.524411
    27  O    8.390443   7.590679   8.143965   7.129061   8.687808
    28  O    5.061864   3.374786   4.591597   2.613746   4.389448
                   16         17         18         19         20
    16  H    0.000000
    17  H    4.573481   0.000000
    18  H    5.701755   3.013236   0.000000
    19  H    2.376328   4.887622   4.763111   0.000000
    20  C    5.543203   5.950508   4.325346   4.662213   0.000000
    21  C    6.425003   7.280077   5.528581   5.411655   1.345576
    22  C    6.368102   7.928838   6.222307   5.084755   2.427283
    23  N    5.369449   7.312119   5.814670   3.863394   2.759008
    24  C    4.299047   6.013153   4.709484   2.753656   2.417532
    25  H    5.900119   5.611532   4.045193   5.284857   1.091149
    26  H    7.384431   8.015060   6.197982   6.485250   2.126451
    27  O    7.432094   9.168637   7.388123   6.138623   3.548902
    28  O    3.572120   5.699113   4.762023   1.625362   3.530974
                   21         22         23         24         25
    21  C    0.000000
    22  C    1.469123   0.000000
    23  N    2.429060   1.369637   0.000000
    24  C    2.775699   2.367702   1.327325   0.000000
    25  H    2.144344   3.446473   3.847585   3.382318   0.000000
    26  H    1.088163   2.217041   3.411180   3.863351   2.506507
    27  O    2.350448   1.240193   2.286328   3.499922   4.482518
    28  O    4.026243   3.527513   2.272962   1.253266   4.374542
                   26         27         28
    26  H    0.000000
    27  O    2.629659   0.000000
    28  O    5.114289   4.558177   0.000000
 Stoichiometry    C9H11N2O6(2)
 Framework group  C1[X(C9H11N2O6)]
 Deg. of freedom    78
 Full point group                 C1      NOp   1
 Largest Abelian subgroup         C1      NOp   1
 Largest concise Abelian subgroup C1      NOp   1
                         Standard orientation:                         
 ---------------------------------------------------------------------
 Center     Atomic      Atomic             Coordinates (Angstroms)
 Number     Number       Type             X           Y           Z
 ---------------------------------------------------------------------
      1          6           0       -2.687063   -0.436280    0.268561
      2          6           0       -1.310317   -0.750731    0.853885
      3          6           0       -0.427299   -0.759780   -0.407163
      4          8           0       -1.258206   -1.957590    1.575883
      5          1           0       -0.989258    0.056949    1.515553
      6          8           0       -1.027637    0.144597   -1.323987
      7          1           0       -0.467869   -1.780509   -0.826566
      8          7           0        0.965066   -0.462744   -0.233249
      9          6           0       -2.362010    0.456541   -0.929273
     10          1           0       -3.343756    0.064975    0.993189
     11          8           0       -3.244495   -1.694604   -0.131953
     12          6           0       -2.495889    1.945633   -0.636036
     13          1           0       -3.031729    0.205888   -1.774489
     14          8           0       -1.945980    2.330589    0.586407
     15          1           0       -3.571367    2.195321   -0.611890
     16          1           0       -2.047362    2.489049   -1.489705
     17          1           0       -4.055485   -1.526261   -0.617088
     18          1           0       -1.818448   -2.584440    1.102073
     19          1           0       -0.984710    2.077705    0.595601
     20          6           0        1.890784   -1.339672   -0.742044
     21          6           0        3.212265   -1.103967   -0.648736
     22          6           0        3.673928    0.126967    0.007001
     23          7           0        2.721501    0.993804    0.473244
     24          6           0        1.419966    0.755332    0.368699
     25          1           0        1.479226   -2.233103   -1.214280
     26          1           0        3.943244   -1.805718   -1.045363
     27          8           0        4.887885    0.355136    0.118024
     28          8           0        0.537852    1.541680    0.786081
 ---------------------------------------------------------------------
 Rotational constants (GHZ):           0.9424933           0.3163498           0.2731992
 Standard basis: Aug-CC-pVDZ (5D, 7F)
 There are   524 symmetry adapted cartesian basis functions of A   symmetry.
 There are   490 symmetry adapted basis functions of A   symmetry.
   490 basis functions,   852 primitive gaussians,   524 cartesian basis functions
    64 alpha electrons       63 beta electrons
       nuclear repulsion energy      1321.0050056922 Hartrees.
 NAtoms=   28 NActive=   28 NUniq=   28 SFac= 1.00D+00 NAtFMM=   60 NAOKFM=F Big=F
 Integral buffers will be    131072 words long.
 Raffenetti 2 integral format.
 Two-electron integral symmetry is turned on.
 Nuclear repulsion after empirical dispersion term =     1320.9851638918 Hartrees.
 One-electron integrals computed using PRISM.
 NBasis=   490 RedAO= T EigKep=  2.92D-06  NBF=   490
 NBsUse=   490 1.00D-06 EigRej= -1.00D+00 NBFU=   490
 ExpMin= 2.97D-02 ExpMax= 1.17D+04 ExpMxC= 4.01D+02 IAcc=3 IRadAn=         5 AccDes= 0.00D+00
 Harris functional with IExCor= 1009 and IRadAn=       5 diagonalized for initial guess.
 HarFok:  IExCor= 1009 AccDes= 0.00D+00 IRadAn=         5 IDoV= 1 UseB2=F ITyADJ=14
 ICtDFT=  3500011 ScaDFX=  1.000000  1.000000  1.000000  1.000000
 FoFCou: FMM=F IPFlag=           0 FMFlag=      100000 FMFlg1=           0
         NFxFlg=           0 DoJE=T BraDBF=F KetDBF=T FulRan=T
         wScrn=  0.000000 ICntrl=       500 IOpCl=  0 I1Cent=   200000004 NGrid=           0
         NMat0=    1 NMatS0=      1 NMatT0=    0 NMatD0=    1 NMtDS0=    0 NMtDT0=    0
 Petite list used in FoFCou.
 Initial guess <Sx>= 0.0000 <Sy>= 0.0000 <Sz>= 0.5000 <S**2>= 0.7500 S= 0.5000
 Requested convergence on RMS density matrix=1.00D-08 within 128 cycles.
 Requested convergence on MAX density matrix=1.00D-06.
 Requested convergence on             energy=1.00D-06.
 No special actions if energy rises.
 Restarting incremental Fock formation.
 Restarting incremental Fock formation.
 Restarting incremental Fock formation.
 SCF Done:  E(UPBE1PBE) =  -909.508082997     A.U. after   72 cycles
            NFock= 72  Conv=0.12D-08     -V/T= 2.0054
 <Sx>= 0.0000 <Sy>= 0.0000 <Sz>= 0.5000 <S**2>= 0.7892 S= 0.5194
 <L.S>= 0.000000000000E+00
 Annihilation of the first spin contaminant:
 S**2 before annihilation     0.7892,   after     0.7510

 **********************************************************************

            Population analysis using the SCF Density.

 **********************************************************************

 Orbital symmetries:
 Alpha Orbitals:
       Occupied  (A) (A) (A) (A) (A) (A) (A) (A) (A) (A) (A) (A)
                 (A) (A) (A) (A) (A) (A) (A) (A) (A) (A) (A) (A)
                 (A) (A) (A) (A) (A) (A) (A) (A) (A) (A) (A) (A)
                 (A) (A) (A) (A) (A) (A) (A) (A) (A) (A) (A) (A)
                 (A) (A) (A) (A) (A) (A) (A) (A) (A) (A) (A) (A)
                 (A) (A) (A) (A)
       Virtual   (A) (A) (A) (A) (A) (A) (A) (A) (A) (A) (A) (A)
                 (A) (A) (A) (A) (A) (A) (A) (A) (A) (A) (A) (A)
                 (A) (A) (A) (A) (A) (A) (A) (A) (A) (A) (A) (A)
                 (A) (A) (A) (A) (A) (A) (A) (A) (A) (A) (A) (A)
                 (A) (A) (A) (A) (A) (A) (A) (A) (A) (A) (A) (A)
                 (A) (A) (A) (A) (A) (A) (A) (A) (A) (A) (A) (A)
                 (A) (A) (A) (A) (A) (A) (A) (A) (A) (A) (A) (A)
                 (A) (A) (A) (A) (A) (A) (A) (A) (A) (A) (A) (A)
                 (A) (A) (A) (A) (A) (A) (A) (A) (A) (A) (A) (A)
                 (A) (A) (A) (A) (A) (A) (A) (A) (A) (A) (A) (A)
                 (A) (A) (A) (A) (A) (A) (A) (A) (A) (A) (A) (A)
                 (A) (A) (A) (A) (A) (A) (A) (A) (A) (A) (A) (A)
                 (A) (A) (A) (A) (A) (A) (A) (A) (A) (A) (A) (A)
                 (A) (A) (A) (A) (A) (A) (A) (A) (A) (A) (A) (A)
                 (A) (A) (A) (A) (A) (A) (A) (A) (A) (A) (A) (A)
                 (A) (A) (A) (A) (A) (A) (A) (A) (A) (A) (A) (A)
                 (A) (A) (A) (A) (A) (A) (A) (A) (A) (A) (A) (A)
                 (A) (A) (A) (A) (A) (A) (A) (A) (A) (A) (A) (A)
                 (A) (A) (A) (A) (A) (A) (A) (A) (A) (A) (A) (A)
                 (A) (A) (A) (A) (A) (A) (A) (A) (A) (A) (A) (A)
                 (A) (A) (A) (A) (A) (A) (A) (A) (A) (A) (A) (A)
                 (A) (A) (A) (A) (A) (A) (A) (A) (A) (A) (A) (A)
                 (A) (A) (A) (A) (A) (A) (A) (A) (A) (A) (A) (A)
                 (A) (A) (A) (A) (A) (A) (A) (A) (A) (A) (A) (A)
                 (A) (A) (A) (A) (A) (A) (A) (A) (A) (A) (A) (A)
                 (A) (A) (A) (A) (A) (A) (A) (A) (A) (A) (A) (A)
                 (A) (A) (A) (A) (A) (A) (A) (A) (A) (A) (A) (A)
                 (A) (A) (A) (A) (A) (A) (A) (A) (A) (A) (A) (A)
                 (A) (A) (A) (A) (A) (A) (A) (A) (A) (A) (A) (A)
                 (A) (A) (A) (A) (A) (A) (A) (A) (A) (A) (A) (A)
                 (A) (A) (A) (A) (A) (A) (A) (A) (A) (A) (A) (A)
                 (A) (A) (A) (A) (A) (A) (A) (A) (A) (A) (A) (A)
                 (A) (A) (A) (A) (A) (A) (A) (A) (A) (A) (A) (A)
                 (A) (A) (A) (A) (A) (A) (A) (A) (A) (A) (A) (A)
                 (A) (A) (A) (A) (A) (A) (A) (A) (A) (A) (A) (A)
                 (A) (A) (A) (A) (A) (A)
 Beta  Orbitals:
       Occupied  (A) (A) (A) (A) (A) (A) (A) (A) (A) (A) (A) (A)
                 (A) (A) (A) (A) (A) (A) (A) (A) (A) (A) (A) (A)
                 (A) (A) (A) (A) (A) (A) (A) (A) (A) (A) (A) (A)
                 (A) (A) (A) (A) (A) (A) (A) (A) (A) (A) (A) (A)
                 (A) (A) (A) (A) (A) (A) (A) (A) (A) (A) (A) (A)
                 (A) (A) (A)
       Virtual   (A) (A) (A) (A) (A) (A) (A) (A) (A) (A) (A) (A)
                 (A) (A) (A) (A) (A) (A) (A) (A) (A) (A) (A) (A)
                 (A) (A) (A) (A) (A) (A) (A) (A) (A) (A) (A) (A)
                 (A) (A) (A) (A) (A) (A) (A) (A) (A) (A) (A) (A)
                 (A) (A) (A) (A) (A) (A) (A) (A) (A) (A) (A) (A)
                 (A) (A) (A) (A) (A) (A) (A) (A) (A) (A) (A) (A)
                 (A) (A) (A) (A) (A) (A) (A) (A) (A) (A) (A) (A)
                 (A) (A) (A) (A) (A) (A) (A) (A) (A) (A) (A) (A)
                 (A) (A) (A) (A) (A) (A) (A) (A) (A) (A) (A) (A)
                 (A) (A) (A) (A) (A) (A) (A) (A) (A) (A) (A) (A)
                 (A) (A) (A) (A) (A) (A) (A) (A) (A) (A) (A) (A)
                 (A) (A) (A) (A) (A) (A) (A) (A) (A) (A) (A) (A)
                 (A) (A) (A) (A) (A) (A) (A) (A) (A) (A) (A) (A)
                 (A) (A) (A) (A) (A) (A) (A) (A) (A) (A) (A) (A)
                 (A) (A) (A) (A) (A) (A) (A) (A) (A) (A) (A) (A)
                 (A) (A) (A) (A) (A) (A) (A) (A) (A) (A) (A) (A)
                 (A) (A) (A) (A) (A) (A) (A) (A) (A) (A) (A) (A)
                 (A) (A) (A) (A) (A) (A) (A) (A) (A) (A) (A) (A)
                 (A) (A) (A) (A) (A) (A) (A) (A) (A) (A) (A) (A)
                 (A) (A) (A) (A) (A) (A) (A) (A) (A) (A) (A) (A)
                 (A) (A) (A) (A) (A) (A) (A) (A) (A) (A) (A) (A)
                 (A) (A) (A) (A) (A) (A) (A) (A) (A) (A) (A) (A)
                 (A) (A) (A) (A) (A) (A) (A) (A) (A) (A) (A) (A)
                 (A) (A) (A) (A) (A) (A) (A) (A) (A) (A) (A) (A)
                 (A) (A) (A) (A) (A) (A) (A) (A) (A) (A) (A) (A)
                 (A) (A) (A) (A) (A) (A) (A) (A) (A) (A) (A) (A)
                 (A) (A) (A) (A) (A) (A) (A) (A) (A) (A) (A) (A)
                 (A) (A) (A) (A) (A) (A) (A) (A) (A) (A) (A) (A)
                 (A) (A) (A) (A) (A) (A) (A) (A) (A) (A) (A) (A)
                 (A) (A) (A) (A) (A) (A) (A) (A) (A) (A) (A) (A)
                 (A) (A) (A) (A) (A) (A) (A) (A) (A) (A) (A) (A)
                 (A) (A) (A) (A) (A) (A) (A) (A) (A) (A) (A) (A)
                 (A) (A) (A) (A) (A) (A) (A) (A) (A) (A) (A) (A)
                 (A) (A) (A) (A) (A) (A) (A) (A) (A) (A) (A) (A)
                 (A) (A) (A) (A) (A) (A) (A) (A) (A) (A) (A) (A)
                 (A) (A) (A) (A) (A) (A) (A)
 The electronic state is 2-A.
 Alpha  occ. eigenvalues --  -19.28075 -19.27280 -19.26623 -19.25236 -19.21227
 Alpha  occ. eigenvalues --  -19.20389 -14.52782 -14.43116 -10.39246 -10.37354
 Alpha  occ. eigenvalues --  -10.36387 -10.34655 -10.31493 -10.31388 -10.30812
 Alpha  occ. eigenvalues --  -10.30102 -10.28110  -1.14332  -1.13398  -1.10811
 Alpha  occ. eigenvalues --   -1.09572  -1.07661  -1.04707  -1.03213  -0.96988
 Alpha  occ. eigenvalues --   -0.86643  -0.82606  -0.80876  -0.73156  -0.72426
 Alpha  occ. eigenvalues --   -0.68681  -0.66414  -0.63899  -0.61045  -0.60237
 Alpha  occ. eigenvalues --   -0.58629  -0.56062  -0.55145  -0.53338  -0.52148
 Alpha  occ. eigenvalues --   -0.50875  -0.50259  -0.49384  -0.49181  -0.48512
 Alpha  occ. eigenvalues --   -0.47001  -0.45910  -0.45168  -0.44755  -0.42726
 Alpha  occ. eigenvalues --   -0.41468  -0.40947  -0.39533  -0.37100  -0.35681
 Alpha  occ. eigenvalues --   -0.34819  -0.33948  -0.33119  -0.32963  -0.31698
 Alpha  occ. eigenvalues --   -0.31037  -0.29860  -0.29559  -0.27247
 Alpha virt. eigenvalues --   -0.07511  -0.02653  -0.02407  -0.01501   0.00104
 Alpha virt. eigenvalues --    0.00682   0.01822   0.02164   0.02777   0.03754
 Alpha virt. eigenvalues --    0.04199   0.04367   0.04885   0.05820   0.05911
 Alpha virt. eigenvalues --    0.06249   0.06780   0.06847   0.07281   0.07888
 Alpha virt. eigenvalues --    0.08311   0.08409   0.08797   0.09256   0.09487
 Alpha virt. eigenvalues --    0.09724   0.10085   0.10519   0.10782   0.11208
 Alpha virt. eigenvalues --    0.11460   0.11701   0.12126   0.12390   0.12993
 Alpha virt. eigenvalues --    0.13170   0.13431   0.13873   0.14072   0.14332
 Alpha virt. eigenvalues --    0.14564   0.15276   0.15732   0.15831   0.16319
 Alpha virt. eigenvalues --    0.17096   0.17389   0.17573   0.18010   0.18517
 Alpha virt. eigenvalues --    0.18945   0.20038   0.20168   0.20462   0.21177
 Alpha virt. eigenvalues --    0.21451   0.21686   0.22161   0.22677   0.22790
 Alpha virt. eigenvalues --    0.23046   0.23322   0.23882   0.24051   0.24268
 Alpha virt. eigenvalues --    0.24851   0.24913   0.25321   0.25602   0.25939
 Alpha virt. eigenvalues --    0.26431   0.26451   0.26881   0.27320   0.27548
 Alpha virt. eigenvalues --    0.27639   0.28465   0.28559   0.29155   0.29317
 Alpha virt. eigenvalues --    0.29412   0.29884   0.30409   0.30931   0.31225
 Alpha virt. eigenvalues --    0.31410   0.31747   0.32107   0.32245   0.33261
 Alpha virt. eigenvalues --    0.33541   0.33576   0.33844   0.34349   0.34727
 Alpha virt. eigenvalues --    0.35013   0.36096   0.36452   0.36528   0.36996
 Alpha virt. eigenvalues --    0.37764   0.38486   0.39044   0.39236   0.39409
 Alpha virt. eigenvalues --    0.39886   0.40727   0.41167   0.41306   0.41886
 Alpha virt. eigenvalues --    0.42248   0.42981   0.43667   0.43917   0.44128
 Alpha virt. eigenvalues --    0.44677   0.45289   0.45506   0.46748   0.46897
 Alpha virt. eigenvalues --    0.47958   0.48335   0.49343   0.49575   0.50293
 Alpha virt. eigenvalues --    0.51035   0.51415   0.52061   0.52262   0.52889
 Alpha virt. eigenvalues --    0.54053   0.54400   0.54503   0.55107   0.55203
 Alpha virt. eigenvalues --    0.55657   0.56038   0.56400   0.57473   0.58677
 Alpha virt. eigenvalues --    0.59332   0.59390   0.60523   0.60600   0.61454
 Alpha virt. eigenvalues --    0.61964   0.62494   0.62591   0.63312   0.63435
 Alpha virt. eigenvalues --    0.63767   0.64564   0.64781   0.64861   0.65645
 Alpha virt. eigenvalues --    0.66782   0.67048   0.67221   0.67742   0.68126
 Alpha virt. eigenvalues --    0.68521   0.68910   0.69433   0.70505   0.71120
 Alpha virt. eigenvalues --    0.71775   0.71844   0.72554   0.72721   0.73340
 Alpha virt. eigenvalues --    0.73842   0.74570   0.74761   0.75436   0.76080
 Alpha virt. eigenvalues --    0.77006   0.77553   0.78287   0.78961   0.79651
 Alpha virt. eigenvalues --    0.80515   0.80837   0.81502   0.82532   0.83683
 Alpha virt. eigenvalues --    0.84033   0.85143   0.85474   0.86496   0.87286
 Alpha virt. eigenvalues --    0.87948   0.88536   0.89376   0.90243   0.90908
 Alpha virt. eigenvalues --    0.91668   0.92098   0.93479   0.94297   0.94978
 Alpha virt. eigenvalues --    0.95644   0.96099   0.96872   0.97328   0.99241
 Alpha virt. eigenvalues --    0.99877   1.00266   1.01110   1.01464   1.03131
 Alpha virt. eigenvalues --    1.03597   1.03788   1.04936   1.06142   1.06832
 Alpha virt. eigenvalues --    1.07621   1.08177   1.09333   1.10463   1.12108
 Alpha virt. eigenvalues --    1.12725   1.13272   1.14014   1.15101   1.15823
 Alpha virt. eigenvalues --    1.16324   1.16665   1.17233   1.18773   1.19920
 Alpha virt. eigenvalues --    1.21153   1.22383   1.23360   1.23910   1.25011
 Alpha virt. eigenvalues --    1.26537   1.26764   1.28105   1.28230   1.29599
 Alpha virt. eigenvalues --    1.30413   1.31834   1.32391   1.33508   1.35305
 Alpha virt. eigenvalues --    1.36502   1.37109   1.37414   1.38305   1.39230
 Alpha virt. eigenvalues --    1.40923   1.41157   1.41927   1.42555   1.43258
 Alpha virt. eigenvalues --    1.44889   1.45932   1.47077   1.47504   1.48208
 Alpha virt. eigenvalues --    1.49204   1.50676   1.51026   1.52418   1.52679
 Alpha virt. eigenvalues --    1.54015   1.54954   1.55817   1.56184   1.57683
 Alpha virt. eigenvalues --    1.60224   1.61274   1.62543   1.62878   1.63411
 Alpha virt. eigenvalues --    1.64546   1.65430   1.65963   1.67447   1.67744
 Alpha virt. eigenvalues --    1.68444   1.69684   1.70394   1.71145   1.71931
 Alpha virt. eigenvalues --    1.72961   1.74595   1.75532   1.75920   1.76547
 Alpha virt. eigenvalues --    1.77016   1.78321   1.79252   1.79465   1.81347
 Alpha virt. eigenvalues --    1.81803   1.83153   1.83798   1.85036   1.85993
 Alpha virt. eigenvalues --    1.87484   1.87785   1.88387   1.91052   1.91683
 Alpha virt. eigenvalues --    1.92428   1.93408   1.93815   1.95619   1.95977
 Alpha virt. eigenvalues --    1.96466   1.98479   1.98848   2.01204   2.01503
 Alpha virt. eigenvalues --    2.02740   2.03858   2.05209   2.05888   2.06230
 Alpha virt. eigenvalues --    2.08177   2.09107   2.11560   2.11606   2.12338
 Alpha virt. eigenvalues --    2.13990   2.15135   2.16040   2.17226   2.18764
 Alpha virt. eigenvalues --    2.20906   2.21664   2.22476   2.24064   2.25141
 Alpha virt. eigenvalues --    2.26309   2.26937   2.28234   2.29804   2.31619
 Alpha virt. eigenvalues --    2.32237   2.33647   2.35211   2.35912   2.38160
 Alpha virt. eigenvalues --    2.38913   2.41600   2.41895   2.42370   2.43774
 Alpha virt. eigenvalues --    2.45839   2.47135   2.49896   2.50780   2.51532
 Alpha virt. eigenvalues --    2.52748   2.54439   2.55985   2.56289   2.60119
 Alpha virt. eigenvalues --    2.61876   2.62740   2.65035   2.65920   2.66268
 Alpha virt. eigenvalues --    2.67022   2.68476   2.71045   2.74059   2.76395
 Alpha virt. eigenvalues --    2.78277   2.80425   2.82183   2.84407   2.85040
 Alpha virt. eigenvalues --    2.86097   2.87265   2.88370   2.93363   2.94534
 Alpha virt. eigenvalues --    2.96228   3.00974   3.05414   3.12089   3.13470
 Alpha virt. eigenvalues --    3.20037   3.22658   3.24677   3.26120   3.31960
 Alpha virt. eigenvalues --    3.33739   3.36098   3.36579   3.38248   3.43034
 Alpha virt. eigenvalues --    3.44678   3.46353   3.48175   3.49033   3.50247
 Alpha virt. eigenvalues --    3.50754   3.52621   3.53288   3.55798   3.56804
 Alpha virt. eigenvalues --    3.57333   3.59806   3.61561   3.61686   3.62681
 Alpha virt. eigenvalues --    3.65038   3.66310   3.71114   3.72277   3.76089
 Alpha virt. eigenvalues --    3.79424   3.81598   3.84695   3.86434   3.94392
 Alpha virt. eigenvalues --    4.03814   4.07862   4.10138   4.19721   4.37826
 Alpha virt. eigenvalues --    4.56846
  Beta  occ. eigenvalues --  -19.27172 -19.26681 -19.26622 -19.25212 -19.21302
  Beta  occ. eigenvalues --  -19.20385 -14.52250 -14.42574 -10.39357 -10.37662
  Beta  occ. eigenvalues --  -10.36410 -10.34829 -10.31483 -10.31344 -10.30814
  Beta  occ. eigenvalues --  -10.29693 -10.28109  -1.13901  -1.11483  -1.10177
  Beta  occ. eigenvalues --   -1.09306  -1.07623  -1.04539  -1.02929  -0.95599
  Beta  occ. eigenvalues --   -0.86010  -0.82515  -0.80557  -0.72985  -0.72152
  Beta  occ. eigenvalues --   -0.68393  -0.66283  -0.63758  -0.60828  -0.60035
  Beta  occ. eigenvalues --   -0.58493  -0.55975  -0.54843  -0.52527  -0.51494
  Beta  occ. eigenvalues --   -0.50182  -0.49983  -0.49035  -0.48614  -0.47644
  Beta  occ. eigenvalues --   -0.46341  -0.45151  -0.44991  -0.42706  -0.42241
  Beta  occ. eigenvalues --   -0.41347  -0.40225  -0.39312  -0.36990  -0.35270
  Beta  occ. eigenvalues --   -0.33642  -0.32998  -0.32755  -0.31554  -0.30536
  Beta  occ. eigenvalues --   -0.29768  -0.27607  -0.27090
  Beta virt. eigenvalues --   -0.21882  -0.05682  -0.02406  -0.01986  -0.01493
  Beta virt. eigenvalues --    0.00115   0.00720   0.01843   0.02185   0.02788
  Beta virt. eigenvalues --    0.03766   0.04236   0.04389   0.04915   0.05842
  Beta virt. eigenvalues --    0.06005   0.06283   0.06796   0.06908   0.07435
  Beta virt. eigenvalues --    0.08177   0.08400   0.08821   0.08846   0.09325
  Beta virt. eigenvalues --    0.09589   0.09773   0.10130   0.10574   0.10825
  Beta virt. eigenvalues --    0.11306   0.11496   0.11846   0.12253   0.12469
  Beta virt. eigenvalues --    0.13021   0.13175   0.13456   0.13961   0.14287
  Beta virt. eigenvalues --    0.14381   0.14620   0.15374   0.15780   0.15885
  Beta virt. eigenvalues --    0.16388   0.17193   0.17437   0.17664   0.18036
  Beta virt. eigenvalues --    0.18554   0.19006   0.20126   0.20195   0.20542
  Beta virt. eigenvalues --    0.21245   0.21515   0.21751   0.22220   0.22712
  Beta virt. eigenvalues --    0.22869   0.23103   0.23815   0.23999   0.24103
  Beta virt. eigenvalues --    0.24322   0.24923   0.25013   0.25389   0.25707
  Beta virt. eigenvalues --    0.25966   0.26486   0.26604   0.27046   0.27346
  Beta virt. eigenvalues --    0.27638   0.27735   0.28556   0.28642   0.29263
  Beta virt. eigenvalues --    0.29335   0.29463   0.29961   0.30481   0.30974
  Beta virt. eigenvalues --    0.31267   0.31497   0.31835   0.32152   0.32300
  Beta virt. eigenvalues --    0.33318   0.33619   0.33648   0.33956   0.34413
  Beta virt. eigenvalues --    0.34817   0.35103   0.36157   0.36546   0.36620
  Beta virt. eigenvalues --    0.37080   0.37864   0.38584   0.39097   0.39302
  Beta virt. eigenvalues --    0.39482   0.39935   0.40791   0.41212   0.41417
  Beta virt. eigenvalues --    0.41972   0.42316   0.43079   0.43756   0.43977
  Beta virt. eigenvalues --    0.44284   0.44856   0.45449   0.45574   0.46847
  Beta virt. eigenvalues --    0.46978   0.47997   0.48411   0.49392   0.49753
  Beta virt. eigenvalues --    0.50377   0.51173   0.51488   0.52139   0.52287
  Beta virt. eigenvalues --    0.52998   0.54104   0.54473   0.54565   0.55164
  Beta virt. eigenvalues --    0.55297   0.55695   0.56090   0.56499   0.57582
  Beta virt. eigenvalues --    0.58786   0.59420   0.59476   0.60609   0.60639
  Beta virt. eigenvalues --    0.61641   0.62089   0.62616   0.62678   0.63478
  Beta virt. eigenvalues --    0.63516   0.63885   0.64643   0.64861   0.64965
  Beta virt. eigenvalues --    0.65752   0.66857   0.67160   0.67322   0.67818
  Beta virt. eigenvalues --    0.68259   0.68623   0.69045   0.69476   0.70600
  Beta virt. eigenvalues --    0.71381   0.71840   0.71964   0.72618   0.72867
  Beta virt. eigenvalues --    0.73661   0.74092   0.74687   0.74811   0.75515
  Beta virt. eigenvalues --    0.76275   0.77127   0.77790   0.78379   0.79230
  Beta virt. eigenvalues --    0.79721   0.80654   0.80935   0.81770   0.82642
  Beta virt. eigenvalues --    0.83753   0.84199   0.85276   0.85555   0.86682
  Beta virt. eigenvalues --    0.87517   0.88045   0.88620   0.89629   0.90298
  Beta virt. eigenvalues --    0.91194   0.91768   0.92213   0.93912   0.94389
  Beta virt. eigenvalues --    0.95076   0.95733   0.96161   0.96990   0.97481
  Beta virt. eigenvalues --    0.99450   1.00022   1.00482   1.01592   1.01771
  Beta virt. eigenvalues --    1.03242   1.03994   1.04338   1.05004   1.06310
  Beta virt. eigenvalues --    1.06971   1.07711   1.08399   1.09395   1.10691
  Beta virt. eigenvalues --    1.12204   1.12940   1.13419   1.14077   1.15170
  Beta virt. eigenvalues --    1.16186   1.16394   1.16908   1.17380   1.18857
  Beta virt. eigenvalues --    1.20121   1.21404   1.22664   1.23455   1.24023
  Beta virt. eigenvalues --    1.25098   1.26583   1.26821   1.28195   1.28362
  Beta virt. eigenvalues --    1.29752   1.30470   1.31998   1.32459   1.33541
  Beta virt. eigenvalues --    1.35436   1.36873   1.37305   1.37610   1.38656
  Beta virt. eigenvalues --    1.39540   1.41009   1.41339   1.42095   1.42772
  Beta virt. eigenvalues --    1.43446   1.44980   1.46285   1.47294   1.48113
  Beta virt. eigenvalues --    1.48361   1.49390   1.50997   1.51095   1.52883
  Beta virt. eigenvalues --    1.53706   1.54135   1.55281   1.55947   1.56464
  Beta virt. eigenvalues --    1.57811   1.60367   1.61381   1.62732   1.62975
  Beta virt. eigenvalues --    1.63553   1.64721   1.65488   1.66022   1.67581
  Beta virt. eigenvalues --    1.67841   1.68520   1.69862   1.70507   1.71232
  Beta virt. eigenvalues --    1.72317   1.73220   1.74715   1.75821   1.76047
  Beta virt. eigenvalues --    1.76724   1.77085   1.78411   1.79375   1.79612
  Beta virt. eigenvalues --    1.81454   1.81971   1.83219   1.84021   1.85131
  Beta virt. eigenvalues --    1.86073   1.87597   1.87861   1.88574   1.91204
  Beta virt. eigenvalues --    1.91744   1.92480   1.93504   1.93888   1.95690
  Beta virt. eigenvalues --    1.96036   1.96577   1.98608   1.98966   2.01269
  Beta virt. eigenvalues --    2.01550   2.02817   2.03968   2.05377   2.05986
  Beta virt. eigenvalues --    2.06486   2.08301   2.09277   2.11716   2.11817
  Beta virt. eigenvalues --    2.12454   2.14104   2.15331   2.16097   2.17310
  Beta virt. eigenvalues --    2.18873   2.21151   2.21920   2.22627   2.24250
  Beta virt. eigenvalues --    2.25457   2.26463   2.27210   2.28297   2.29959
  Beta virt. eigenvalues --    2.31737   2.32291   2.33771   2.35288   2.36001
  Beta virt. eigenvalues --    2.38356   2.39121   2.41798   2.42408   2.42728
  Beta virt. eigenvalues --    2.44050   2.45996   2.47459   2.50173   2.50977
  Beta virt. eigenvalues --    2.52434   2.53140   2.54627   2.56158   2.56477
  Beta virt. eigenvalues --    2.60356   2.61976   2.62964   2.65382   2.66036
  Beta virt. eigenvalues --    2.66841   2.67596   2.68666   2.71401   2.74136
  Beta virt. eigenvalues --    2.76722   2.78701   2.80594   2.82334   2.84444
  Beta virt. eigenvalues --    2.85122   2.86221   2.87601   2.88489   2.93765
  Beta virt. eigenvalues --    2.94969   2.96446   3.01061   3.05464   3.12286
  Beta virt. eigenvalues --    3.13584   3.20101   3.22889   3.25028   3.26286
  Beta virt. eigenvalues --    3.34220   3.35939   3.37668   3.39448   3.39974
  Beta virt. eigenvalues --    3.43358   3.44749   3.46702   3.48276   3.49058
  Beta virt. eigenvalues --    3.50313   3.50822   3.52649   3.53437   3.55895
  Beta virt. eigenvalues --    3.56923   3.57633   3.59887   3.61850   3.62082
  Beta virt. eigenvalues --    3.62770   3.65116   3.66464   3.71416   3.72527
  Beta virt. eigenvalues --    3.76304   3.79868   3.81669   3.84919   3.86909
  Beta virt. eigenvalues --    3.94578   4.03831   4.07903   4.10173   4.19725
  Beta virt. eigenvalues --    4.37865   4.56888
          Condensed to atoms (all electrons):
               1          2          3          4          5          6
     1  C    9.037690  -1.711383  -0.347996   0.037215   0.113407   0.113022
     2  C   -1.711383   8.135510  -2.007845  -0.241957  -0.516851   0.017494
     3  C   -0.347996  -2.007845  13.998946   0.194412  -0.296079  -0.690722
     4  O    0.037215  -0.241957   0.194412   8.542470  -0.164292  -0.022141
     5  H    0.113407  -0.516851  -0.296079  -0.164292   2.306901   0.069324
     6  O    0.113022   0.017494  -0.690722  -0.022141   0.069324   9.502131
     7  H   -0.106444   0.180047  -1.405314  -0.020115   0.118481  -0.026153
     8  N    0.292678  -0.031452  -0.586608   0.020134  -0.107799   0.024856
     9  C   -1.415611   0.953002  -1.725904  -0.066678  -0.053270  -0.086978
    10  H   -0.999675   0.379170   0.178147   0.021513  -0.144746   0.011540
    11  O   -0.405287   0.038093   0.026341  -0.027394   0.033877   0.024770
    12  C   -0.023028   0.013605  -0.036579  -0.009074   0.034931   0.075076
    13  H   -0.034514   0.035501   0.343764   0.007006  -0.017265  -0.285664
    14  O   -0.030695  -0.034804  -0.044228   0.004095   0.000704  -0.017918
    15  H    0.041109   0.015785  -0.014410  -0.000812   0.013859   0.108414
    16  H    0.037620  -0.031819  -0.001633  -0.000827  -0.002202  -0.036330
    17  H    0.042005  -0.026030  -0.019181   0.003748   0.004692   0.002960
    18  H    0.034700  -0.163480   0.000619   0.326312   0.052838   0.010203
    19  H    0.004715   0.002361  -0.009633  -0.000486   0.023405   0.033043
    20  C   -0.039675   0.098662  -1.926753   0.038331  -0.092718  -0.134551
    21  C   -0.068272   0.025004  -0.275394   0.005492   0.012078   0.010145
    22  C    0.039990  -0.013572  -0.099925  -0.001749  -0.020113  -0.016281
    23  N    0.012611  -0.005147   0.185414  -0.002086   0.000495  -0.025223
    24  C    0.098737  -0.070314  -1.064491   0.008569   0.107562   0.183985
    25  H   -0.010679   0.082211   0.151648  -0.000783   0.003049   0.069467
    26  H    0.002228  -0.005202   0.152195   0.000391  -0.003254  -0.003849
    27  O   -0.001231   0.002259  -0.014432  -0.000107   0.001341   0.000713
    28  O    0.029814  -0.026894   0.170933  -0.005471   0.092987  -0.009584
               7          8          9         10         11         12
     1  C   -0.106444   0.292678  -1.415611  -0.999675  -0.405287  -0.023028
     2  C    0.180047  -0.031452   0.953002   0.379170   0.038093   0.013605
     3  C   -1.405314  -0.586608  -1.725904   0.178147   0.026341  -0.036579
     4  O   -0.020115   0.020134  -0.066678   0.021513  -0.027394  -0.009074
     5  H    0.118481  -0.107799  -0.053270  -0.144746   0.033877   0.034931
     6  O   -0.026153   0.024856  -0.086978   0.011540   0.024770   0.075076
     7  H    2.692293  -0.187581   0.115148   0.003215   0.014345  -0.022516
     8  N   -0.187581   8.099066  -0.103338  -0.034560  -0.013772   0.022468
     9  C    0.115148  -0.103338   8.760149   0.107060   0.120492  -0.242966
    10  H    0.003215  -0.034560   0.107060   2.001072  -0.077131  -0.096877
    11  O    0.014345  -0.013772   0.120492  -0.077131   8.651781  -0.005750
    12  C   -0.022516   0.022468  -0.242966  -0.096877  -0.005750   4.969793
    13  H   -0.012578   0.007244  -0.682846   0.080171   0.003812   0.000103
    14  O    0.004767   0.002203   0.106645   0.045500   0.003275   0.025071
    15  H   -0.006514   0.002859  -0.178535  -0.048132  -0.000586   0.256709
    16  H    0.008117   0.009130   0.121662   0.022448   0.000691   0.063070
    17  H    0.002230   0.004574  -0.042310  -0.069654   0.370988   0.000474
    18  H   -0.001179  -0.010364  -0.010012  -0.003636   0.017905   0.003669
    19  H   -0.003912  -0.015091  -0.040895  -0.016355   0.000154  -0.015864
    20  C    0.315137   0.211277  -0.330404   0.002801  -0.017858   0.006497
    21  C    0.018366  -0.497048   0.011044  -0.003346   0.002001  -0.000510
    22  C    0.021700   0.003306  -0.009784   0.002221  -0.000727  -0.008617
    23  N   -0.001616  -0.030279  -0.012841   0.000068  -0.000402  -0.003438
    24  C    0.042745  -0.010083   0.151276  -0.013926   0.004721  -0.063985
    25  H   -0.252133  -0.013181   0.005163   0.000019   0.000149   0.015441
    26  H    0.002263   0.118375   0.001998   0.000136  -0.000081  -0.000797
    27  O   -0.000684  -0.022956   0.000546  -0.000093   0.000006   0.000119
    28  O    0.021682  -0.177531  -0.080964  -0.014269  -0.001550   0.029033
              13         14         15         16         17         18
     1  C   -0.034514  -0.030695   0.041109   0.037620   0.042005   0.034700
     2  C    0.035501  -0.034804   0.015785  -0.031819  -0.026030  -0.163480
     3  C    0.343764  -0.044228  -0.014410  -0.001633  -0.019181   0.000619
     4  O    0.007006   0.004095  -0.000812  -0.000827   0.003748   0.326312
     5  H   -0.017265   0.000704   0.013859  -0.002202   0.004692   0.052838
     6  O   -0.285664  -0.017918   0.108414  -0.036330   0.002960   0.010203
     7  H   -0.012578   0.004767  -0.006514   0.008117   0.002230  -0.001179
     8  N    0.007244   0.002203   0.002859   0.009130   0.004574  -0.010364
     9  C   -0.682846   0.106645  -0.178535   0.121662  -0.042310  -0.010012
    10  H    0.080171   0.045500  -0.048132   0.022448  -0.069654  -0.003636
    11  O    0.003812   0.003275  -0.000586   0.000691   0.370988   0.017905
    12  C    0.000103   0.025071   0.256709   0.063070   0.000474   0.003669
    13  H    2.150934   0.025151  -0.159526   0.004037  -0.020033  -0.002698
    14  O    0.025151   8.535649  -0.180748  -0.056736  -0.000274  -0.001874
    15  H   -0.159526  -0.180748   1.776972  -0.360356   0.007007   0.000787
    16  H    0.004037  -0.056736  -0.360356   1.482746  -0.001589  -0.000579
    17  H   -0.020033  -0.000274   0.007007  -0.001589   0.615215  -0.002168
    18  H   -0.002698  -0.001874   0.000787  -0.000579  -0.002168   0.653384
    19  H    0.009614   0.176370   0.021765  -0.049028   0.000168   0.000857
    20  C    0.010781   0.000984   0.002179   0.005249   0.004398  -0.019618
    21  C    0.002365   0.000596   0.000185  -0.001337  -0.000686  -0.004356
    22  C   -0.001240   0.000086  -0.001343   0.001616   0.000243  -0.000340
    23  N   -0.001071  -0.002157  -0.000308   0.000685   0.000178  -0.000501
    24  C   -0.008963   0.028447  -0.017700   0.029675   0.000568   0.008813
    25  H    0.003850  -0.000148   0.001441  -0.000289  -0.000019   0.003594
    26  H    0.000186   0.000058  -0.000099   0.000035  -0.000020  -0.000111
    27  O    0.000017   0.000031   0.000017   0.000014  -0.000000   0.000006
    28  O   -0.002328  -0.054710   0.003937   0.006776   0.001059  -0.001127
              19         20         21         22         23         24
     1  C    0.004715  -0.039675  -0.068272   0.039990   0.012611   0.098737
     2  C    0.002361   0.098662   0.025004  -0.013572  -0.005147  -0.070314
     3  C   -0.009633  -1.926753  -0.275394  -0.099925   0.185414  -1.064491
     4  O   -0.000486   0.038331   0.005492  -0.001749  -0.002086   0.008569
     5  H    0.023405  -0.092718   0.012078  -0.020113   0.000495   0.107562
     6  O    0.033043  -0.134551   0.010145  -0.016281  -0.025223   0.183985
     7  H   -0.003912   0.315137   0.018366   0.021700  -0.001616   0.042745
     8  N   -0.015091   0.211277  -0.497048   0.003306  -0.030279  -0.010083
     9  C   -0.040895  -0.330404   0.011044  -0.009784  -0.012841   0.151276
    10  H   -0.016355   0.002801  -0.003346   0.002221   0.000068  -0.013926
    11  O    0.000154  -0.017858   0.002001  -0.000727  -0.000402   0.004721
    12  C   -0.015864   0.006497  -0.000510  -0.008617  -0.003438  -0.063985
    13  H    0.009614   0.010781   0.002365  -0.001240  -0.001071  -0.008963
    14  O    0.176370   0.000984   0.000596   0.000086  -0.002157   0.028447
    15  H    0.021765   0.002179   0.000185  -0.001343  -0.000308  -0.017700
    16  H   -0.049028   0.005249  -0.001337   0.001616   0.000685   0.029675
    17  H    0.000168   0.004398  -0.000686   0.000243   0.000178   0.000568
    18  H    0.000857  -0.019618  -0.004356  -0.000340  -0.000501   0.008813
    19  H    0.552182  -0.018136   0.009370  -0.004025   0.004130   0.002140
    20  C   -0.018136   9.974314  -1.686455   0.350689  -0.094880  -1.083887
    21  C    0.009370  -1.686455   8.886095  -1.648204   0.262862   0.898624
    22  C   -0.004025   0.350689  -1.648204   7.976450  -0.095022  -1.015245
    23  N    0.004130  -0.094880   0.262862  -0.095022   7.978807  -0.332696
    24  C    0.002140  -1.083887   0.898624  -1.015245  -0.332696   7.416208
    25  H    0.000064  -0.633668  -0.185259  -0.125137   0.010829   0.106423
    26  H    0.000113   0.447552  -0.738645   0.006752  -0.054167  -0.171485
    27  O    0.000010  -0.003090  -0.095254   0.077576  -0.096725   0.113648
    28  O   -0.001795  -0.039472  -0.011208   0.032889  -0.231044   0.132713
              25         26         27         28
     1  C   -0.010679   0.002228  -0.001231   0.029814
     2  C    0.082211  -0.005202   0.002259  -0.026894
     3  C    0.151648   0.152195  -0.014432   0.170933
     4  O   -0.000783   0.000391  -0.000107  -0.005471
     5  H    0.003049  -0.003254   0.001341   0.092987
     6  O    0.069467  -0.003849   0.000713  -0.009584
     7  H   -0.252133   0.002263  -0.000684   0.021682
     8  N   -0.013181   0.118375  -0.022956  -0.177531
     9  C    0.005163   0.001998   0.000546  -0.080964
    10  H    0.000019   0.000136  -0.000093  -0.014269
    11  O    0.000149  -0.000081   0.000006  -0.001550
    12  C    0.015441  -0.000797   0.000119   0.029033
    13  H    0.003850   0.000186   0.000017  -0.002328
    14  O   -0.000148   0.000058   0.000031  -0.054710
    15  H    0.001441  -0.000099   0.000017   0.003937
    16  H   -0.000289   0.000035   0.000014   0.006776
    17  H   -0.000019  -0.000020  -0.000000   0.001059
    18  H    0.003594  -0.000111   0.000006  -0.001127
    19  H    0.000064   0.000113   0.000010  -0.001795
    20  C   -0.633668   0.447552  -0.003090  -0.039472
    21  C   -0.185259  -0.738645  -0.095254  -0.011208
    22  C   -0.125137   0.006752   0.077576   0.032889
    23  N    0.010829  -0.054167  -0.096725  -0.231044
    24  C    0.106423  -0.171485   0.113648   0.132713
    25  H    2.670520  -0.156615   0.001498   0.000779
    26  H   -0.156615   1.935067  -0.020911   0.003509
    27  O    0.001498  -0.020911   8.632464  -0.008732
    28  O    0.000779   0.003509  -0.008732   8.940704
          Atomic-Atomic Spin Densities.
               1          2          3          4          5          6
     1  C    0.022353   0.001666   0.018592  -0.003584   0.008052   0.002996
     2  C    0.001666   0.009499  -0.002661  -0.001607  -0.001224   0.001990
     3  C    0.018592  -0.002661   0.008365  -0.000256  -0.002535  -0.004859
     4  O   -0.003584  -0.001607  -0.000256   0.011287  -0.001982  -0.000499
     5  H    0.008052  -0.001224  -0.002535  -0.001982   0.007352   0.002860
     6  O    0.002996   0.001990  -0.004859  -0.000499   0.002860   0.044085
     7  H    0.003253  -0.004452   0.005222   0.000058   0.002466  -0.000178
     8  N   -0.002487  -0.003172  -0.066716   0.001487   0.003630  -0.006666
     9  C   -0.046331  -0.002426  -0.032795   0.005556  -0.020867  -0.021264
    10  H   -0.003514  -0.003177  -0.000431   0.001347  -0.001720  -0.000450
    11  O   -0.001058  -0.001016  -0.000840   0.000350  -0.000458   0.000042
    12  C    0.004007  -0.001825   0.003054  -0.000335   0.002133   0.000914
    13  H    0.003450   0.002214   0.001394  -0.000003   0.000036   0.002740
    14  O    0.001057   0.000020   0.000090  -0.000146   0.000810   0.000734
    15  H    0.000837   0.000448  -0.000054  -0.000032   0.000192   0.000508
    16  H    0.000872   0.000279   0.001394  -0.000027   0.000328   0.000864
    17  H    0.000481   0.000782   0.000208  -0.000164   0.000108   0.000086
    18  H   -0.000451   0.000192  -0.000937   0.000113   0.000044  -0.000029
    19  H   -0.001243   0.000546  -0.000237   0.000012  -0.000688  -0.000735
    20  C   -0.001568   0.015917  -0.005366  -0.001961  -0.001550   0.004775
    21  C    0.000536   0.002459   0.024632   0.000080  -0.000071   0.001202
    22  C    0.000361   0.000395   0.016194  -0.000178   0.000505  -0.000715
    23  N    0.000367   0.000918   0.007751  -0.000099  -0.000563  -0.000033
    24  C    0.002715  -0.000609   0.006194  -0.000608   0.006109   0.005028
    25  H   -0.001825   0.006307  -0.010674  -0.000285  -0.000206   0.002759
    26  H    0.000108  -0.000978  -0.005279   0.000029   0.000018  -0.000246
    27  O   -0.000025  -0.000134  -0.001280   0.000021   0.000062   0.000021
    28  O   -0.001563   0.001312  -0.002674  -0.000013  -0.001429  -0.002086
               7          8          9         10         11         12
     1  C    0.003253  -0.002487  -0.046331  -0.003514  -0.001058   0.004007
     2  C   -0.004452  -0.003172  -0.002426  -0.003177  -0.001016  -0.001825
     3  C    0.005222  -0.066716  -0.032795  -0.000431  -0.000840   0.003054
     4  O    0.000058   0.001487   0.005556   0.001347   0.000350  -0.000335
     5  H    0.002466   0.003630  -0.020867  -0.001720  -0.000458   0.002133
     6  O   -0.000178  -0.006666  -0.021264  -0.000450   0.000042   0.000914
     7  H    0.007053  -0.001321  -0.011258  -0.000356  -0.000798   0.000824
     8  N   -0.001321   0.334129   0.011629  -0.000210  -0.000092  -0.000393
     9  C   -0.011258   0.011629   0.147247   0.007067   0.003714  -0.015776
    10  H   -0.000356  -0.000210   0.007067   0.003654   0.000357  -0.000230
    11  O   -0.000798  -0.000092   0.003714   0.000357   0.000722  -0.000162
    12  C    0.000824  -0.000393  -0.015776  -0.000230  -0.000162   0.004093
    13  H    0.000120  -0.000142  -0.017055  -0.000325  -0.000303   0.000890
    14  O    0.000016  -0.000009  -0.002481  -0.000288  -0.000028  -0.000057
    15  H    0.000040  -0.000037  -0.003000  -0.000211  -0.000024   0.000386
    16  H    0.000082  -0.000409  -0.005406  -0.000061  -0.000010   0.000715
    17  H    0.000087  -0.000007  -0.001547  -0.000189  -0.000304   0.000142
    18  H    0.000280   0.000123   0.000392   0.000022   0.000023  -0.000070
    19  H   -0.000319   0.000441   0.003047   0.000188   0.000028  -0.000109
    20  C    0.001474  -0.004515   0.009370   0.000015  -0.000003   0.000753
    21  C    0.001287   0.007698   0.000352  -0.000018  -0.000012   0.000242
    22  C    0.000090   0.011000  -0.000921  -0.000007   0.000009   0.000320
    23  N    0.000693  -0.011014  -0.001792  -0.000023  -0.000002   0.000360
    24  C   -0.000616  -0.011645  -0.015966  -0.000559  -0.000243   0.002324
    25  H    0.000145   0.007457   0.003238  -0.000008   0.000071  -0.000045
    26  H    0.000345  -0.011500  -0.000405  -0.000004  -0.000003   0.000023
    27  O    0.000000   0.000516   0.000110  -0.000002  -0.000000  -0.000024
    28  O   -0.000167   0.003418   0.005662   0.000056   0.000017  -0.001599
              13         14         15         16         17         18
     1  C    0.003450   0.001057   0.000837   0.000872   0.000481  -0.000451
     2  C    0.002214   0.000020   0.000448   0.000279   0.000782   0.000192
     3  C    0.001394   0.000090  -0.000054   0.001394   0.000208  -0.000937
     4  O   -0.000003  -0.000146  -0.000032  -0.000027  -0.000164   0.000113
     5  H    0.000036   0.000810   0.000192   0.000328   0.000108   0.000044
     6  O    0.002740   0.000734   0.000508   0.000864   0.000086  -0.000029
     7  H    0.000120   0.000016   0.000040   0.000082   0.000087   0.000280
     8  N   -0.000142  -0.000009  -0.000037  -0.000409  -0.000007   0.000123
     9  C   -0.017055  -0.002481  -0.003000  -0.005406  -0.001547   0.000392
    10  H   -0.000325  -0.000288  -0.000211  -0.000061  -0.000189   0.000022
    11  O   -0.000303  -0.000028  -0.000024  -0.000010  -0.000304   0.000023
    12  C    0.000890  -0.000057   0.000386   0.000715   0.000142  -0.000070
    13  H    0.011256   0.000149   0.000390   0.000462   0.000226  -0.000008
    14  O    0.000149   0.001608   0.000088  -0.000113   0.000008   0.000005
    15  H    0.000390   0.000088  -0.000100   0.000269   0.000032  -0.000006
    16  H    0.000462  -0.000113   0.000269   0.000780   0.000011  -0.000005
    17  H    0.000226   0.000008   0.000032   0.000011   0.000329  -0.000002
    18  H   -0.000008   0.000005  -0.000006  -0.000005  -0.000002  -0.000507
    19  H   -0.000088  -0.000044  -0.000077  -0.000224  -0.000015   0.000012
    20  C    0.000012  -0.000033   0.000031  -0.000131  -0.000010   0.000298
    21  C   -0.000082  -0.000038   0.000010   0.000011  -0.000000   0.000027
    22  C   -0.000008  -0.000059   0.000022   0.000006  -0.000005   0.000058
    23  N   -0.000085  -0.000043   0.000002   0.000078   0.000001  -0.000026
    24  C    0.000162   0.000137   0.000218   0.000496   0.000035   0.000118
    25  H    0.000126   0.000012   0.000005  -0.000024  -0.000012  -0.000054
    26  H   -0.000015  -0.000001   0.000001   0.000002   0.000001  -0.000001
    27  O    0.000009   0.000003  -0.000001  -0.000001   0.000000  -0.000001
    28  O    0.000117   0.000382  -0.000093  -0.000223  -0.000001  -0.000001
              19         20         21         22         23         24
     1  C   -0.001243  -0.001568   0.000536   0.000361   0.000367   0.002715
     2  C    0.000546   0.015917   0.002459   0.000395   0.000918  -0.000609
     3  C   -0.000237  -0.005366   0.024632   0.016194   0.007751   0.006194
     4  O    0.000012  -0.001961   0.000080  -0.000178  -0.000099  -0.000608
     5  H   -0.000688  -0.001550  -0.000071   0.000505  -0.000563   0.006109
     6  O   -0.000735   0.004775   0.001202  -0.000715  -0.000033   0.005028
     7  H   -0.000319   0.001474   0.001287   0.000090   0.000693  -0.000616
     8  N    0.000441  -0.004515   0.007698   0.011000  -0.011014  -0.011645
     9  C    0.003047   0.009370   0.000352  -0.000921  -0.001792  -0.015966
    10  H    0.000188   0.000015  -0.000018  -0.000007  -0.000023  -0.000559
    11  O    0.000028  -0.000003  -0.000012   0.000009  -0.000002  -0.000243
    12  C   -0.000109   0.000753   0.000242   0.000320   0.000360   0.002324
    13  H   -0.000088   0.000012  -0.000082  -0.000008  -0.000085   0.000162
    14  O   -0.000044  -0.000033  -0.000038  -0.000059  -0.000043   0.000137
    15  H   -0.000077   0.000031   0.000010   0.000022   0.000002   0.000218
    16  H   -0.000224  -0.000131   0.000011   0.000006   0.000078   0.000496
    17  H   -0.000015  -0.000010  -0.000000  -0.000005   0.000001   0.000035
    18  H    0.000012   0.000298   0.000027   0.000058  -0.000026   0.000118
    19  H   -0.000095   0.000245  -0.000041  -0.000365  -0.000094  -0.000763
    20  C    0.000245  -0.264561   0.062422   0.025210   0.007093   0.017116
    21  C   -0.000041   0.062422   0.157660   0.128474  -0.008447  -0.028557
    22  C   -0.000365   0.025210   0.128474  -0.478001   0.019308   0.048603
    23  N   -0.000094   0.007093  -0.008447   0.019308   0.318930  -0.023454
    24  C   -0.000763   0.017116  -0.028557   0.048603  -0.023454  -0.103539
    25  H    0.000144  -0.002493  -0.007274  -0.004111  -0.001381   0.004281
    26  H   -0.000013  -0.035428   0.067812   0.015896   0.001607   0.005886
    27  O    0.000043  -0.005854  -0.025076  -0.008339  -0.015707  -0.002754
    28  O    0.000357   0.001620   0.001434  -0.002291  -0.000389   0.018997
              25         26         27         28
     1  C   -0.001825   0.000108  -0.000025  -0.001563
     2  C    0.006307  -0.000978  -0.000134   0.001312
     3  C   -0.010674  -0.005279  -0.001280  -0.002674
     4  O   -0.000285   0.000029   0.000021  -0.000013
     5  H   -0.000206   0.000018   0.000062  -0.001429
     6  O    0.002759  -0.000246   0.000021  -0.002086
     7  H    0.000145   0.000345   0.000000  -0.000167
     8  N    0.007457  -0.011500   0.000516   0.003418
     9  C    0.003238  -0.000405   0.000110   0.005662
    10  H   -0.000008  -0.000004  -0.000002   0.000056
    11  O    0.000071  -0.000003  -0.000000   0.000017
    12  C   -0.000045   0.000023  -0.000024  -0.001599
    13  H    0.000126  -0.000015   0.000009   0.000117
    14  O    0.000012  -0.000001   0.000003   0.000382
    15  H    0.000005   0.000001  -0.000001  -0.000093
    16  H   -0.000024   0.000002  -0.000001  -0.000223
    17  H   -0.000012   0.000001   0.000000  -0.000001
    18  H   -0.000054  -0.000001  -0.000001  -0.000001
    19  H    0.000144  -0.000013   0.000043   0.000357
    20  C   -0.002493  -0.035428  -0.005854   0.001620
    21  C   -0.007274   0.067812  -0.025076   0.001434
    22  C   -0.004111   0.015896  -0.008339  -0.002291
    23  N   -0.001381   0.001607  -0.015707  -0.000389
    24  C    0.004281   0.005886  -0.002754   0.018997
    25  H    0.011852  -0.001887   0.000073  -0.000075
    26  H   -0.001887  -0.044305  -0.003761  -0.000166
    27  O    0.000073  -0.003761   0.586081   0.000019
    28  O   -0.000075  -0.000166   0.000019  -0.043512
 Mulliken charges and spin densities:
               1          2
     1  C    1.256951   0.008054
     2  C    0.908045   0.021662
     3  C    1.164709  -0.044505
     4  O   -0.645720   0.008561
     5  H   -0.571345   0.001412
     6  O   -0.901749   0.033844
     7  H   -0.513796   0.004072
     8  N    0.023474   0.261194
     9  C    0.629150  -0.001902
    10  H   -0.332681   0.000923
    11  O   -0.762863  -0.000023
    12  C    1.013941   0.000553
    13  H   -0.455810   0.005638
    14  O   -0.535340   0.001777
    15  H   -0.283956  -0.000154
    16  H   -0.250845   0.000016
    17  H    0.121459   0.000282
    18  H    0.108356  -0.000392
    19  H    0.334757  -0.000089
    20  C    0.652313  -0.177121
    21  C    1.071750   0.386722
    22  C    0.547805  -0.228549
    23  N   -0.466476   0.293959
    24  C    0.517921  -0.070894
    25  H   -0.748234   0.006117
    26  H   -0.515622  -0.012264
    27  O   -0.566054   0.524000
    28  O   -0.800139  -0.022892
 Sum of Mulliken charges =  -0.00000   1.00000
 Mulliken charges and spin densities with hydrogens summed into heavy atoms:
               1          2
     1  C    0.924270   0.008977
     2  C    0.336700   0.023074
     3  C    0.650913  -0.040432
     4  O   -0.537363   0.008169
     6  O   -0.901749   0.033844
     8  N    0.023474   0.261194
     9  C    0.173340   0.003735
    11  O   -0.641404   0.000259
    12  C    0.479140   0.000415
    14  O   -0.200583   0.001688
    20  C   -0.095921  -0.171005
    21  C    0.556128   0.374457
    22  C    0.547805  -0.228549
    23  N   -0.466476   0.293959
    24  C    0.517921  -0.070894
    27  O   -0.566054   0.524000
    28  O   -0.800139  -0.022892
 Electronic spatial extent (au):  <R**2>=           4007.9980
 Charge=             -0.0000 electrons
 Dipole moment (field-independent basis, Debye):
    X=             -3.3857    Y=             -6.0600    Z=             -4.6338  Tot=              8.3462
 Quadrupole moment (field-independent basis, Debye-Ang):
   XX=            -96.0256   YY=           -103.9900   ZZ=           -101.6986
   XY=             -7.7588   XZ=              0.4402   YZ=              0.0936
 Traceless Quadrupole moment (field-independent basis, Debye-Ang):
   XX=              4.5458   YY=             -3.4186   ZZ=             -1.1272
   XY=             -7.7588   XZ=              0.4402   YZ=              0.0936
 Octapole moment (field-independent basis, Debye-Ang**2):
  XXX=           -161.3630  YYY=            -37.8231  ZZZ=             -0.8630  XYY=              6.5212
  XXY=            -45.3748  XXZ=            -37.8398  XZZ=             -1.0264  YZZ=             -0.0260
  YYZ=            -25.2453  XYZ=              3.4328
 Hexadecapole moment (field-independent basis, Debye-Ang**3):
 XXXX=          -3754.8891 YYYY=          -1067.9788 ZZZZ=           -463.3727 XXXY=            -69.0829
 XXXZ=             15.3790 YYYX=             31.8756 YYYZ=            -16.9900 ZZZX=             10.4217
 ZZZY=             14.0491 XXYY=           -777.4526 XXZZ=           -650.0800 YYZZ=           -260.2177
 XXYZ=              0.0379 YYXZ=             -0.3606 ZZXY=             -2.4325
 N-N= 1.320985163892D+03 E-N=-4.771608637595D+03  KE= 9.046081761182D+02
                          Isotropic Fermi Contact Couplings
        Atom                 a.u.       MegaHertz       Gauss      10(-4) cm-1
     1  C(13)              0.00072       0.81319       0.29017       0.27125
     2  C(13)              0.00616       6.92389       2.47062       2.30956
     3  C(13)             -0.00636      -7.15421      -2.55280      -2.38639
     4  O(17)              0.00182      -1.10357      -0.39378      -0.36811
     5  H(1)              -0.00030      -1.35233      -0.48255      -0.45109
     6  O(17)              0.01244      -7.53868      -2.68999      -2.51463
     7  H(1)               0.00080       3.58013       1.27748       1.19420
     8  N(14)              0.05691      18.38917       6.56171       6.13397
     9  C(13)             -0.00153      -1.72504      -0.61554      -0.57541
    10  H(1)               0.00070       3.11199       1.11044       1.03805
    11  O(17)              0.00046      -0.28164      -0.10050      -0.09395
    12  C(13)             -0.00022      -0.24583      -0.08772      -0.08200
    13  H(1)               0.00194       8.65185       3.08720       2.88595
    14  O(17)              0.00018      -0.10848      -0.03871      -0.03618
    15  H(1)              -0.00005      -0.23570      -0.08410      -0.07862
    16  H(1)               0.00002       0.07719       0.02754       0.02575
    17  H(1)               0.00008       0.37799       0.13488       0.12608
    18  H(1)              -0.00013      -0.59998      -0.21409      -0.20013
    19  H(1)              -0.00004      -0.17593      -0.06278      -0.05868
[...]
 0033984,-0.00024263,-0.01411663,0.00425268,-0.00334214,0.00161220,-0.0
 0411424,-0.00071695,-0.00183094,-0.01909219,-0.01330070,0.00798088,-0.
 00534579,-0.00667205,-0.00276657,-0.00010214,-0.00147248,-0.00399578,-
 0.00314414,-0.00161874,-0.00025982,-0.00168854,-0.00016908,-0.00296304
 ,0.00068758,0.00056094,-0.00050082,0.00295832,0.00043044,-0.00048361,0
 .00032602,0.00046915,0.00042912,0.00014565,-0.00005149,0.00094815,0.00
 063481,-0.00023529,0.00087807,0.00197908,0.00071603,0.00151632,-0.0018
 8798,-0.00062665,-0.03343488,0.05584726,0.03666929,0.00703902,-0.02116
 033,-0.00429491,0.18315029,-0.00043140,0.00041856,0.00017663,0.0015663
 4,0.00120075,-0.00121599,-0.00740308,-0.00418693,0.00323202,0.00044359
 ,-0.00046710,0.00030442,-0.00123994,-0.00039386,0.00064201,0.00277868,
 0.00106561,-0.00045903,-0.00008207,0.00160054,0.00035064,0.01126724,-0
 .00275237,0.00510924,-0.00109440,0.00037476,0.00038646,-0.00001787,-0.
 00002723,-0.00016878,0.00049685,0.00031750,0.00008691,-0.00049382,-0.0
 0045877,-0.00088455,0.00024124,-0.00005759,0.00010982,0.00166780,-0.00
 012375,0.00046389,0.00017892,0.00005311,0.00003503,-0.00009728,0.00007
 709,0.00005942,-0.00007668,-0.00004144,0.00004859,0.00011630,-0.000042
 74,-0.00001216,-0.00254511,0.00071030,0.00026165,-0.01678454,-0.006698
 46,-0.02663232,-0.06346152,-0.21526622,-0.06812605,0.06289971,0.462870
 94,0.00016008,0.00025243,-0.00024131,0.00078250,0.00060258,0.00068745,
 -0.00458109,-0.00153328,0.00014238,0.00018173,-0.00038063,-0.00024821,
 -0.00009556,0.00010972,-0.00005601,0.00179373,-0.00120113,-0.00046099,
 -0.00027945,0.00010489,0.00023664,0.01085009,-0.01807036,-0.01374248,-
 0.00068152,0.00033231,0.00033118,0.00015913,-0.00000416,-0.00002717,0.
 00007895,-0.00009185,-0.00008167,0.00029623,0.00007940,0.00046772,0.00
 007852,-0.00011038,0.00002076,-0.00073800,-0.00004831,-0.00042415,-0.0
 0006503,-0.00003853,-0.00011878,-0.00002048,0.00000231,-0.00006761,-0.
 00001981,0.00000472,0.00003199,-0.00002841,-0.00003068,0.00003915,0.00
 104551,-0.00046190,0.00041665,-0.03215868,0.00579937,0.00261172,-0.003
 74232,-0.07348741,-0.10993194,0.01464654,0.18264950,0.28408981,-0.0002
 1472,-0.00069847,-0.00600925,0.00191638,-0.00199310,0.01583125,0.00115
 859,-0.00636994,-0.01827282,-0.00023453,0.00323725,-0.00292200,0.00082
 676,0.00092449,-0.00107812,0.00718437,-0.00470403,0.00119970,-0.002966
 61,0.00026899,-0.00008856,-0.01266919,-0.06243465,-0.03350846,-0.00300
 030,0.00274741,0.00364515,0.00157842,0.00010938,0.00079256,0.00109187,
 0.00042251,0.00044345,0.00178266,0.00215697,0.00339183,0.00136383,-0.0
 0051653,-0.00051169,-0.00632695,-0.00118446,-0.00223720,-0.00031807,-0
 .00040600,-0.00058323,-0.00001288,-0.00019096,-0.00031357,-0.00031738,
 -0.00017832,0.00011921,-0.00053729,-0.00087368,-0.00034109,0.00925160,
 -0.00211945,0.00028445,-0.06190469,-0.00845270,-0.00341888,0.01410909,
 0.02216890,0.01162008,-0.01204379,0.15092029,0.06367870,0.57008674,0.0
 0042683,0.00011845,0.00085980,-0.00011351,0.00017220,-0.00243495,0.005
 11443,-0.00376036,-0.00108260,-0.00022392,-0.00055614,0.00065926,0.000
 46775,0.00015829,0.00019122,-0.00237813,0.00045966,-0.00026076,-0.0017
 0614,-0.00149351,-0.00028270,-0.03376580,-0.01162190,-0.01726879,0.001
 41368,-0.00079069,-0.00086809,-0.00028560,-0.00002089,-0.00003076,-0.0
 0061475,-0.00033799,-0.00011661,0.00000965,-0.00032822,-0.00010557,-0.
 00045983,0.00008351,0.00003679,0.00042541,0.00020852,0.00029407,-0.000
 07010,0.00008624,0.00008736,0.00008412,-0.00000959,0.00001423,0.000134
 93,0.00011367,-0.00001678,0.00013476,0.00027070,-0.00004371,-0.0002544
 3,0.00027931,-0.00054872,-0.00729932,0.01223600,0.01405169,0.04907345,
 -0.02768160,-0.02621249,-0.02551031,-0.21120564,-0.09704696,-0.1175864
 6,0.32039472,0.00022703,-0.00033760,-0.00007784,-0.00084112,-0.0004146
 9,0.00024392,0.00317503,-0.00431189,-0.00065642,-0.00017818,-0.0000906
 5,0.00003512,0.00060979,0.00008617,-0.00046009,0.00040556,0.00026190,0
 .00090698,-0.00148334,-0.00055002,-0.00060571,-0.01925990,-0.02102885,
 0.00159881,0.00049110,-0.00016451,0.00012373,-0.00000451,0.00001723,0.
 00005942,-0.00032294,-0.00017212,-0.00003728,0.00009328,0.00026559,0.0
 0026808,0.00001701,0.00004038,-0.00008090,-0.00035501,-0.00011403,-0.0
 0030445,-0.00007774,-0.00003152,0.00002173,0.00007264,-0.00003503,-0.0
 0000487,0.00004131,0.00001033,-0.00001816,-0.00006590,0.00004483,-0.00
 000085,0.00084094,0.00000720,0.00027525,-0.01425876,0.00851817,0.00781
 979,0.02807275,-0.02641244,0.00947675,-0.01080571,-0.05134870,-0.10044
 688,-0.03431933,0.12836383,0.12615490,-0.00171197,0.00018345,0.0029380
 4,0.00122121,-0.00121063,-0.01018617,-0.00832705,-0.03606247,-0.004157
 47,0.00074902,0.00116814,0.00209990,-0.00525024,-0.00212638,0.00447138
 ,-0.00144760,0.01012770,-0.00082375,-0.00417688,0.00105793,0.00052768,
 -0.15394114,0.03786817,0.02148239,-0.00068453,-0.00122811,-0.00291870,
 -0.00092249,-0.00003027,-0.00054155,0.00099184,0.00154566,0.00065899,-
 0.00334301,-0.00271286,-0.00511836,-0.00043114,0.00026744,0.00075704,0
 .00894358,0.00054736,0.00321052,0.00079238,0.00048606,0.00038170,-0.00
 034094,0.00030865,0.00038710,-0.00007669,0.00003399,0.00008946,0.00054
 043,0.00041805,-0.00020968,-0.01410688,0.00390316,0.00091980,0.1049107
 9,-0.01509684,-0.01840532,-0.06447460,-0.02328059,-0.01289770,-0.01106
 677,-0.02217596,0.01007332,-0.24444708,0.00787920,-0.00438207,0.722056
 48,0.00186664,0.00101305,0.00174011,-0.00033578,0.00280130,-0.00454930
 ,-0.02906013,0.00938378,0.00289873,0.00046881,-0.00462232,0.00059705,0
 .00126229,0.00166949,-0.00193947,0.00144970,-0.00614615,-0.00103431,0.
 00467303,0.00194500,-0.00027796,-0.03378540,-0.10485356,-0.01339462,0.
 00074118,-0.00006217,0.00018268,0.00001115,0.00005252,-0.00040739,-0.0
 0083629,-0.00149302,-0.00065259,0.00254871,0.00177604,0.00380347,-0.00
 011964,-0.00014371,-0.00016695,-0.00960971,0.00145511,-0.00242452,-0.0
 0063733,-0.00045185,-0.00034371,0.00019164,-0.00014289,-0.00036110,0.0
 0019481,0.00007528,-0.00005616,0.00002190,0.00000384,0.00046849,0.0128
 2735,-0.00637124,-0.00010299,0.07008927,-0.03100165,-0.01807389,-0.031
 03070,-0.01669796,-0.00925503,-0.00939446,-0.00329054,0.02603610,-0.01
 421788,-0.08324258,-0.01482543,-0.25726515,0.56708741,0.00087536,0.000
 34068,0.00211490,0.00021580,0.00268819,-0.00404787,-0.01416874,0.00454
 814,0.00569198,0.00000013,-0.00243908,0.00051219,0.00142434,0.00046863
 ,-0.00083834,0.00014946,-0.00263240,-0.00109025,0.00299368,0.00032966,
 0.00099176,-0.02096186,-0.00168961,-0.06678714,-0.00039082,-0.00029177
 ,-0.00021549,-0.00035158,0.00005265,-0.00046630,-0.00061667,-0.0004757
 2,-0.00061183,0.00090560,0.00039892,0.00140039,0.00002196,0.00005180,-
 0.00001546,-0.00380735,0.00094247,-0.00050047,-0.00012347,-0.00015397,
 -0.00013107,0.00004055,0.00013579,-0.00018712,0.00008543,0.00001013,-0
 .00002864,0.00022459,0.00011903,0.00028432,0.00471720,-0.00198909,-0.0
 0110646,0.05555791,-0.01823142,-0.01488201,-0.02829183,-0.00721141,-0.
 00813214,0.00467970,-0.02842151,-0.00633604,-0.01402569,0.00235438,-0.
 06854989,-0.10293542,0.14504579,0.26579910,-0.00009727,0.00001646,-0.0
 0023813,-0.00029897,-0.00036897,0.00059376,-0.00092975,0.00511753,0.00
 137643,0.00010110,0.00018897,-0.00034706,0.00008564,0.00010394,-0.0001
 4531,0.00097538,-0.00144508,0.00066272,-0.00101287,0.00002709,-0.00005
 584,0.00941441,0.01988963,0.00983857,-0.00063670,0.00034513,0.00036940
 ,0.00010476,0.00000545,0.00001436,0.00021736,0.00008882,0.00000414,0.0
 0007115,0.00013411,0.00009661,0.00016621,-0.00001821,-0.00002501,-0.00
 014942,-0.00016318,-0.00008639,0.00002438,-0.00002974,-0.00003945,-0.0
 0002174,-0.00000662,-0.00000005,-0.00004871,-0.00004792,-0.00000167,-0
 .00012395,-0.00007095,0.00009405,0.00020564,0.00003536,0.00003015,-0.1
 0406319,-0.10200138,-0.05392252,-0.00569034,-0.02347576,-0.01200553,0.
 00519728,-0.00170052,0.00044851,-0.00322239,0.00192619,0.00093115,-0.0
 0440786,0.00300616,0.00077793,0.10822978,0.00003732,0.00000568,0.00014
 378,0.00013440,0.00060133,-0.00044356,-0.00348993,-0.00132841,0.001092
 58,-0.00008516,-0.00018467,0.00019069,-0.00015318,-0.00002613,0.000196
 79,-0.00001914,0.00048780,0.00014544,0.00100720,0.00133363,0.00032713,
 -0.00828139,-0.02078064,-0.01247260,0.00030870,-0.00001131,0.00005203,
 -0.00007303,-0.00000800,-0.00001310,-0.00010052,-0.00004795,0.00000530
 ,-0.00011468,-0.00004552,-0.00012263,0.00001774,0.00000568,-0.00002570
 ,0.00020553,0.00006020,0.00008201,0.00000030,0.00002419,0.00003047,0.0
 0000680,-0.00000550,0.00001106,0.00001341,0.00001545,0.00000062,0.0000
 2927,0.00008558,-0.00001091,-0.00032911,0.00005274,-0.00002487,-0.0912
 1548,-0.24616916,-0.10449082,0.00116924,0.00315689,-0.00231668,-0.0023
 7920,0.00289517,-0.00348508,0.00017024,-0.00033051,0.00079976,0.005209
 94,0.00338724,-0.00081781,0.09727267,0.25964177,0.00013521,-0.00004384
 ,-0.00019056,0.00037454,-0.00057248,0.00063392,-0.00040217,0.00108552,
 -0.00270732,-0.00038590,0.00045717,0.00001913,0.00002998,0.00004044,-0
 .00003019,-0.00063126,0.00037983,0.00022011,0.00049353,0.00000681,0.00
 044402,-0.00443032,-0.01181800,-0.00150675,0.00012191,0.00003727,-0.00
 016635,0.00004750,-0.00000762,0.00003750,-0.00007703,0.00000175,-0.000
 04919,-0.00001190,0.00001492,0.00005428,-0.00005829,0.00001908,-0.0000
 0366,-0.00009072,0.00002774,-0.00003879,-0.00001627,0.00000830,0.00000
 958,0.00000524,0.00000288,-0.00000474,0.00000468,0.00002550,0.00001235
 ,0.00017457,-0.00002735,-0.00003425,0.00011485,-0.00004957,-0.00001326
 ,-0.05087376,-0.10468515,-0.09530048,0.00246652,-0.00426160,0.00616619
 ,-0.00359866,0.00140681,0.00935528,-0.00037782,-0.00077329,-0.00295006
 ,0.00438231,-0.00010975,0.00594519,0.05205670,0.11918735,0.08612351,0.
 00002839,0.00006917,0.00029708,-0.00023438,0.00014386,-0.00082200,0.00
 085688,0.00118815,0.00112025,-0.00000010,-0.00027941,0.00016104,0.0000
 4548,-0.00001836,-0.00001576,-0.00074250,0.00023724,-0.00004220,-0.000
 05061,-0.00014181,-0.00006246,-0.00465057,-0.00292074,-0.00168701,0.00
 023170,-0.00017682,-0.00021146,-0.00008965,-0.00000607,-0.00003740,-0.
 00010766,-0.00009681,-0.00004283,-0.00004164,-0.00004357,-0.00003684,-
 0.00010034,0.00003449,0.00000942,0.00004951,0.00007277,0.00002018,-0.0
 0000590,0.00001377,0.00002054,0.00001190,0.00000521,0.00000236,0.00002
 509,0.00001690,-0.00000582,0.00000531,0.00006310,0.00001841,-0.0000491
 1,-0.00002254,-0.00000945,-0.01191691,0.02380560,0.01166864,-0.1901003
 8,0.13668152,0.06611038,0.00072573,-0.00576177,-0.00342240,0.00323490,
 -0.00489105,-0.00233580,-0.00007476,-0.00207686,-0.00103219,0.00105256
 ,-0.00021133,-0.00004589,0.19729642,0.00007416,0.00005348,0.00022573,-
 0.00001585,0.00014757,-0.00057393,0.00064042,0.00101981,0.00001586,-0.
 00002683,-0.00023546,0.00013330,0.00005094,0.00000162,-0.00001237,-0.0
 0087692,0.00020566,-0.00008953,-0.00007837,-0.00011264,-0.00000443,-0.
 00342783,0.00217869,-0.00319342,0.00025203,-0.00014620,-0.00024293,-0.
 00006395,-0.00000723,-0.00002149,-0.00010688,-0.00009810,-0.00003200,-
 0.00002345,-0.00002389,-0.00001703,-0.00010200,0.00002806,0.00000959,-
 0.00000344,0.00006514,0.00001640,-0.00001256,0.00001147,0.00001930,0.0
 0001422,-0.00000312,0.00000233,0.00002528,0.00002113,-0.00000954,0.000
 00921,0.00005994,0.00001231,0.00004297,-0.00003765,-0.00001210,-0.0070
 9301,0.00870548,0.00575192,0.14080786,-0.18702923,-0.08031853,0.010077
 58,-0.00640298,-0.00348036,0.00117780,-0.00616323,-0.00509220,-0.00025
 930,-0.00216571,-0.00052727,0.00068190,-0.00059801,0.00196523,-0.14630
 929,0.18885570,0.00000193,0.00000447,0.00007418,-0.00036902,-0.0001650
 1,-0.00007753,-0.00033402,-0.00022103,0.00116342,-0.00002389,0.0000131
 6,-0.00001809,0.00011492,0.00005168,-0.00005998,0.00039825,-0.00020342
 ,0.00006406,0.00001636,-0.00005656,-0.00003640,-0.00123365,-0.00405177
 ,0.00530470,0.00000459,-0.00001098,0.00006979,-0.00001941,0.00000684,-
 0.00000205,-0.00004031,-0.00002942,-0.00003346,0.00006780,0.00002540,0
 .00010963,0.00000669,-0.00000291,-0.00000832,-0.00016857,0.00000843,-0
 .00006858,-0.00001760,-0.00000758,-0.00000879,0.00000727,0.00000245,-0
 .00001152,0.00000682,0.00000177,0.00000159,-0.00000281,0.00000231,0.00
 001648,0.00025839,-0.00005512,-0.00002124,-0.00571826,0.00435805,0.002
 34308,0.07190523,-0.07616568,-0.06309094,-0.00260316,-0.00287026,-0.00
 331297,0.00228787,-0.00808759,0.00117995,0.00197840,0.00255494,0.00049
 771,0.00020109,0.00198099,-0.00361771,-0.07034943,0.08282535,0.0612935
 6,-0.00093230,-0.00098800,-0.00393416,-0.00024166,-0.00310719,0.010586
 45,0.00263426,-0.00232327,-0.00829087,-0.00022492,0.00392988,-0.001960
 80,-0.00016154,-0.00012814,-0.00017232,0.00461880,-0.00148970,0.001768
 05,-0.00041791,0.00152512,0.00016266,-0.00695688,0.01078029,0.00508293
 ,-0.00265357,0.00191026,0.00255507,0.00094434,0.00006096,0.00053703,0.
 00134997,0.00115010,0.00054025,0.00007319,0.00086891,0.00023104,0.0011
 5496,-0.00017618,-0.00031845,-0.00014213,-0.00105619,-0.00038609,0.000
 16857,-0.00015487,-0.00015021,-0.00013692,-0.00005855,0.00001393,-0.00
 033064,-0.00024141,0.00006664,-0.00032462,-0.00072632,-0.00025656,-0.0
 0008019,0.00056380,0.00031852,0.01871893,-0.03998184,-0.01791250,-0.08
 236484,-0.03658531,-0.02714747,-0.14868864,-0.10509818,-0.04820520,-0.
 16105756,0.08206769,0.04109706,-0.00107680,0.02190204,-0.00391172,-0.0
 0448002,0.00052380,0.00094631,0.00378770,0.00392582,0.00420644,0.38839
 838,0.00001140,-0.00048154,-0.00180498,0.00016575,-0.00122577,0.004812
 36,0.00071710,-0.00008231,-0.00672597,-0.00013147,0.00130974,-0.001015
 40,0.00060142,0.00030961,-0.00037098,0.00126727,-0.00148283,0.00073102
 ,-0.00048077,-0.00027547,-0.00003120,0.00213097,-0.01415920,-0.0076066
 4,-0.00067417,0.00055562,0.00071778,0.00047514,0.00003571,0.00029524,0
 .00024617,0.00015000,0.00014180,0.00050390,0.00062061,0.00081021,0.000
 29304,-0.00009293,-0.00010655,-0.00138832,-0.00044563,-0.00053951,-0.0
 0007247,-0.00011296,-0.00011267,0.00001022,-0.00007281,-0.00004621,-0.
 00009280,-0.00006277,0.00001510,-0.00024849,-0.00023878,-0.00005760,0.
 00207727,-0.00020157,-0.00002421,-0.02037284,-0.00692205,0.00408705,-0
 .02672626,-0.01109145,-0.01540949,-0.03879240,-0.03238874,-0.01518202,
 0.00006002,0.01135285,-0.00941816,0.02895392,0.01077212,0.01846619,-0.
 00142017,-0.00001060,-0.00138808,0.00067188,0.00156307,0.00035488,0.05
 787215,0.04446781,-0.00016423,-0.00015390,-0.00059257,0.00030859,-0.00
 038017,0.00143082,0.00122823,0.00036331,-0.00282286,-0.00008422,0.0005
 9258,-0.00019362,-0.00010038,-0.00004652,0.00006423,-0.00023498,0.0003
 5690,0.00022864,-0.00004240,0.00014804,0.00002399,-0.00223549,0.005373
 10,0.00270267,-0.00015077,0.00013117,0.00007974,0.00011078,-0.00000196
 ,0.00009378,0.00017598,0.00017226,0.00012150,-0.00007476,0.00003952,-0
 .00014880,0.00007470,-0.00000677,-0.00001196,0.00025240,-0.00012318,0.
 00010302,0.00003583,-0.00000006,0.00001339,-0.00001945,-0.00001077,0.0
 0002841,-0.00004147,-0.00002445,0.00000217,-0.00001850,-0.00009429,-0.
 00006889,-0.00038499,0.00020105,-0.00005617,0.00590559,-0.01194120,0.0
 0024736,-0.03442741,-0.01577001,0.00547265,-0.01229947,-0.02230612,-0.
 06944858,0.00466791,0.01742947,0.01123375,-0.00263861,-0.01002789,0.00
 871832,-0.00135058,0.00076199,-0.00156317,0.00058382,0.00223965,-0.000
 89300,0.03957971,0.03129304,0.04527473,0.00146877,0.00037329,-0.002681
 19,-0.00089851,-0.00032379,0.00915707,-0.01011662,0.00594881,-0.006791
 71,-0.00042081,-0.00170579,-0.00168030,0.00024548,-0.00103039,-0.00266
 206,0.00342435,-0.01084724,-0.00247058,0.00084911,-0.00003080,-0.00033
 223,0.02468823,0.00736414,0.00227216,-0.00074479,0.00176044,0.00260061
 ,0.00098017,0.00012233,0.00025181,-0.00040608,-0.00123189,-0.00035591,
 0.00315940,0.00319432,0.00771551,0.00063703,-0.00052256,-0.00056858,-0
 .02011963,0.00358670,-0.00407888,-0.00104348,-0.00063715,-0.00128288,0
 .00012364,-0.00016818,-0.00092605,0.00003380,0.00001227,0.00000236,-0.
 00032089,-0.00056100,0.00012015,0.00300953,-0.00404881,-0.00142737,-0.
 02311076,-0.00026157,0.00242640,0.00985961,0.01008833,0.00621418,0.018
 29670,-0.00411282,-0.01023558,-0.10431178,0.04600125,0.01261565,-0.319
 89728,0.26711465,0.11794768,-0.00066246,0.00034560,-0.00035384,0.00081
 290,0.00061950,-0.00058189,-0.01157795,-0.00565744,0.00134419,0.426042
 32,-0.00035640,-0.00089828,0.00075006,-0.00139937,-0.00049438,-0.00022
 053,0.01141546,-0.00155548,0.00531915,-0.00096038,-0.00009854,0.000102
 02,-0.00195927,-0.00336091,0.00022010,-0.00443320,0.00392824,-0.002081
 68,-0.00058737,0.00026414,0.00014032,0.03039314,-0.07231931,-0.0427168
 4,0.00183544,-0.00117984,-0.00074492,-0.00055503,-0.00019499,0.0000167
 8,-0.00041547,0.00075083,-0.00011761,-0.00198990,-0.00246060,-0.004985
 14,-0.00038810,0.00043474,0.00019352,0.01473081,0.00092348,0.00269633,
 0.00070410,0.00052886,0.00083855,-0.00022075,0.00015482,0.00044741,-0.
 00001658,-0.00009924,-0.00003372,0.00039713,-0.00008394,0.00005087,-0.
 01305060,0.00274063,0.00106839,-0.01552498,0.00025829,-0.00077044,0.00
 741153,-0.00156995,-0.00012048,-0.01558631,0.01222003,-0.00132032,0.03
 756235,0.00160873,-0.00406754,0.26148973,-0.34073683,-0.11107138,0.001
 90910,-0.00220697,-0.00092987,-0.00004723,0.00010662,-0.00026337,0.005
 03432,-0.00178971,0.00178522,-0.31539218,0.40512958,-0.00077143,0.0005
 8218,-0.00024482,0.00149755,-0.00095475,-0.00126392,0.00450107,0.00241
 006,-0.00241215,0.00026016,0.00126806,0.00061571,-0.00064468,0.0004103
 9,0.00126740,-0.00473812,-0.00337243,-0.00312363,-0.00040008,-0.000049
 16,0.00026793,0.01537040,-0.04622960,-0.00197295,0.00205432,0.00006139
 ,-0.00051803,-0.00007775,-0.00002490,0.00010631,0.00053751,0.00013932,
 0.00054972,0.00034325,-0.00086583,-0.00148539,-0.00035098,0.00004824,0
 .00010199,0.00322854,-0.00041410,0.00399603,0.00014520,0.00019481,0.00
 033687,0.00014729,-0.00016423,0.00040449,0.00002376,0.00009083,-0.0000
 0360,-0.00009353,0.00018378,-0.00016359,-0.00508450,0.00222417,-0.0039
 2577,-0.01199077,-0.00241192,0.00359037,0.00551420,0.00068126,-0.00067
 170,-0.00995804,0.00712243,0.00651407,0.01004555,-0.00916172,0.0147952
 3,0.11085673,-0.10532431,-0.11802934,0.00072197,-0.00078425,-0.0008445
 7,0.00014683,0.00041017,-0.00085756,0.00495427,-0.00188501,-0.00003954
 ,-0.12623871,0.15581513,0.10301043\\-0.00001116,0.00001679,-0.00000034
 ,0.00001429,-0.00003062,0.00000726,0.00003143,-0.00002178,0.00001524,-
 0.00001156,0.00003378,-0.00000057,0.00000765,0.00000013,0.00000420,-0.
 00000635,0.00001722,0.00000176,0.00000029,0.00000408,-0.00000626,-0.00
 003123,0.00003282,0.00001067,0.00000468,-0.00002184,-0.00000232,0.0000
 0148,-0.00000157,-0.00000180,-0.00000174,-0.00000016,-0.00000311,-0.00
 001327,0.00001310,-0.00000537,0.00000274,-0.00000230,0.00000146,0.0000
 0332,0.00000042,-0.00000905,0.00000626,0.00000238,0.00000527,-0.000001
 32,-0.00000065,-0.00000359,-0.00000126,-0.00000225,-0.00000226,0.00000
 487,-0.00000336,-0.00000590,0.00000589,-0.00000135,0.00000400,0.000025
 70,-0.00001624,-0.00001423,-0.00000817,-0.00001024,0.00000821,-0.00001
 397,0.00000187,-0.00001346,0.00007000,0.00000685,0.00002086,-0.0000971
 1,-0.00000849,-0.00000792,-0.00000130,0.00000343,0.00000310,0.00000505
 ,0.00000371,0.00000209,-0.00001348,-0.00000036,0.00000329,0.00002829,-
 0.00001538,-0.00001122\\\@
 The archive entry for this job was punched.


 THE SCIENTIFIC THEORIST IS NOT TO BE ENVIED. FOR NATURE, OR MORE
 PRECISELY EXPERIMENT, IS AN INEXORABLE AND NOT VERY FRIENDLY JUDGE OF HIS
 WORK.  IT NEVER SAYS "YES" TO A THEORY. IN THE MOST FAVORABLE CASES
 IT SAYS "MAYBE", AND IN THE GREAT MAJORITY OF CASES SIMPLY "NO"...
 PROBABLY EVERY THEORY WILL SOME DAY EXPERIENCE ITS "NO" - MOST
 THEORIES, SOON AFTER CONCEPTION.  -- A.EINSTEIN, NOV 11, 1922.
 Job cpu time:       0 days 17 hours 23 minutes 49.3 seconds.
 Elapsed time:       0 days  0 hours 26 minutes 18.2 seconds.
 File lengths (MBytes):  RWF=   1167 Int=      0 D2E=      0 Chk=     28 Scr=      1
 Normal termination of Gaussian 16 at Sat Oct 26 18:07:38 2024.
