 Entering Gaussian System, Link 0=g16
 Input=UridineSarrgPBE0aVDZ.gjf
 Output=UridineSarrgPBE0aVDZ.log
 Initial command:
 /sw/contrib/chem-src/g16/c01/g16/l1.exe "/scr/Gau-32253.inp" -scrdir="/scr/"
 Entering Link 1 = /sw/contrib/chem-src/g16/c01/g16/l1.exe PID=     32254.
  
 Copyright (c) 1988-2019, Gaussian, Inc.  All Rights Reserved.
  
 This is part of the Gaussian(R) 16 program.  It is based on
 the Gaussian(R) 09 system (copyright 2009, Gaussian, Inc.),
 the Gaussian(R) 03 system (copyright 2003, Gaussian, Inc.),
 the Gaussian(R) 98 system (copyright 1998, Gaussian, Inc.),
 the Gaussian(R) 94 system (copyright 1995, Gaussian, Inc.),
 the Gaussian 92(TM) system (copyright 1992, Gaussian, Inc.),
 the Gaussian 90(TM) system (copyright 1990, Gaussian, Inc.),
 the Gaussian 88(TM) system (copyright 1988, Gaussian, Inc.),
 the Gaussian 86(TM) system (copyright 1986, Carnegie Mellon
 University), and the Gaussian 82(TM) system (copyright 1983,
 Carnegie Mellon University). Gaussian is a federally registered
 trademark of Gaussian, Inc.
  
 This software contains proprietary and confidential information,
 including trade secrets, belonging to Gaussian, Inc.
  
 This software is provided under written license and may be
 used, copied, transmitted, or stored only in accord with that
 written license.
  
 The following legend is applicable only to US Government
 contracts under FAR:
  
                    RESTRICTED RIGHTS LEGEND
  
 Use, reproduction and disclosure by the US Government is
 subject to restrictions as set forth in subparagraphs (a)
 and (c) of the Commercial Computer Software - Restricted
 Rights clause in FAR 52.227-19.
  
 Gaussian, Inc.
 340 Quinnipiac St., Bldg. 40, Wallingford CT 06492
  
  
 ---------------------------------------------------------------
 Warning -- This program may not be used in any manner that
 competes with the business of Gaussian, Inc. or will provide
 assistance to any competitor of Gaussian, Inc.  The licensee
 of this program is prohibited from giving any competitor of
 Gaussian, Inc. access to this program.  By using this program,
 the user acknowledges that Gaussian, Inc. is engaged in the
 business of creating and licensing software in the field of
 computational chemistry and represents and warrants to the
 licensee that it is not a competitor of Gaussian, Inc. and that
 it will not use this program in any manner prohibited above.
 ---------------------------------------------------------------
  

 Cite this work as:
 Gaussian 16, Revision C.01,
 M. J. Frisch, G. W. Trucks, H. B. Schlegel, G. E. Scuseria, 
 M. A. Robb, J. R. Cheeseman, G. Scalmani, V. Barone, 
 G. A. Petersson, H. Nakatsuji, X. Li, M. Caricato, A. V. Marenich, 
 J. Bloino, B. G. Janesko, R. Gomperts, B. Mennucci, H. P. Hratchian, 
 J. V. Ortiz, A. F. Izmaylov, J. L. Sonnenberg, D. Williams-Young, 
 F. Ding, F. Lipparini, F. Egidi, J. Goings, B. Peng, A. Petrone, 
 T. Henderson, D. Ranasinghe, V. G. Zakrzewski, J. Gao, N. Rega, 
 G. Zheng, W. Liang, M. Hada, M. Ehara, K. Toyota, R. Fukuda, 
 J. Hasegawa, M. Ishida, T. Nakajima, Y. Honda, O. Kitao, H. Nakai, 
 T. Vreven, K. Throssell, J. A. Montgomery, Jr., J. E. Peralta, 
 F. Ogliaro, M. J. Bearpark, J. J. Heyd, E. N. Brothers, K. N. Kudin, 
 V. N. Staroverov, T. A. Keith, R. Kobayashi, J. Normand, 
 K. Raghavachari, A. P. Rendell, J. C. Burant, S. S. Iyengar, 
 J. Tomasi, M. Cossi, J. M. Millam, M. Klene, C. Adamo, R. Cammi, 
 J. W. Ochterski, R. L. Martin, K. Morokuma, O. Farkas, 
 J. B. Foresman, and D. J. Fox, Gaussian, Inc., Wallingford CT, 2019.
 
 ******************************************
 Gaussian 16:  EM64L-G16RevC.01  3-Jul-2019
                17-Oct-2024 
 ******************************************
 %nprocshared=40
 Will use up to   40 processors via shared memory.
 %mem=50gb
 ------------------------------------------------------
 # PBE1PBE/aug-cc-pVDZ opt freq EmpiricalDispersion=GD3
 ------------------------------------------------------
 1/18=20,19=15,26=3,38=1/1,3;
 2/9=110,12=2,17=6,18=5,40=1/2;
 3/5=16,7=10,11=2,25=1,30=1,71=1,74=-13,124=31/1,2,3;
 4//1;
 5/5=2,38=5/2;
 6/7=2,8=2,9=2,10=2,28=1/1;
 7//1,2,3,16;
 1/18=20,19=15,26=3/3(2);
 2/9=110/2;
 99//99;
 2/9=110/2;
 3/5=16,7=10,11=2,25=1,30=1,71=1,74=-13,124=31/1,2,3;
 4/5=5,16=3,69=1/1;
 5/5=2,38=5/2;
 7//1,2,3,16;
 1/18=20,19=15,26=3/3(-5);
 2/9=110/2;
 6/7=2,8=2,9=2,10=2,19=2,28=1/1;
 99/9=1/99;
 ----
 blah
 ----
 Symbolic Z-matrix:
 Charge =  0 Multiplicity = 1
 C                    -3.79228  -1.75188   0.38808 
 C                    -2.32459  -1.9617    0.7297 
 C                    -1.68607  -0.77931  -0.00884 
 O                    -1.854    -3.22728   0.25631 
 H                    -2.16001  -1.91636   1.80913 
 O                    -2.61907   0.31339   0.03744 
 H                    -1.56566  -1.03573  -1.06993 
 N                    -0.38848  -0.34295   0.51054 
 C                    -3.93074  -0.22789   0.32632 
 H                    -4.47554  -2.24867   1.08286 
 O                    -4.01629  -2.33171  -0.91637 
 C                    -4.46199   0.39471   1.62118 
 H                    -4.57891   0.08002  -0.50184 
 O                    -3.84182  -0.1546    2.77575 
 H                    -5.53476   0.1971    1.71049 
 H                    -4.30736   1.47855   1.63197 
 H                    -4.96856  -2.2437   -1.10768 
 H                    -2.42276  -3.43709  -0.51429 
 H                    -2.9163    0.18507   2.7934 
 C                     0.73745  -0.51028  -0.27524 
 C                     1.95388  -0.14953   0.13826 
 C                     2.1016    0.44302   1.47475 
 N                     0.95197   0.56286   2.19753 
 C                    -0.30373   0.19322   1.78851 
 H                     0.60242  -0.95484  -1.25746 
 H                     2.84662  -0.27189  -0.45976 
 H                     1.03013   0.95966   3.12034 
 O                     3.19681   0.7975    1.89316 
 O                    -1.25844   0.34711   2.54954 
 

 GradGradGradGradGradGradGradGradGradGradGradGradGradGradGradGradGradGrad
 Berny optimization.
 Initialization pass.
                           ----------------------------
                           !    Initial Parameters    !
                           ! (Angstroms and Degrees)  !
 --------------------------                            --------------------------
 ! Name  Definition              Value          Derivative Info.                !
 --------------------------------------------------------------------------------
 ! R1    R(1,2)                  1.5215         estimate D2E/DX2                !
 ! R2    R(1,9)                  1.5315         estimate D2E/DX2                !
 ! R3    R(1,10)                 1.0938         estimate D2E/DX2                !
 ! R4    R(1,11)                 1.445          estimate D2E/DX2                !
 ! R5    R(2,3)                  1.5334         estimate D2E/DX2                !
 ! R6    R(2,4)                  1.4308         estimate D2E/DX2                !
 ! R7    R(2,5)                  1.0928         estimate D2E/DX2                !
 ! R8    R(3,6)                  1.4376         estimate D2E/DX2                !
 ! R9    R(3,7)                  1.0983         estimate D2E/DX2                !
 ! R10   R(3,8)                  1.4642         estimate D2E/DX2                !
 ! R11   R(4,18)                 0.9805         estimate D2E/DX2                !
 ! R12   R(6,9)                  1.4481         estimate D2E/DX2                !
 ! R13   R(8,20)                 1.3832         estimate D2E/DX2                !
 ! R14   R(8,24)                 1.3885         estimate D2E/DX2                !
 ! R15   R(9,12)                 1.5318         estimate D2E/DX2                !
 ! R16   R(9,13)                 1.0958         estimate D2E/DX2                !
 ! R17   R(11,17)                0.9753         estimate D2E/DX2                !
 ! R18   R(12,14)                1.4211         estimate D2E/DX2                !
 ! R19   R(12,15)                1.0945         estimate D2E/DX2                !
 ! R20   R(12,16)                1.0949         estimate D2E/DX2                !
 ! R21   R(14,19)                0.986          estimate D2E/DX2                !
 ! R22   R(20,21)                1.3345         estimate D2E/DX2                !
 ! R23   R(20,25)                1.0866         estimate D2E/DX2                !
 ! R24   R(21,22)                1.4694         estimate D2E/DX2                !
 ! R25   R(21,26)                1.0815         estimate D2E/DX2                !
 ! R26   R(22,23)                1.3632         estimate D2E/DX2                !
 ! R27   R(22,28)                1.2248         estimate D2E/DX2                !
 ! R28   R(23,24)                1.3714         estimate D2E/DX2                !
 ! R29   R(23,27)                1.0075         estimate D2E/DX2                !
 ! R30   R(24,29)                1.2306         estimate D2E/DX2                !
 ! A1    A(2,1,9)              103.5033         estimate D2E/DX2                !
 ! A2    A(2,1,10)             113.412          estimate D2E/DX2                !
 ! A3    A(2,1,11)             107.2717         estimate D2E/DX2                !
 ! A4    A(9,1,10)             114.9042         estimate D2E/DX2                !
 ! A5    A(9,1,11)             110.419          estimate D2E/DX2                !
 ! A6    A(10,1,11)            107.1173         estimate D2E/DX2                !
 ! A7    A(1,2,3)              100.7903         estimate D2E/DX2                !
 ! A8    A(1,2,4)              111.4054         estimate D2E/DX2                !
 ! A9    A(1,2,5)              111.1819         estimate D2E/DX2                !
 ! A10   A(3,2,4)              112.69           estimate D2E/DX2                !
 ! A11   A(3,2,5)              112.3977         estimate D2E/DX2                !
 ! A12   A(4,2,5)              108.2977         estimate D2E/DX2                !
 ! A13   A(2,3,6)              107.4789         estimate D2E/DX2                !
 ! A14   A(2,3,7)              109.3273         estimate D2E/DX2                !
 ! A15   A(2,3,8)              115.3399         estimate D2E/DX2                !
 ! A16   A(6,3,7)              106.2437         estimate D2E/DX2                !
 ! A17   A(6,3,8)              109.7076         estimate D2E/DX2                !
 ! A18   A(7,3,8)              108.3687         estimate D2E/DX2                !
 ! A19   A(2,4,18)             104.9818         estimate D2E/DX2                !
 ! A20   A(3,6,9)              108.07           estimate D2E/DX2                !
 ! A21   A(3,8,20)             118.9353         estimate D2E/DX2                !
 ! A22   A(3,8,24)             119.7131         estimate D2E/DX2                !
 ! A23   A(20,8,24)            121.3267         estimate D2E/DX2                !
 ! A24   A(1,9,6)              107.344          estimate D2E/DX2                !
 ! A25   A(1,9,12)             113.6856         estimate D2E/DX2                !
 ! A26   A(1,9,13)             111.3194         estimate D2E/DX2                !
 ! A27   A(6,9,12)             109.32           estimate D2E/DX2                !
 ! A28   A(6,9,13)             106.2588         estimate D2E/DX2                !
 ! A29   A(12,9,13)            108.6327         estimate D2E/DX2                !
 ! A30   A(1,11,17)            106.9918         estimate D2E/DX2                !
 ! A31   A(9,12,14)            112.2295         estimate D2E/DX2                !
 ! A32   A(9,12,15)            109.6041         estimate D2E/DX2                !
 ! A33   A(9,12,16)            111.205          estimate D2E/DX2                !
 ! A34   A(14,12,15)           106.958          estimate D2E/DX2                !
 ! A35   A(14,12,16)           108.2415         estimate D2E/DX2                !
 ! A36   A(15,12,16)           108.4428         estimate D2E/DX2                !
 ! A37   A(12,14,19)           106.9187         estimate D2E/DX2                !
 ! A38   A(8,20,21)            122.2272         estimate D2E/DX2                !
 ! A39   A(8,20,25)            117.5086         estimate D2E/DX2                !
 ! A40   A(21,20,25)           120.2641         estimate D2E/DX2                !
 ! A41   A(20,21,22)           118.8475         estimate D2E/DX2                !
 ! A42   A(20,21,26)           123.4034         estimate D2E/DX2                !
 ! A43   A(22,21,26)           117.7489         estimate D2E/DX2                !
 ! A44   A(21,22,23)           115.6524         estimate D2E/DX2                !
 ! A45   A(21,22,28)           121.1516         estimate D2E/DX2                !
 ! A46   A(23,22,28)           123.1959         estimate D2E/DX2                !
 ! A47   A(22,23,24)           126.1813         estimate D2E/DX2                !
 ! A48   A(22,23,27)           117.0525         estimate D2E/DX2                !
 ! A49   A(24,23,27)           116.7662         estimate D2E/DX2                !
 ! A50   A(8,24,23)            115.7524         estimate D2E/DX2                !
 ! A51   A(8,24,29)            124.7607         estimate D2E/DX2                !
 ! A52   A(23,24,29)           119.4867         estimate D2E/DX2                !
 ! D1    D(9,1,2,3)            -33.8985         estimate D2E/DX2                !
 ! D2    D(9,1,2,4)           -153.6668         estimate D2E/DX2                !
 ! D3    D(9,1,2,5)             85.4322         estimate D2E/DX2                !
 ! D4    D(10,1,2,3)          -159.0615         estimate D2E/DX2                !
 ! D5    D(10,1,2,4)            81.1703         estimate D2E/DX2                !
 ! D6    D(10,1,2,5)           -39.7307         estimate D2E/DX2                !
 ! D7    D(11,1,2,3)            82.8714         estimate D2E/DX2                !
 ! D8    D(11,1,2,4)           -36.8969         estimate D2E/DX2                !
 ! D9    D(11,1,2,5)          -157.7978         estimate D2E/DX2                !
 ! D10   D(2,1,9,6)             24.1281         estimate D2E/DX2                !
 ! D11   D(2,1,9,12)           -96.9017         estimate D2E/DX2                !
 ! D12   D(2,1,9,13)           140.0245         estimate D2E/DX2                !
 ! D13   D(10,1,9,6)           148.3237         estimate D2E/DX2                !
 ! D14   D(10,1,9,12)           27.2939         estimate D2E/DX2                !
 ! D15   D(10,1,9,13)          -95.7799         estimate D2E/DX2                !
 ! D16   D(11,1,9,6)           -90.4046         estimate D2E/DX2                !
 ! D17   D(11,1,9,12)          148.5655         estimate D2E/DX2                !
 ! D18   D(11,1,9,13)           25.4917         estimate D2E/DX2                !
 ! D19   D(2,1,11,17)          176.6125         estimate D2E/DX2                !
 ! D20   D(9,1,11,17)          -71.2599         estimate D2E/DX2                !
 ! D21   D(10,1,11,17)          54.5297         estimate D2E/DX2                !
 ! D22   D(1,2,3,6)             33.6569         estimate D2E/DX2                !
 ! D23   D(1,2,3,7)            -81.2549         estimate D2E/DX2                !
 ! D24   D(1,2,3,8)            156.361          estimate D2E/DX2                !
 ! D25   D(4,2,3,6)            152.4982         estimate D2E/DX2                !
 ! D26   D(4,2,3,7)             37.5864         estimate D2E/DX2                !
 ! D27   D(4,2,3,8)            -84.7977         estimate D2E/DX2                !
 ! D28   D(5,2,3,6)            -84.7931         estimate D2E/DX2                !
 ! D29   D(5,2,3,7)            160.2951         estimate D2E/DX2                !
 ! D30   D(5,2,3,8)             37.911          estimate D2E/DX2                !
 ! D31   D(1,2,4,18)            27.0631         estimate D2E/DX2                !
 ! D32   D(3,2,4,18)           -85.3854         estimate D2E/DX2                !
 ! D33   D(5,2,4,18)           149.6376         estimate D2E/DX2                !
 ! D34   D(2,3,6,9)            -19.5172         estimate D2E/DX2                !
 ! D35   D(7,3,6,9)             97.4294         estimate D2E/DX2                !
 ! D36   D(8,3,6,9)           -145.633          estimate D2E/DX2                !
 ! D37   D(2,3,8,20)           113.2514         estimate D2E/DX2                !
 ! D38   D(2,3,8,24)           -64.9578         estimate D2E/DX2                !
 ! D39   D(6,3,8,20)          -125.2395         estimate D2E/DX2                !
 ! D40   D(6,3,8,24)            56.5514         estimate D2E/DX2                !
 ! D41   D(7,3,8,20)            -9.6436         estimate D2E/DX2                !
 ! D42   D(7,3,8,24)           172.1473         estimate D2E/DX2                !
 ! D43   D(3,6,9,1)             -2.9992         estimate D2E/DX2                !
 ! D44   D(3,6,9,12)           120.743          estimate D2E/DX2                !
 ! D45   D(3,6,9,13)          -122.1975         estimate D2E/DX2                !
 ! D46   D(3,8,20,21)         -179.269          estimate D2E/DX2                !
 ! D47   D(3,8,20,25)            0.5749         estimate D2E/DX2                !
 ! D48   D(24,8,20,21)          -1.0899         estimate D2E/DX2                !
 ! D49   D(24,8,20,25)         178.7541         estimate D2E/DX2                !
 ! D50   D(3,8,24,23)          179.3882         estimate D2E/DX2                !
 ! D51   D(3,8,24,29)           -0.437          estimate D2E/DX2                !
 ! D52   D(20,8,24,23)           1.223          estimate D2E/DX2                !
 ! D53   D(20,8,24,29)        -178.6022         estimate D2E/DX2                !
 ! D54   D(1,9,12,14)           44.0903         estimate D2E/DX2                !
 ! D55   D(1,9,12,15)          -74.5977         estimate D2E/DX2                !
 ! D56   D(1,9,12,16)          165.5083         estimate D2E/DX2                !
 ! D57   D(6,9,12,14)          -75.8268         estimate D2E/DX2                !
 ! D58   D(6,9,12,15)          165.4852         estimate D2E/DX2                !
 ! D59   D(6,9,12,16)           45.5912         estimate D2E/DX2                !
 ! D60   D(13,9,12,14)         168.623          estimate D2E/DX2                !
 ! D61   D(13,9,12,15)          49.9349         estimate D2E/DX2                !
 ! D62   D(13,9,12,16)         -69.9591         estimate D2E/DX2                !
 ! D63   D(9,12,14,19)          71.537          estimate D2E/DX2                !
 ! D64   D(15,12,14,19)       -168.2274         estimate D2E/DX2                !
 ! D65   D(16,12,14,19)        -51.5645         estimate D2E/DX2                !
 ! D66   D(8,20,21,22)           0.1215         estimate D2E/DX2                !
 ! D67   D(8,20,21,26)         179.976          estimate D2E/DX2                !
 ! D68   D(25,20,21,22)       -179.7182         estimate D2E/DX2                !
 ! D69   D(25,20,21,26)          0.1362         estimate D2E/DX2                !
 ! D70   D(20,21,22,23)          0.6066         estimate D2E/DX2                !
 ! D71   D(20,21,22,28)       -179.5014         estimate D2E/DX2                !
 ! D72   D(26,21,22,23)       -179.256          estimate D2E/DX2                !
 ! D73   D(26,21,22,28)          0.6359         estimate D2E/DX2                !
 ! D74   D(21,22,23,24)         -0.4333         estimate D2E/DX2                !
 ! D75   D(21,22,23,27)        179.5087         estimate D2E/DX2                !
 ! D76   D(28,22,23,24)        179.6772         estimate D2E/DX2                !
 ! D77   D(28,22,23,27)         -0.3809         estimate D2E/DX2                !
 ! D78   D(22,23,24,8)          -0.46           estimate D2E/DX2                !
 ! D79   D(22,23,24,29)        179.375          estimate D2E/DX2                !
 ! D80   D(27,23,24,8)         179.5979         estimate D2E/DX2                !
 ! D81   D(27,23,24,29)         -0.567          estimate D2E/DX2                !
 --------------------------------------------------------------------------------
 Trust Radius=3.00D-01 FncErr=1.00D-07 GrdErr=1.00D-06 EigMax=2.50D+02 EigMin=1.00D-04
 Number of steps in this run=    173 maximum allowed number of steps=    174.
 GradGradGradGradGradGradGradGradGradGradGradGradGradGradGradGradGradGrad

                          Input orientation:                          
 ---------------------------------------------------------------------
 Center     Atomic      Atomic             Coordinates (Angstroms)
 Number     Number       Type             X           Y           Z
 ---------------------------------------------------------------------
      1          6           0       -3.792275   -1.751878    0.388085
      2          6           0       -2.324588   -1.961698    0.729701
      3          6           0       -1.686068   -0.779308   -0.008836
      4          8           0       -1.853997   -3.227283    0.256308
      5          1           0       -2.160008   -1.916362    1.809130
      6          8           0       -2.619068    0.313388    0.037439
      7          1           0       -1.565656   -1.035730   -1.069933
      8          7           0       -0.388479   -0.342955    0.510542
      9          6           0       -3.930741   -0.227894    0.326325
     10          1           0       -4.475537   -2.248669    1.082860
     11          8           0       -4.016285   -2.331713   -0.916369
     12          6           0       -4.461986    0.394713    1.621178
     13          1           0       -4.578907    0.080018   -0.501840
     14          8           0       -3.841817   -0.154605    2.775745
     15          1           0       -5.534759    0.197101    1.710486
     16          1           0       -4.307364    1.478545    1.631969
     17          1           0       -4.968563   -2.243699   -1.107677
     18          1           0       -2.422761   -3.437086   -0.514290
     19          1           0       -2.916298    0.185069    2.793400
     20          6           0        0.737448   -0.510279   -0.275241
     21          6           0        1.953884   -0.149532    0.138262
     22          6           0        2.101600    0.443017    1.474751
     23          7           0        0.951971    0.562863    2.197527
     24          6           0       -0.303731    0.193218    1.788514
     25          1           0        0.602419   -0.954837   -1.257464
     26          1           0        2.846616   -0.271888   -0.459763
     27          1           0        1.030132    0.959659    3.120338
     28          8           0        3.196807    0.797498    1.893158
     29          8           0       -1.258440    0.347106    2.549543
 ---------------------------------------------------------------------
                    Distance matrix (angstroms):
                    1          2          3          4          5
     1  C    0.000000
     2  C    1.521458   0.000000
     3  C    2.353624   1.533359   0.000000
     4  O    2.439490   1.430826   2.468012   0.000000
     5  H    2.170419   1.092844   2.196021   2.055095   0.000000
     6  O    2.400977   2.396239   1.437573   3.628993   2.884685
     7  H    2.756178   2.161499   1.098262   2.577782   3.068839
     8  N    3.685904   2.533156   1.464205   3.245263   2.701899
     9  C    1.531507   2.397606   2.335583   3.648850   2.860966
    10  H    1.093784   2.198558   3.336460   2.917765   2.449402
    11  O    1.444987   2.389205   2.943381   2.617768   3.323646
    12  C    2.564543   3.303918   3.426513   4.667262   3.267338
    13  H    2.183254   3.281349   3.057779   4.351800   3.895791
    14  O    2.873092   3.123119   3.576507   4.443012   2.620423
    15  H    2.929763   3.990933   4.326877   5.233455   3.983139
    16  H    3.499742   4.071948   3.829012   5.482360   4.020935
    17  H    1.965412   3.232041   3.758546   3.539550   4.062375
    18  H    2.351548   1.932336   2.803923   0.980475   2.789251
    19  H    3.210084   3.036046   3.208740   4.382860   2.440650
    20  C    4.743413   3.534486   2.452912   3.792129   3.836265
    21  C    5.970617   4.683916   3.696959   4.897596   4.778870
    22  C    6.382489   5.092041   4.247532   5.531948   4.882600
    23  N    5.580321   4.389050   3.691708   5.099706   3.997727
    24  C    4.232557   3.138249   2.467210   4.055959   2.810074
    25  H    4.759878   3.678309   2.612863   3.672804   4.237868
    26  H    6.854494   5.568809   4.583234   5.598471   5.737461
    27  H    6.170353   5.050110   4.493715   5.835353   4.490852
    28  O    7.590246   6.281130   5.472327   6.662489   6.005628
    29  O    3.936744   3.127150   2.827892   4.288342   2.546433
                    6          7          8          9         10
     6  O    0.000000
     7  H    2.038644   0.000000
     8  N    2.372792   2.088920   0.000000
     9  C    1.448077   2.862824   3.548915   0.000000
    10  H    3.332195   3.817480   4.545695   2.225462   0.000000
    11  O    3.139829   2.776462   4.376325   2.444925   2.052979
    12  C    2.431294   4.204399   4.286156   1.531831   2.697673
    13  H    2.046034   3.263021   4.331688   1.095804   2.818642
    14  O    3.035203   4.554837   4.134268   2.452130   2.766328
    15  H    3.363609   5.000438   5.311848   2.160879   2.738185
    16  H    2.598165   4.597697   4.464653   2.181395   3.771197
    17  H    3.656516   3.611148   5.216190   2.682705   2.245340
    18  H    3.795918   2.609575   3.842166   3.644112   2.859566
    19  H    2.774911   4.270822   3.446755   2.699276   3.358609
    20  C    3.470216   2.492373   1.383172   4.715253   5.660535
    21  C    4.597429   3.825211   2.379636   5.888150   6.829063
    22  C    4.936332   4.702220   2.783512   6.177227   7.117407
    23  N    4.180974   4.423827   2.337355   5.288437   6.213296
    24  C    2.905424   3.357601   1.388479   3.933260   4.885154
    25  H    3.696369   2.177673   2.117102   4.856579   5.739055
    26  H    5.519372   4.519282   3.378222   6.822935   7.739592
    27  H    4.820643   5.317712   3.243500   5.816103   6.690073
    28  O    6.123925   5.900990   4.008308   7.369419   8.294612
    29  O    2.857116   3.886801   2.321754   3.523424   4.386220
                   11         12         13         14         15
    11  O    0.000000
    12  C    3.751158   0.000000
    13  H    2.510941   2.149397   0.000000
    14  O    4.289749   1.421051   3.367628   0.000000
    15  H    3.949814   1.094471   2.412830   2.030892   0.000000
    16  H    4.593127   1.094859   2.565688   2.047471   1.776165
    17  H    0.975283   3.829423   2.432803   4.551356   3.770958
    18  H    1.980615   4.837494   4.125426   4.859294   5.276502
    19  H    4.615901   1.951207   3.692413   0.986040   2.833581
    20  C    5.130950   5.607989   5.353824   5.514046   6.616954
    21  C    6.443375   6.607468   6.568088   6.367613   7.659753
    22  C    7.130575   6.565397   6.976235   6.113423   7.643953
    23  N    6.538998   5.447145   6.173357   4.881547   6.515263
    24  C    5.241634   4.166496   4.851357   3.689670   5.231611
    25  H    4.831621   5.979637   5.337418   6.054616   6.913800
    26  H    7.179887   7.628260   7.433977   7.430842   8.670489
    27  H    7.252204   5.721015   6.734632   5.009613   6.757734
    28  O    8.349497   7.674199   8.167774   7.157352   8.754089
    29  O    5.176324   3.335691   4.517497   2.641348   4.360438
                   16         17         18         19         20
    16  H    0.000000
    17  H    4.668827   0.000000
    18  H    5.685208   2.873567   0.000000
    19  H    2.226447   5.032802   4.929949   0.000000
    20  C    5.748304   6.021317   4.313962   4.821818   0.000000
    21  C    6.639655   7.338812   5.512609   5.557012   1.334481
    22  C    6.493986   7.992157   6.283417   5.194677   2.414985
    23  N    5.368327   7.338521   5.894266   3.932085   2.704115
    24  C    4.207808   6.007257   4.792943   2.799173   2.416205
    25  H    6.194847   5.720090   3.983162   5.485457   1.086566
    26  H    7.656291   8.086090   6.147177   6.633480   2.130603
    27  H    5.565371   8.007618   6.668160   4.034996   3.711649
    28  O    7.539538   9.215593   7.436871   6.209312   3.529969
    29  O    3.379058   5.818293   5.006279   1.683513   3.563437
                   21         22         23         24         25
    21  C    0.000000
    22  C    1.469400   0.000000
    23  N    2.398314   1.363237   0.000000
    24  C    2.817381   2.438537   1.371392   0.000000
    25  H    2.103099   3.415631   3.789797   3.378922   0.000000
    26  H    1.081470   2.192826   3.368633   3.898174   2.477734
    27  H    3.313065   2.030497   1.007539   2.034792   4.797226
    28  O    2.349762   1.224827   2.277495   3.553853   4.441615
    29  O    4.047215   3.529057   2.248640   1.230576   4.432962
                   26         27         28         29
    26  H    0.000000
    27  H    4.199220   0.000000
    28  O    2.608152   2.495345   0.000000
    29  O    5.127433   2.436923   4.525806   0.000000
 Stoichiometry    C9H12N2O6
 Framework group  C1[X(C9H12N2O6)]
 Deg. of freedom    81
 Full point group                 C1      NOp   1
 Largest Abelian subgroup         C1      NOp   1
 Largest concise Abelian subgroup C1      NOp   1
                         Standard orientation:                         
 ---------------------------------------------------------------------
 Center     Atomic      Atomic             Coordinates (Angstroms)
 Number     Number       Type             X           Y           Z
 ---------------------------------------------------------------------
      1          6           0       -2.683241   -0.494812    0.300026
      2          6           0       -1.286050   -0.785539    0.827443
      3          6           0       -0.472859   -0.736390   -0.471594
      4          8           0       -1.225299   -2.063216    1.468626
      5          1           0       -0.969195   -0.025612    1.546067
      6          8           0       -1.078859    0.250532   -1.323276
      7          1           0       -0.568686   -1.696080   -0.996943
      8          7           0        0.951702   -0.439979   -0.308309
      9          6           0       -2.433178    0.472091   -0.861042
     10          1           0       -3.369332   -0.125276    1.067545
     11          8           0       -3.224894   -1.741614   -0.189958
     12          6           0       -2.604483    1.946344   -0.481917
     13          1           0       -3.087697    0.250997   -1.711635
     14          8           0       -1.994008    2.255608    0.763500
     15          1           0       -3.669371    2.178419   -0.381806
     16          1           0       -2.176993    2.603947   -1.245807
     17          1           0       -4.139625   -1.561902   -0.476574
     18          1           0       -1.928795   -2.595345    1.040533
     19          1           0       -1.018920    2.231536    0.618931
     20          6           0        1.878482   -1.420457   -0.613115
     21          6           0        3.191506   -1.226210   -0.475004
     22          6           0        3.667808    0.072660    0.020184
     23          7           0        2.697545    0.984011    0.314199
     24          6           0        1.345283    0.798072    0.181791
     25          1           0        1.500779   -2.373573   -0.973026
     26          1           0        3.932407   -1.979048   -0.707118
     27          1           0        3.000450    1.879495    0.662755
     28          8           0        4.863906    0.299663    0.154419
     29          8           0        0.575486    1.705235    0.496091
 ---------------------------------------------------------------------
 Rotational constants (GHZ):           0.9296373           0.3173326           0.2675127
 Standard basis: Aug-CC-pVDZ (5D, 7F)
 There are   533 symmetry adapted cartesian basis functions of A   symmetry.
 There are   499 symmetry adapted basis functions of A   symmetry.
   499 basis functions,   863 primitive gaussians,   533 cartesian basis functions
    64 alpha electrons       64 beta electrons
       nuclear repulsion energy      1338.4584308573 Hartrees.
 NAtoms=   29 NActive=   29 NUniq=   29 SFac= 1.00D+00 NAtFMM=   60 NAOKFM=F Big=F
 Integral buffers will be    131072 words long.
 Raffenetti 2 integral format.
 Two-electron integral symmetry is turned on.
 Nuclear repulsion after empirical dispersion term =     1338.4378875897 Hartrees.
 One-electron integrals computed using PRISM.
 NBasis=   499 RedAO= T EigKep=  2.66D-06  NBF=   499
 NBsUse=   499 1.00D-06 EigRej= -1.00D+00 NBFU=   499
 ExpMin= 2.97D-02 ExpMax= 1.17D+04 ExpMxC= 4.01D+02 IAcc=3 IRadAn=         5 AccDes= 0.00D+00
 Harris functional with IExCor= 1009 and IRadAn=       5 diagonalized for initial guess.
 HarFok:  IExCor= 1009 AccDes= 0.00D+00 IRadAn=         5 IDoV= 1 UseB2=F ITyADJ=14
 ICtDFT=  3500011 ScaDFX=  1.000000  1.000000  1.000000  1.000000
 FoFCou: FMM=F IPFlag=           0 FMFlag=      100000 FMFlg1=           0
         NFxFlg=           0 DoJE=T BraDBF=F KetDBF=T FulRan=T
         wScrn=  0.000000 ICntrl=       500 IOpCl=  0 I1Cent=   200000004 NGrid=           0
         NMat0=    1 NMatS0=      1 NMatT0=    0 NMatD0=    1 NMtDS0=    0 NMtDT0=    0
 Petite list used in FoFCou.
 Requested convergence on RMS density matrix=1.00D-08 within 128 cycles.
 Requested convergence on MAX density matrix=1.00D-06.
 Requested convergence on             energy=1.00D-06.
 No special actions if energy rises.
 SCF Done:  E(RPBE1PBE) =  -910.209795120     A.U. after   14 cycles
            NFock= 14  Conv=0.42D-08     -V/T= 2.0055

 **********************************************************************

            Population analysis using the SCF Density.

 **********************************************************************

 Orbital symmetries:
       Occupied  (A) (A) (A) (A) (A) (A) (A) (A) (A) (A) (A) (A)
                 (A) (A) (A) (A) (A) (A) (A) (A) (A) (A) (A) (A)
                 (A) (A) (A) (A) (A) (A) (A) (A) (A) (A) (A) (A)
                 (A) (A) (A) (A) (A) (A) (A) (A) (A) (A) (A) (A)
                 (A) (A) (A) (A) (A) (A) (A) (A) (A) (A) (A) (A)
                 (A) (A) (A) (A)
       Virtual   (A) (A) (A) (A) (A) (A) (A) (A) (A) (A) (A) (A)
                 (A) (A) (A) (A) (A) (A) (A) (A) (A) (A) (A) (A)
                 (A) (A) (A) (A) (A) (A) (A) (A) (A) (A) (A) (A)
                 (A) (A) (A) (A) (A) (A) (A) (A) (A) (A) (A) (A)
                 (A) (A) (A) (A) (A) (A) (A) (A) (A) (A) (A) (A)
                 (A) (A) (A) (A) (A) (A) (A) (A) (A) (A) (A) (A)
                 (A) (A) (A) (A) (A) (A) (A) (A) (A) (A) (A) (A)
                 (A) (A) (A) (A) (A) (A) (A) (A) (A) (A) (A) (A)
                 (A) (A) (A) (A) (A) (A) (A) (A) (A) (A) (A) (A)
                 (A) (A) (A) (A) (A) (A) (A) (A) (A) (A) (A) (A)
                 (A) (A) (A) (A) (A) (A) (A) (A) (A) (A) (A) (A)
                 (A) (A) (A) (A) (A) (A) (A) (A) (A) (A) (A) (A)
                 (A) (A) (A) (A) (A) (A) (A) (A) (A) (A) (A) (A)
                 (A) (A) (A) (A) (A) (A) (A) (A) (A) (A) (A) (A)
                 (A) (A) (A) (A) (A) (A) (A) (A) (A) (A) (A) (A)
                 (A) (A) (A) (A) (A) (A) (A) (A) (A) (A) (A) (A)
                 (A) (A) (A) (A) (A) (A) (A) (A) (A) (A) (A) (A)
                 (A) (A) (A) (A) (A) (A) (A) (A) (A) (A) (A) (A)
                 (A) (A) (A) (A) (A) (A) (A) (A) (A) (A) (A) (A)
                 (A) (A) (A) (A) (A) (A) (A) (A) (A) (A) (A) (A)
                 (A) (A) (A) (A) (A) (A) (A) (A) (A) (A) (A) (A)
                 (A) (A) (A) (A) (A) (A) (A) (A) (A) (A) (A) (A)
                 (A) (A) (A) (A) (A) (A) (A) (A) (A) (A) (A) (A)
                 (A) (A) (A) (A) (A) (A) (A) (A) (A) (A) (A) (A)
                 (A) (A) (A) (A) (A) (A) (A) (A) (A) (A) (A) (A)
                 (A) (A) (A) (A) (A) (A) (A) (A) (A) (A) (A) (A)
                 (A) (A) (A) (A) (A) (A) (A) (A) (A) (A) (A) (A)
                 (A) (A) (A) (A) (A) (A) (A) (A) (A) (A) (A) (A)
                 (A) (A) (A) (A) (A) (A) (A) (A) (A) (A) (A) (A)
                 (A) (A) (A) (A) (A) (A) (A) (A) (A) (A) (A) (A)
                 (A) (A) (A) (A) (A) (A) (A) (A) (A) (A) (A) (A)
                 (A) (A) (A) (A) (A) (A) (A) (A) (A) (A) (A) (A)
                 (A) (A) (A) (A) (A) (A) (A) (A) (A) (A) (A) (A)
                 (A) (A) (A) (A) (A) (A) (A) (A) (A) (A) (A) (A)
                 (A) (A) (A) (A) (A) (A) (A) (A) (A) (A) (A) (A)
                 (A) (A) (A) (A) (A) (A) (A) (A) (A) (A) (A) (A)
                 (A) (A) (A)
 The electronic state is 1-A.
 Alpha  occ. eigenvalues --  -19.26539 -19.25637 -19.24206 -19.23243 -19.20793
 Alpha  occ. eigenvalues --  -19.20670 -14.49350 -14.47385 -10.41215 -10.36051
 Alpha  occ. eigenvalues --  -10.35260 -10.32207 -10.31269 -10.30789 -10.30274
 Alpha  occ. eigenvalues --  -10.28078 -10.26145  -1.14073  -1.11153  -1.08936
 Alpha  occ. eigenvalues --   -1.08450  -1.06049  -1.04155  -1.02803  -0.98667
 Alpha  occ. eigenvalues --   -0.84670  -0.82044  -0.79975  -0.74012  -0.71681
 Alpha  occ. eigenvalues --   -0.69118  -0.65284  -0.63141  -0.62276  -0.59167
 Alpha  occ. eigenvalues --   -0.57930  -0.55789  -0.54469  -0.54155  -0.52356
 Alpha  occ. eigenvalues --   -0.50338  -0.49777  -0.49017  -0.48194  -0.47450
 Alpha  occ. eigenvalues --   -0.46285  -0.44548  -0.44398  -0.44104  -0.42894
 Alpha  occ. eigenvalues --   -0.41867  -0.40739  -0.40179  -0.38857  -0.36642
 Alpha  occ. eigenvalues --   -0.35025  -0.33850  -0.32736  -0.32244  -0.31550
 Alpha  occ. eigenvalues --   -0.30284  -0.28954  -0.27491  -0.26864
 Alpha virt. eigenvalues --   -0.05106  -0.02175  -0.01894  -0.00482   0.00321
 Alpha virt. eigenvalues --    0.00448   0.01862   0.02310   0.02973   0.03233
 Alpha virt. eigenvalues --    0.03656   0.04440   0.04756   0.04953   0.06051
 Alpha virt. eigenvalues --    0.06297   0.06886   0.07176   0.07573   0.07821
 Alpha virt. eigenvalues --    0.08113   0.08476   0.08885   0.09072   0.09678
 Alpha virt. eigenvalues --    0.09751   0.09953   0.10386   0.10663   0.10907
 Alpha virt. eigenvalues --    0.11467   0.11742   0.11903   0.12259   0.12593
 Alpha virt. eigenvalues --    0.12724   0.13282   0.13382   0.13713   0.14290
 Alpha virt. eigenvalues --    0.14511   0.14628   0.15108   0.15730   0.15935
 Alpha virt. eigenvalues --    0.16524   0.16840   0.17266   0.17688   0.17925
 Alpha virt. eigenvalues --    0.18185   0.19037   0.19482   0.19597   0.20320
 Alpha virt. eigenvalues --    0.21093   0.21475   0.21602   0.21955   0.22211
 Alpha virt. eigenvalues --    0.22770   0.23093   0.23340   0.23588   0.23923
 Alpha virt. eigenvalues --    0.24081   0.24488   0.24932   0.25096   0.25839
 Alpha virt. eigenvalues --    0.25994   0.26383   0.26828   0.27064   0.27350
 Alpha virt. eigenvalues --    0.27431   0.27961   0.28115   0.28598   0.28991
 Alpha virt. eigenvalues --    0.29253   0.29439   0.29959   0.30258   0.30597
 Alpha virt. eigenvalues --    0.31046   0.31251   0.31577   0.32020   0.32557
 Alpha virt. eigenvalues --    0.32626   0.33404   0.33888   0.34122   0.34321
 Alpha virt. eigenvalues --    0.34653   0.34728   0.35292   0.35548   0.36170
 Alpha virt. eigenvalues --    0.36977   0.37245   0.37750   0.38544   0.38960
 Alpha virt. eigenvalues --    0.39119   0.39578   0.40649   0.41004   0.41194
 Alpha virt. eigenvalues --    0.41396   0.41556   0.42864   0.42982   0.43172
 Alpha virt. eigenvalues --    0.44239   0.44455   0.45091   0.45347   0.46206
 Alpha virt. eigenvalues --    0.46404   0.46823   0.47322   0.48159   0.48757
 Alpha virt. eigenvalues --    0.49560   0.50075   0.50506   0.50852   0.51421
 Alpha virt. eigenvalues --    0.52131   0.52353   0.53241   0.53817   0.54424
 Alpha virt. eigenvalues --    0.54761   0.55237   0.55476   0.56234   0.56411
 Alpha virt. eigenvalues --    0.56928   0.57930   0.58941   0.59467   0.59922
 Alpha virt. eigenvalues --    0.60080   0.60946   0.61402   0.61741   0.61870
 Alpha virt. eigenvalues --    0.62608   0.63129   0.63310   0.63540   0.64384
 Alpha virt. eigenvalues --    0.64646   0.65450   0.65823   0.66180   0.66964
 Alpha virt. eigenvalues --    0.67114   0.67523   0.68191   0.68478   0.69051
 Alpha virt. eigenvalues --    0.69306   0.70070   0.70202   0.71157   0.71665
 Alpha virt. eigenvalues --    0.72234   0.72970   0.73676   0.73908   0.74317
 Alpha virt. eigenvalues --    0.75108   0.75476   0.76101   0.76757   0.77030
 Alpha virt. eigenvalues --    0.77617   0.78676   0.79082   0.79699   0.80203
 Alpha virt. eigenvalues --    0.80764   0.81439   0.82385   0.83566   0.83685
 Alpha virt. eigenvalues --    0.84343   0.85111   0.85754   0.86973   0.87320
 Alpha virt. eigenvalues --    0.87844   0.88019   0.89540   0.90589   0.90947
 Alpha virt. eigenvalues --    0.92036   0.92956   0.93386   0.94318   0.95246
 Alpha virt. eigenvalues --    0.96030   0.96614   0.96873   0.97480   1.00094
 Alpha virt. eigenvalues --    1.00536   1.01467   1.01836   1.03343   1.03584
 Alpha virt. eigenvalues --    1.04613   1.05256   1.06105   1.06615   1.07652
 Alpha virt. eigenvalues --    1.08517   1.09046   1.10318   1.10763   1.11668
 Alpha virt. eigenvalues --    1.12723   1.13248   1.13903   1.14924   1.15793
 Alpha virt. eigenvalues --    1.16897   1.17385   1.18268   1.19469   1.20039
 Alpha virt. eigenvalues --    1.21802   1.23026   1.23656   1.24224   1.25110
 Alpha virt. eigenvalues --    1.26067   1.26953   1.28359   1.29404   1.29922
 Alpha virt. eigenvalues --    1.31010   1.31879   1.32581   1.34020   1.35367
 Alpha virt. eigenvalues --    1.36315   1.36931   1.38424   1.39483   1.39810
 Alpha virt. eigenvalues --    1.40729   1.41676   1.42143   1.43928   1.44063
 Alpha virt. eigenvalues --    1.44691   1.46967   1.47606   1.47891   1.48672
 Alpha virt. eigenvalues --    1.50057   1.51027   1.51772   1.53262   1.53747
 Alpha virt. eigenvalues --    1.54430   1.54828   1.56098   1.56234   1.56950
 Alpha virt. eigenvalues --    1.60098   1.60782   1.61594   1.62545   1.63105
 Alpha virt. eigenvalues --    1.63921   1.64337   1.65838   1.66598   1.66894
 Alpha virt. eigenvalues --    1.68117   1.69584   1.70802   1.71539   1.72248
 Alpha virt. eigenvalues --    1.73497   1.74208   1.74567   1.76189   1.77328
 Alpha virt. eigenvalues --    1.78064   1.78278   1.79029   1.79806   1.81301
 Alpha virt. eigenvalues --    1.81773   1.83222   1.84773   1.85864   1.86325
 Alpha virt. eigenvalues --    1.86421   1.86867   1.87701   1.89832   1.91230
 Alpha virt. eigenvalues --    1.92571   1.93539   1.94271   1.95447   1.96955
 Alpha virt. eigenvalues --    1.97955   1.98416   1.99465   1.99992   2.00756
 Alpha virt. eigenvalues --    2.01014   2.01955   2.03420   2.04304   2.05049
 Alpha virt. eigenvalues --    2.06604   2.08943   2.09666   2.10302   2.11167
 Alpha virt. eigenvalues --    2.12611   2.13024   2.15429   2.16203   2.18048
 Alpha virt. eigenvalues --    2.19671   2.20983   2.21655   2.23076   2.23456
 Alpha virt. eigenvalues --    2.24246   2.25775   2.26944   2.27725   2.27949
 Alpha virt. eigenvalues --    2.29491   2.31302   2.32626   2.34312   2.35671
 Alpha virt. eigenvalues --    2.36726   2.37520   2.39163   2.40439   2.41998
 Alpha virt. eigenvalues --    2.42976   2.44955   2.45966   2.48236   2.48368
 Alpha virt. eigenvalues --    2.50929   2.53933   2.54881   2.57092   2.57411
 Alpha virt. eigenvalues --    2.58793   2.60057   2.60515   2.61652   2.63000
 Alpha virt. eigenvalues --    2.64363   2.65500   2.66147   2.68482   2.70383
 Alpha virt. eigenvalues --    2.71461   2.71752   2.74257   2.77291   2.79373
 Alpha virt. eigenvalues --    2.80347   2.82546   2.85135   2.87966   2.89114
 Alpha virt. eigenvalues --    2.89930   2.93804   2.94785   2.97662   3.01991
 Alpha virt. eigenvalues --    3.05807   3.12598   3.14400   3.17403   3.21983
 Alpha virt. eigenvalues --    3.24478   3.29126   3.33436   3.37408   3.39243
 Alpha virt. eigenvalues --    3.39371   3.41091   3.43643   3.44916   3.46165
 Alpha virt. eigenvalues --    3.48377   3.49553   3.49627   3.51288   3.52791
 Alpha virt. eigenvalues --    3.53653   3.54391   3.56350   3.57085   3.57788
 Alpha virt. eigenvalues --    3.61416   3.62272   3.63778   3.64602   3.66183
 Alpha virt. eigenvalues --    3.68330   3.70720   3.74435   3.75242   3.81014
 Alpha virt. eigenvalues --    3.82605   3.84903   3.91940   3.95191   4.02823
 Alpha virt. eigenvalues --    4.09159   4.10545   4.23487   4.42412   4.62072
          Condensed to atoms (all electrons):
               1          2          3          4          5          6
     1  C    9.752284  -2.176318   0.088753   0.066834   0.191855   0.103604
     2  C   -2.176318   9.182224  -3.009209  -0.262553  -0.849444  -0.045271
     3  C    0.088753  -3.009209  14.315089   0.215234   0.157400  -0.411425
     4  O    0.066834  -0.262553   0.215234   8.562075  -0.142922  -0.011967
     5  H    0.191855  -0.849444   0.157400  -0.142922   2.258914   0.044993
     6  O    0.103604  -0.045271  -0.411425  -0.011967   0.044993   9.418251
     7  H   -0.094676   0.211408  -1.327772  -0.012150   0.112656  -0.091983
     8  N    0.232837   0.399554  -0.927955   0.004926  -0.188592   0.001491
     9  C   -1.818559   0.961186  -2.138437  -0.057785  -0.085531  -0.033196
    10  H   -1.276300   0.432386   0.173163   0.023751  -0.120475   0.000573
    11  O   -0.496667   0.035894   0.053415  -0.026543   0.029676   0.016187
    12  C   -0.108642   0.009472   0.129695  -0.015238   0.051782   0.030550
    13  H    0.042329   0.079164   0.356202   0.003720  -0.012442  -0.254783
    14  O   -0.019867  -0.034144  -0.076696   0.005263  -0.004348  -0.014276
    15  H    0.055356   0.015278   0.046009  -0.001755   0.013302   0.109710
    16  H    0.061082  -0.053764  -0.014091  -0.000149  -0.004584  -0.046038
    17  H    0.094311  -0.028964  -0.017377   0.003138   0.004287   0.003459
    18  H    0.041431  -0.207484   0.049024   0.335787   0.044159   0.010322
    19  H    0.008389  -0.021676   0.060028  -0.000448   0.016839   0.016178
    20  C   -0.056680   0.384608  -2.178866  -0.009351  -0.035193  -0.111147
    21  C   -0.026761  -0.082204   0.363452   0.011484  -0.011742  -0.012160
    22  C    0.030939   0.027335  -0.424395  -0.003608   0.001404  -0.007517
    23  N    0.010416   0.014702   0.085323  -0.002307  -0.003419  -0.029571
    24  C    0.084275  -0.093183  -1.131252   0.025965   0.030050   0.232061
    25  H   -0.020193   0.017513   0.360001  -0.002900  -0.001533   0.033709
    26  H    0.001657   0.001305   0.046305   0.000285  -0.001572  -0.000890
    27  H    0.002090  -0.008526   0.019602   0.000344  -0.002758   0.000880
    28  O   -0.001214   0.000825   0.011886  -0.000075   0.000796   0.000459
    29  O    0.026825  -0.010175   0.222694  -0.008302   0.067094  -0.041558
               7          8          9         10         11         12
     1  C   -0.094676   0.232837  -1.818559  -1.276300  -0.496667  -0.108642
     2  C    0.211408   0.399554   0.961186   0.432386   0.035894   0.009472
     3  C   -1.327772  -0.927955  -2.138437   0.173163   0.053415   0.129695
     4  O   -0.012150   0.004926  -0.057785   0.023751  -0.026543  -0.015238
     5  H    0.112656  -0.188592  -0.085531  -0.120475   0.029676   0.051782
     6  O   -0.091983   0.001491  -0.033196   0.000573   0.016187   0.030550
     7  H    2.781424  -0.238666   0.109135   0.001930   0.009544  -0.017624
     8  N   -0.238666   8.234178  -0.152163  -0.019187  -0.022607  -0.006238
     9  C    0.109135  -0.152163   9.570404   0.077659   0.194565  -0.167230
    10  H    0.001930  -0.019187   0.077659   2.276058  -0.046396  -0.081114
    11  O    0.009544  -0.022607   0.194565  -0.046396   8.680436  -0.016717
    12  C   -0.017624  -0.006238  -0.167230  -0.081114  -0.016717   4.968610
    13  H   -0.017730   0.013039  -0.939957   0.097189  -0.018560  -0.006765
    14  O    0.000644   0.018171   0.046491   0.035536   0.005395   0.095157
    15  H   -0.001830  -0.004168  -0.210106  -0.052954  -0.003489   0.234580
    16  H    0.004602   0.017903   0.057661   0.027522   0.001355  -0.014518
    17  H    0.002196   0.005878  -0.053652  -0.091643   0.365033  -0.003288
    18  H   -0.006512  -0.019275   0.002286  -0.006302   0.028600   0.004247
    19  H   -0.002119  -0.008402  -0.042448  -0.005810  -0.000862   0.005449
    20  C    0.397033   0.091014  -0.320374   0.011740  -0.013125  -0.023606
    21  C   -0.012414  -0.361962  -0.021284  -0.002721   0.001792   0.022037
    22  C    0.027105  -0.138602   0.002552   0.002288  -0.000445  -0.023508
    23  N    0.014914  -0.034256  -0.026864   0.000661  -0.000691  -0.007519
    24  C   -0.076293   0.074320   0.212415  -0.006798   0.007779  -0.145887
    25  H   -0.199143  -0.070637   0.014100   0.000975   0.000721   0.012254
    26  H   -0.005882   0.065873   0.000711   0.000129  -0.000050  -0.000609
    27  H   -0.000958   0.054649   0.002093   0.000248   0.000011  -0.003220
    28  O    0.000456  -0.001448   0.000408  -0.000094   0.000005   0.000585
    29  O    0.020755  -0.151916  -0.075626  -0.006310  -0.002039   0.040577
              13         14         15         16         17         18
     1  C    0.042329  -0.019867   0.055356   0.061082   0.094311   0.041431
     2  C    0.079164  -0.034144   0.015278  -0.053764  -0.028964  -0.207484
     3  C    0.356202  -0.076696   0.046009  -0.014091  -0.017377   0.049024
     4  O    0.003720   0.005263  -0.001755  -0.000149   0.003138   0.335787
     5  H   -0.012442  -0.004348   0.013302  -0.004584   0.004287   0.044159
     6  O   -0.254783  -0.014276   0.109710  -0.046038   0.003459   0.010322
     7  H   -0.017730   0.000644  -0.001830   0.004602   0.002196  -0.006512
     8  N    0.013039   0.018171  -0.004168   0.017903   0.005878  -0.019275
     9  C   -0.939957   0.046491  -0.210106   0.057661  -0.053652   0.002286
    10  H    0.097189   0.035536  -0.052954   0.027522  -0.091643  -0.006302
    11  O   -0.018560   0.005395  -0.003489   0.001355   0.365033   0.028600
    12  C   -0.006765   0.095157   0.234580  -0.014518  -0.003288   0.004247
    13  H    2.294693   0.029144  -0.155903   0.009565  -0.021404  -0.003158
    14  O    0.029144   8.476001  -0.184884  -0.070482  -0.000028  -0.001775
    15  H   -0.155903  -0.184884   1.925901  -0.428619   0.006347   0.000667
    16  H    0.009565  -0.070482  -0.428619   1.723101  -0.001567  -0.000240
    17  H   -0.021404  -0.000028   0.006347  -0.001567   0.579251  -0.002303
    18  H   -0.003158  -0.001775   0.000667  -0.000240  -0.002303   0.588970
    19  H    0.010535   0.192402   0.021974  -0.039091  -0.000136   0.000491
    20  C    0.013535   0.003387  -0.002380   0.011842   0.003293  -0.022686
    21  C   -0.001468  -0.001042   0.001840  -0.001956  -0.000604   0.000128
    22  C   -0.001029   0.000916  -0.002251   0.002994   0.000362  -0.000772
    23  N   -0.000770  -0.008225  -0.000937   0.002524   0.000101  -0.000957
    24  C   -0.014862   0.064810  -0.031469   0.047540   0.001113   0.005656
    25  H    0.005606  -0.000055   0.000615   0.000549  -0.000653   0.002855
    26  H    0.000070   0.000054  -0.000060  -0.000011   0.000005  -0.000055
    27  H   -0.000235   0.000727  -0.000183   0.000256   0.000007   0.000063
    28  O    0.000033   0.000010   0.000041   0.000032  -0.000005   0.000010
    29  O    0.002907  -0.061819   0.000968   0.016866   0.000570  -0.001158
              19         20         21         22         23         24
     1  C    0.008389  -0.056680  -0.026761   0.030939   0.010416   0.084275
     2  C   -0.021676   0.384608  -0.082204   0.027335   0.014702  -0.093183
     3  C    0.060028  -2.178866   0.363452  -0.424395   0.085323  -1.131252
     4  O   -0.000448  -0.009351   0.011484  -0.003608  -0.002307   0.025965
     5  H    0.016839  -0.035193  -0.011742   0.001404  -0.003419   0.030050
     6  O    0.016178  -0.111147  -0.012160  -0.007517  -0.029571   0.232061
     7  H   -0.002119   0.397033  -0.012414   0.027105   0.014914  -0.076293
     8  N   -0.008402   0.091014  -0.361962  -0.138602  -0.034256   0.074320
     9  C   -0.042448  -0.320374  -0.021284   0.002552  -0.026864   0.212415
    10  H   -0.005810   0.011740  -0.002721   0.002288   0.000661  -0.006798
    11  O   -0.000862  -0.013125   0.001792  -0.000445  -0.000691   0.007779
    12  C    0.005449  -0.023606   0.022037  -0.023508  -0.007519  -0.145887
    13  H    0.010535   0.013535  -0.001468  -0.001029  -0.000770  -0.014862
    14  O    0.192402   0.003387  -0.001042   0.000916  -0.008225   0.064810
    15  H    0.021974  -0.002380   0.001840  -0.002251  -0.000937  -0.031469
    16  H   -0.039091   0.011842  -0.001956   0.002994   0.002524   0.047540
    17  H   -0.000136   0.003293  -0.000604   0.000362   0.000101   0.001113
    18  H    0.000491  -0.022686   0.000128  -0.000772  -0.000957   0.005656
    19  H    0.532610  -0.016282   0.010114  -0.007042   0.001386  -0.032830
    20  C   -0.016282  10.521473  -2.269097   0.664355   0.218890  -1.484841
    21  C    0.010114  -2.269097   9.315805  -1.973221  -0.083578   0.855097
    22  C   -0.007042   0.664355  -1.973221   8.021608   0.356187  -0.816108
    23  N    0.001386   0.218890  -0.083578   0.356187   7.514913  -0.674802
    24  C   -0.032830  -1.484841   0.855097  -0.816108  -0.674802   8.183542
    25  H   -0.000117  -0.748054  -0.077242  -0.132912  -0.003374   0.025404
    26  H   -0.000027   0.539712  -0.916666   0.184158  -0.034556  -0.115777
    27  H   -0.001319  -0.008433   0.011352  -0.131181   0.457526  -0.350460
    28  O    0.000056  -0.010133  -0.027521   0.068374  -0.128398   0.117559
    29  O    0.019903  -0.084552   0.032831  -0.069525  -0.398216   0.294521
              25         26         27         28         29
     1  C   -0.020193   0.001657   0.002090  -0.001214   0.026825
     2  C    0.017513   0.001305  -0.008526   0.000825  -0.010175
     3  C    0.360001   0.046305   0.019602   0.011886   0.222694
     4  O   -0.002900   0.000285   0.000344  -0.000075  -0.008302
     5  H   -0.001533  -0.001572  -0.002758   0.000796   0.067094
     6  O    0.033709  -0.000890   0.000880   0.000459  -0.041558
     7  H   -0.199143  -0.005882  -0.000958   0.000456   0.020755
     8  N   -0.070637   0.065873   0.054649  -0.001448  -0.151916
     9  C    0.014100   0.000711   0.002093   0.000408  -0.075626
    10  H    0.000975   0.000129   0.000248  -0.000094  -0.006310
    11  O    0.000721  -0.000050   0.000011   0.000005  -0.002039
    12  C    0.012254  -0.000609  -0.003220   0.000585   0.040577
    13  H    0.005606   0.000070  -0.000235   0.000033   0.002907
    14  O   -0.000055   0.000054   0.000727   0.000010  -0.061819
    15  H    0.000615  -0.000060  -0.000183   0.000041   0.000968
    16  H    0.000549  -0.000011   0.000256   0.000032   0.016866
    17  H   -0.000653   0.000005   0.000007  -0.000005   0.000570
    18  H    0.002855  -0.000055   0.000063   0.000010  -0.001158
    19  H   -0.000117  -0.000027  -0.001319   0.000056   0.019903
    20  C   -0.748054   0.539712  -0.008433  -0.010133  -0.084552
    21  C   -0.077242  -0.916666   0.011352  -0.027521   0.032831
    22  C   -0.132912   0.184158  -0.131181   0.068374  -0.069525
    23  N   -0.003374  -0.034556   0.457526  -0.128398  -0.398216
    24  C    0.025404  -0.115777  -0.350460   0.117559   0.294521
    25  H    2.654722  -0.148116  -0.000966   0.001201  -0.000556
    26  H   -0.148116   1.967658   0.009726  -0.021428   0.001754
    27  H   -0.000966   0.009726   1.098557  -0.051234  -0.005345
    28  O    0.001201  -0.021428  -0.051234   8.711141  -0.002603
    29  O   -0.000556   0.001754  -0.005345  -0.002603   8.930286
 Mulliken charges:
               1
     1  C    1.200609
     2  C    1.110061
     3  C    0.904200
     4  O   -0.700753
     5  H   -0.560653
     6  O   -0.910646
     7  H   -0.588049
     8  N    0.132239
     9  C    0.891544
    10  H   -0.445705
    11  O   -0.782217
    12  C    1.036729
    13  H   -0.508663
    14  O   -0.496468
    15  H   -0.351603
    16  H   -0.310285
    17  H    0.152273
    18  H    0.157983
    19  H    0.282253
    20  C    0.533919
    21  C    1.257709
    22  C    0.341537
    23  N   -0.239102
    24  C    0.712454
    25  H   -0.723775
    26  H   -0.573702
    27  H   -0.093313
    28  O   -0.669725
    29  O   -0.758851
 Sum of Mulliken charges =  -0.00000
 Mulliken charges with hydrogens summed into heavy atoms:
               1
     1  C    0.754903
     2  C    0.549408
     3  C    0.316151
     4  O   -0.542770
     6  O   -0.910646
     8  N    0.132239
     9  C    0.382880
    11  O   -0.629944
    12  C    0.374841
    14  O   -0.214214
    20  C   -0.189856
    21  C    0.684007
    22  C    0.341537
    23  N   -0.332415
    24  C    0.712454
    28  O   -0.669725
    29  O   -0.758851
 Electronic spatial extent (au):  <R**2>=           4077.0552
 Charge=             -0.0000 electrons
 Dipole moment (field-independent basis, Debye):
    X=             -4.2413    Y=             -2.4343    Z=             -2.5512  Tot=              5.5157
 Quadrupole moment (field-independent basis, Debye-Ang):
   XX=           -103.6249   YY=            -99.2673   ZZ=           -103.2227
   XY=              1.5779   XZ=              3.7020   YZ=              2.4130
 Traceless Quadrupole moment (field-independent basis, Debye-Ang):
   XX=             -1.5866   YY=              2.7710   ZZ=             -1.1844
   XY=              1.5779   XZ=              3.7020   YZ=              2.4130
 Octapole moment (field-independent basis, Debye-Ang**2):
  XXX=           -237.6295  YYY=            -14.1476  ZZZ=              2.6425  XYY=             22.7399
  XXY=            -23.7885  XXZ=            -20.4672  XZZ=              0.7637  YZZ=              4.2474
  YYZ=            -20.0480  XYZ=             14.1215
 Hexadecapole moment (field-independent basis, Debye-Ang**3):
 XXXX=          -4143.7484 YYYY=          -1101.2703 ZZZZ=           -418.2466 XXXY=             19.5198
 XXXZ=             21.2602 YYYX=             61.3348 YYYZ=             -2.4563 ZZZX=             17.0407
 ZZZY=             13.1726 XXYY=           -736.1555 XXZZ=           -670.7942 YYZZ=           -268.1693
 XXYZ=              9.4129 YYXZ=             21.2440 ZZXY=             15.0680
 N-N= 1.338437887590D+03 E-N=-4.808389385595D+03  KE= 9.051982645696D+02
 Calling FoFJK, ICntrl=      2127 FMM=F ISym2X=0 I1Cent= 0 IOpClX= 0 NMat=1 NMatS=1 NMatT=0.
 ***** Axes restored to original set *****
 -------------------------------------------------------------------
 Center     Atomic                   Forces (Hartrees/Bohr)
 Number     Number              X              Y              Z
 -------------------------------------------------------------------
      1        6          -0.010376027    0.003531279   -0.009725631
      2        6           0.000371492   -0.020058697   -0.015098094
      3        6          -0.008743938    0.019654236    0.003135134
      4        8          -0.007124315    0.012433967   -0.002538300
      5        1          -0.000715435    0.002482959   -0.000191381
      6        8           0.006930764   -0.021403738    0.004806453
      7        1           0.008119892   -0.004557615    0.001495363
      8        7          -0.007582469   -0.002521174   -0.003422846
      9        6          -0.000191792    0.012907755    0.011185678
     10        1           0.001090307    0.004483602    0.007325776
     11        8          -0.006990412    0.004290287    0.002787209
     12        6           0.011487669   -0.009781129    0.010855211
     13        1          -0.003240478   -0.001662788   -0.003277942
     14        8           0.002114926    0.004558765   -0.004773380
     15        1          -0.003740126   -0.001217490   -0.001069695
     16        1          -0.001452239    0.004711473   -0.008080434
     17        1           0.014392050   -0.002900389    0.001203020
     18        1           0.007813944    0.001615243    0.008952451
     19        1          -0.011777146   -0.007666346   -0.001893449
     20        6          -0.004164953   -0.000473096   -0.001894986
     21        6           0.000389054    0.007109847    0.017554140
     22        6           0.039355273   -0.005283077   -0.026788764
     23        7          -0.009816728   -0.001991498   -0.002660668
     24        6          -0.012319502    0.001165182    0.008251086
     25        1          -0.006721353   -0.000904680   -0.000015607
     26        1           0.001585557   -0.000312469   -0.001433421
     27        1          -0.002038075    0.001816767    0.005012726
     28        8          -0.009403452    0.002165807    0.008658224
     29        8           0.012747513   -0.002192983   -0.008357876
 -------------------------------------------------------------------
 Cartesian Forces:  Max     0.039355273 RMS     0.009128010

 GradGradGradGradGradGradGradGradGradGradGradGradGradGradGradGradGradGrad
 Berny optimization.
 FormGI is forming the generalized inverse of G from B-inverse, IUseBI=4.
 Internal  Forces:  Max     0.019524145 RMS     0.005619474
 Search for a local minimum.
 Step number   1 out of a maximum of  173
 All quantities printed in internal units (Hartrees-Bohrs-Radians)
 Mixed Optimization -- RFO/linear search
 Second derivative matrix not updated -- first step.
 ITU=  0
     Eigenvalues ---    0.00345   0.00554   0.00750   0.00842   0.01097
     Eigenvalues ---    0.01284   0.01413   0.01461   0.01598   0.01789
     Eigenvalues ---    0.01950   0.01979   0.02095   0.02128   0.02334
     Eigenvalues ---    0.02535   0.03064   0.03650   0.04252   0.04685
     Eigenvalues ---    0.04844   0.04988   0.05294   0.05680   0.05689
     Eigenvalues ---    0.05966   0.06489   0.06893   0.07696   0.08530
     Eigenvalues ---    0.09780   0.11733   0.13118   0.13951   0.16000
     Eigenvalues ---    0.16000   0.16000   0.16000   0.16000   0.16000
     Eigenvalues ---    0.16293   0.16997   0.18202   0.20086   0.22062
     Eigenvalues ---    0.22358   0.23437   0.24607   0.24988   0.25000
     Eigenvalues ---    0.25000   0.26368   0.28718   0.29073   0.29255
     Eigenvalues ---    0.33875   0.34150   0.34257   0.34301   0.34379
     Eigenvalues ---    0.34486   0.34958   0.35213   0.35817   0.36443
     Eigenvalues ---    0.36871   0.38161   0.38909   0.40871   0.42302
     Eigenvalues ---    0.45296   0.46182   0.46387   0.49377   0.50229
     Eigenvalues ---    0.51293   0.51465   0.52312   0.57010   0.90847
     Eigenvalues ---    0.93276
 RFO step:  Lambda=-2.41743501D-02 EMin= 3.44888000D-03
 Linear search not attempted -- first point.
 Iteration  1 RMS(Cart)=  0.19888455 RMS(Int)=  0.00843857
 Iteration  2 RMS(Cart)=  0.01596216 RMS(Int)=  0.00042894
 Iteration  3 RMS(Cart)=  0.00010918 RMS(Int)=  0.00042538
 Iteration  4 RMS(Cart)=  0.00000005 RMS(Int)=  0.00042538
 Variable       Old X    -DE/DX   Delta X   Delta X   Delta X     New X
                                 (Linear)    (Quad)   (Total)
    R1        2.87514   0.00373   0.00000   0.01476   0.01457   2.88970
    R2        2.89413  -0.00660   0.00000  -0.01187  -0.01214   2.88199
    R3        2.06695   0.00194   0.00000   0.00526   0.00526   2.07221
    R4        2.73063  -0.00531   0.00000  -0.01284  -0.01284   2.71779
    R5        2.89763   0.00058   0.00000  -0.00641  -0.00618   2.89144
    R6        2.70387  -0.01432   0.00000  -0.03309  -0.03309   2.67078
    R7        2.06518  -0.00019   0.00000  -0.00052  -0.00052   2.06465
    R8        2.71662  -0.01146   0.00000  -0.03257  -0.03231   2.68431
    R9        2.07541   0.00051   0.00000   0.00140   0.00140   2.07682
   R10        2.76695  -0.00043   0.00000  -0.00111  -0.00111   2.76583
   R11        1.85283  -0.01192   0.00000  -0.02219  -0.02219   1.83064
   R12        2.73647   0.00036   0.00000   0.00312   0.00312   2.73959
   R13        2.61382  -0.00005   0.00000  -0.00085  -0.00086   2.61296
   R14        2.62384  -0.00364   0.00000  -0.00791  -0.00797   2.61587
   R15        2.89474  -0.00685   0.00000  -0.02162  -0.02162   2.87312
   R16        2.07077   0.00393   0.00000   0.01074   0.01074   2.08151
   R17        1.84302  -0.01455   0.00000  -0.02659  -0.02659   1.81643
   R18        2.68540  -0.00844   0.00000  -0.01886  -0.01886   2.66653
   R19        2.06825   0.00380   0.00000   0.01034   0.01034   2.07859
   R20        2.06898   0.00438   0.00000   0.01194   0.01194   2.08093
   R21        1.86335  -0.01373   0.00000  -0.02608  -0.02608   1.83727
   R22        2.52180   0.01394   0.00000   0.02273   0.02279   2.54459
   R23        2.05331   0.00122   0.00000   0.00324   0.00324   2.05655
   R24        2.77676  -0.01102   0.00000  -0.02803  -0.02796   2.74880
   R25        2.04368   0.00214   0.00000   0.00559   0.00559   2.04927
   R26        2.57615   0.01945   0.00000   0.03624   0.03624   2.61239
   R27        2.31459  -0.00482   0.00000  -0.00504  -0.00504   2.30955
   R28        2.59156   0.00549   0.00000   0.01052   0.01047   2.60203
   R29        1.90397   0.00515   0.00000   0.01055   0.01055   1.91452
   R30        2.32545  -0.01533   0.00000  -0.01644  -0.01644   2.30901
    A1        1.80647   0.00147   0.00000   0.00419   0.00349   1.80996
    A2        1.97941   0.00175   0.00000  -0.00053  -0.00036   1.97905
    A3        1.87224  -0.00822   0.00000  -0.05233  -0.05159   1.82066
    A4        2.00546  -0.00408   0.00000  -0.02725  -0.02746   1.97800
    A5        1.92717   0.00421   0.00000   0.02302   0.02308   1.95026
    A6        1.86955   0.00439   0.00000   0.04872   0.04859   1.91814
    A7        1.75912   0.00062   0.00000  -0.00466  -0.00423   1.75489
    A8        1.94439   0.00361   0.00000   0.03075   0.03097   1.97536
    A9        1.94049  -0.00051   0.00000   0.00485   0.00433   1.94482
   A10        1.96681  -0.00287   0.00000  -0.01530  -0.01553   1.95128
   A11        1.96171  -0.00038   0.00000  -0.00949  -0.00961   1.95210
   A12        1.89015  -0.00032   0.00000  -0.00491  -0.00522   1.88493
   A13        1.87586  -0.00671   0.00000  -0.02448  -0.02618   1.84968
   A14        1.90812  -0.00056   0.00000  -0.02212  -0.02138   1.88674
   A15        2.01306   0.00936   0.00000   0.05469   0.05354   2.06661
   A16        1.85430   0.00484   0.00000   0.03958   0.04009   1.89439
   A17        1.91476   0.00402   0.00000   0.04985   0.04937   1.96412
   A18        1.89139  -0.01102   0.00000  -0.09644  -0.09556   1.79583
   A19        1.83228   0.00242   0.00000   0.01312   0.01312   1.84540
   A20        1.88618   0.01120   0.00000   0.02961   0.02954   1.91572
   A21        2.07581  -0.01352   0.00000  -0.04741  -0.04737   2.02844
   A22        2.08939   0.01892   0.00000   0.07096   0.07101   2.16039
   A23        2.11755  -0.00539   0.00000  -0.02345  -0.02354   2.09401
   A24        1.87351  -0.00725   0.00000  -0.02401  -0.02418   1.84933
   A25        1.98419  -0.00254   0.00000  -0.01798  -0.01795   1.96624
   A26        1.94289   0.00241   0.00000   0.00102   0.00098   1.94386
   A27        1.90799   0.01019   0.00000   0.05601   0.05643   1.96443
   A28        1.85457  -0.00048   0.00000  -0.00201  -0.00233   1.85224
   A29        1.89600  -0.00196   0.00000  -0.01043  -0.01080   1.88520
   A30        1.86736   0.00404   0.00000   0.02196   0.02196   1.88932
   A31        1.95877   0.00160   0.00000   0.01042   0.01034   1.96911
   A32        1.91295  -0.00037   0.00000  -0.01737  -0.01785   1.89510
   A33        1.94089  -0.00776   0.00000  -0.04060  -0.04143   1.89946
   A34        1.86677  -0.00288   0.00000  -0.02475  -0.02467   1.84210
   A35        1.88917   0.00844   0.00000   0.07581   0.07613   1.96530
   A36        1.89268   0.00125   0.00000  -0.00250  -0.00328   1.88940
   A37        1.86608   0.00054   0.00000   0.00295   0.00295   1.86903
   A38        2.13327   0.00721   0.00000   0.02620   0.02625   2.15951
   A39        2.05091  -0.01045   0.00000  -0.05029  -0.05031   2.00061
   A40        2.09900   0.00324   0.00000   0.02408   0.02406   2.12307
   A41        2.07428   0.00217   0.00000   0.00830   0.00842   2.08270
   A42        2.15380  -0.00140   0.00000  -0.00587  -0.00594   2.14786
   A43        2.05511  -0.00077   0.00000  -0.00242  -0.00248   2.05262
   A44        2.01851  -0.01120   0.00000  -0.03950  -0.03942   1.97909
   A45        2.11449   0.01952   0.00000   0.07055   0.07050   2.18500
   A46        2.15017  -0.00833   0.00000  -0.03104  -0.03108   2.11909
   A47        2.20228   0.00861   0.00000   0.03568   0.03564   2.23792
   A48        2.04295  -0.00196   0.00000  -0.00511  -0.00509   2.03786
   A49        2.03795  -0.00665   0.00000  -0.03058  -0.03056   2.00739
   A50        2.02026  -0.00141   0.00000  -0.00725  -0.00739   2.01287
   A51        2.17749   0.00209   0.00000   0.00869   0.00874   2.18623
   A52        2.08544  -0.00069   0.00000  -0.00145  -0.00139   2.08405
    D1       -0.59164  -0.00208   0.00000  -0.01669  -0.01694  -0.60858
    D2       -2.68199  -0.00069   0.00000  -0.00995  -0.01022  -2.69222
    D3        1.49107  -0.00240   0.00000  -0.02814  -0.02851   1.46257
    D4       -2.77615   0.00092   0.00000   0.01458   0.01486  -2.76128
    D5        1.41669   0.00231   0.00000   0.02132   0.02157   1.43826
    D6       -0.69343   0.00060   0.00000   0.00313   0.00329  -0.69014
    D7        1.44638  -0.00012   0.00000  -0.01098  -0.01098   1.43540
    D8       -0.64397   0.00127   0.00000  -0.00424  -0.00427  -0.64824
    D9       -2.75409  -0.00045   0.00000  -0.02243  -0.02256  -2.77665
   D10        0.42112  -0.00039   0.00000  -0.02488  -0.02438   0.39673
   D11       -1.69125  -0.00656   0.00000  -0.06735  -0.06715  -1.75841
   D12        2.44389  -0.00393   0.00000  -0.04081  -0.04056   2.40333
   D13        2.58874   0.00040   0.00000  -0.03902  -0.03861   2.55013
   D14        0.47637  -0.00577   0.00000  -0.08148  -0.08138   0.39499
   D15       -1.67167  -0.00314   0.00000  -0.05494  -0.05479  -1.72646
   D16       -1.57786   0.00648   0.00000   0.02323   0.02345  -1.55441
   D17        2.59296   0.00031   0.00000  -0.01924  -0.01932   2.57364
   D18        0.44491   0.00294   0.00000   0.00731   0.00727   0.45218
   D19        3.08247  -0.00023   0.00000  -0.00843  -0.00840   3.07407
   D20       -1.24372  -0.00080   0.00000  -0.01995  -0.02099  -1.26471
   D21        0.95172  -0.00017   0.00000  -0.00587  -0.00486   0.94686
   D22        0.58742  -0.00079   0.00000   0.03939   0.03909   0.62651
   D23       -1.41817  -0.00262   0.00000   0.01718   0.01651  -1.40165
   D24        2.72901   0.00564   0.00000   0.12245   0.12199   2.85101
   D25        2.66160   0.00251   0.00000   0.06589   0.06591   2.72750
   D26        0.65601   0.00068   0.00000   0.04368   0.04333   0.69934
   D27       -1.48000   0.00894   0.00000   0.14895   0.14881  -1.33119
   D28       -1.47992  -0.00038   0.00000   0.04057   0.04060  -1.43931
   D29        2.79768  -0.00221   0.00000   0.01835   0.01803   2.81571
   D30        0.66167   0.00605   0.00000   0.12362   0.12351   0.78518
   D31        0.47234   0.00017   0.00000   0.00017   0.00033   0.47267
   D32       -1.49026  -0.00110   0.00000  -0.00382  -0.00387  -1.49413
   D33        2.61167   0.00163   0.00000   0.02270   0.02259   2.63426
   D34       -0.34064  -0.00090   0.00000  -0.06092  -0.06148  -0.40212
   D35        1.70046  -0.00239   0.00000  -0.07857  -0.07960   1.62086
   D36       -2.54178  -0.01067   0.00000  -0.14503  -0.14479  -2.68657
   D37        1.97661  -0.00042   0.00000  -0.01139  -0.01265   1.96396
   D38       -1.13373  -0.00048   0.00000  -0.01474  -0.01602  -1.14974
   D39       -2.18584   0.00052   0.00000   0.03390   0.03576  -2.15008
   D40        0.98701   0.00046   0.00000   0.03055   0.03240   1.01941
   D41       -0.16831   0.00233   0.00000   0.05432   0.05374  -0.11457
   D42        3.00454   0.00227   0.00000   0.05097   0.05037   3.05491
   D43       -0.05235   0.00091   0.00000   0.05252   0.05309   0.00075
   D44        2.10736  -0.00055   0.00000   0.04956   0.04966   2.15702
   D45       -2.13275   0.00205   0.00000   0.06458   0.06514  -2.06761
   D46       -3.12884  -0.00046   0.00000  -0.00421  -0.00413  -3.13297
   D47        0.01003  -0.00036   0.00000  -0.00327  -0.00322   0.00681
   D48       -0.01902   0.00005   0.00000   0.00094   0.00089  -0.01813
   D49        3.11985   0.00015   0.00000   0.00187   0.00180   3.12164
   D50        3.13092  -0.00000   0.00000   0.00545   0.00549   3.13640
   D51       -0.00763   0.00031   0.00000   0.01145   0.01150   0.00387
   D52        0.02135   0.00007   0.00000   0.00241   0.00235   0.02370
   D53       -3.11720   0.00038   0.00000   0.00841   0.00836  -3.10884
   D54        0.76952  -0.00596   0.00000  -0.09272  -0.09280   0.67672
   D55       -1.30198  -0.00312   0.00000  -0.05686  -0.05685  -1.35883
   D56        2.88866   0.00049   0.00000  -0.01668  -0.01739   2.87127
   D57       -1.32343  -0.00226   0.00000  -0.08995  -0.08960  -1.41302
   D58        2.88826   0.00058   0.00000  -0.05410  -0.05365   2.83461
   D59        0.79572   0.00419   0.00000  -0.01392  -0.01419   0.78153
   D60        2.94303  -0.00613   0.00000  -0.11215  -0.11188   2.83115
   D61        0.87153  -0.00328   0.00000  -0.07629  -0.07593   0.79560
   D62       -1.22102   0.00032   0.00000  -0.03611  -0.03647  -1.25749
   D63        1.24856  -0.00259   0.00000  -0.04143  -0.04086   1.20770
   D64       -2.93612  -0.00397   0.00000  -0.07276  -0.07259  -3.00871
   D65       -0.89997   0.00026   0.00000  -0.05018  -0.05092  -0.95089
   D66        0.00212  -0.00023   0.00000  -0.00324  -0.00323  -0.00111
   D67        3.14117  -0.00002   0.00000   0.00028   0.00027   3.14144
   D68       -3.13667  -0.00031   0.00000  -0.00408  -0.00409  -3.14076
   D69        0.00238  -0.00010   0.00000  -0.00057  -0.00059   0.00179
   D70        0.01059   0.00009   0.00000   0.00158   0.00156   0.01215
   D71       -3.13289   0.00008   0.00000   0.00169   0.00167  -3.13122
   D72       -3.12861  -0.00011   0.00000  -0.00173  -0.00174  -3.13035
   D73        0.01110  -0.00012   0.00000  -0.00162  -0.00163   0.00947
   D74       -0.00756   0.00011   0.00000   0.00228   0.00226  -0.00530
   D75        3.13302  -0.00012   0.00000  -0.00195  -0.00199   3.13103
   D76        3.13596   0.00009   0.00000   0.00204   0.00203   3.13799
   D77       -0.00665  -0.00014   0.00000  -0.00219  -0.00222  -0.00886
   D78       -0.00803  -0.00026   0.00000  -0.00447  -0.00449  -0.01252
   D79        3.13068  -0.00055   0.00000  -0.01012  -0.01010   3.12059
   D80        3.13458  -0.00003   0.00000  -0.00027  -0.00031   3.13426
   D81       -0.00990  -0.00032   0.00000  -0.00591  -0.00592  -0.01582
         Item               Value     Threshold  Converged?
 Maximum Force            0.019524     0.000450     NO 
 RMS     Force            0.005619     0.000300     NO 
 Maximum Displacement     0.941419     0.001800     NO 
 RMS     Displacement     0.202348     0.001200     NO 
 Predicted change in Energy=-1.519335D-02
 GradGradGradGradGradGradGradGradGradGradGradGradGradGradGradGradGradGrad

                          Input orientation:                          
 ---------------------------------------------------------------------
 Center     Atomic      Atomic             Coordinates (Angstroms)
 Number     Number       Type             X           Y           Z
 ---------------------------------------------------------------------
      1          6           0       -3.803544   -1.710125    0.375156
      2          6           0       -2.358868   -1.906777    0.836229
      3          6           0       -1.682772   -0.715150    0.154992
      4          8           0       -1.803199   -3.136371    0.415755
      5          1           0       -2.276378   -1.853565    1.924378
      6          8           0       -2.626659    0.345598    0.195415
      7          1           0       -1.500420   -0.980819   -0.895712
      8          7           0       -0.357917   -0.305268    0.622889
      9          6           0       -3.965318   -0.194307    0.330346
     10          1           0       -4.537957   -2.206362    1.020794
     11          8           0       -3.838665   -2.288771   -0.941023
     12          6           0       -4.694985    0.353038    1.546726
     13          1           0       -4.515768    0.124280   -0.568977
     14          8           0       -4.333062   -0.302317    2.742818
     15          1           0       -5.771901    0.166625    1.422697
     16          1           0       -4.536792    1.441679    1.596029
     17          1           0       -4.743569   -2.249980   -1.262854
     18          1           0       -2.274556   -3.373505   -0.396670
     19          1           0       -3.414475   -0.051593    2.939259
     20          6           0        0.687908   -0.494388   -0.261639
     21          6           0        1.967678   -0.180488    0.015526
     22          6           0        2.296091    0.392850    1.311405
     23          7           0        1.200123    0.536777    2.141593
     24          6           0       -0.113283    0.214904    1.882155
     25          1           0        0.400206   -0.925712   -1.218479
     26          1           0        2.779795   -0.333621   -0.686612
     27          1           0        1.372721    0.923234    3.062069
     28          8           0        3.415696    0.725852    1.670943
     29          8           0       -0.956585    0.391061    2.748636
 ---------------------------------------------------------------------
                    Distance matrix (angstroms):
                    1          2          3          4          5
     1  C    0.000000
     2  C    1.529166   0.000000
     3  C    2.352896   1.530086   0.000000
     4  O    2.457072   1.413318   2.438198   0.000000
     5  H    2.180115   1.092568   2.186111   2.036034   0.000000
     6  O    2.375576   2.357021   1.420473   3.584794   2.819278
     7  H    2.729719   2.143350   1.099005   2.541264   3.052328
     8  N    3.729255   2.571799   1.463616   3.185418   2.787757
     9  C    1.525085   2.401906   2.347774   3.652094   2.854224
    10  H    1.096568   2.207316   3.335477   2.951252   2.460827
    11  O    1.438190   2.344001   2.885378   2.588898   3.292517
    12  C    2.534538   3.327012   3.485883   4.670920   3.295660
    13  H    2.182588   3.279026   3.042144   4.354259   3.891472
    14  O    2.805020   3.179122   3.727105   4.455030   2.702991
    15  H    2.914440   4.036302   4.370993   5.260638   4.068357
    16  H    3.458621   4.066056   3.856674   5.461147   4.009479
    17  H    1.964222   3.195424   3.706005   3.499885   4.050015
    18  H    2.387541   1.917926   2.778739   0.968734   2.774435
    19  H    3.078429   2.996456   3.345332   4.298853   2.360583
    20  C    4.696452   3.533129   2.417114   3.693852   3.925942
    21  C    5.981314   4.729971   3.692031   4.808007   4.945191
    22  C    6.519556   5.213705   4.289092   5.482861   5.131237
    23  N    5.762426   4.510138   3.718197   5.048809   4.224568
    24  C    4.426602   3.261617   2.512248   4.029539   2.993213
    25  H    4.563605   3.577262   2.503908   3.523170   4.231143
    26  H    6.808999   5.585671   4.557232   5.484018   5.890025
    27  H    6.399047   5.185372   4.524537   5.793948   4.724498
    28  O    7.728549   6.401021   5.510805   6.612800   6.254385
    29  O    4.260700   3.302084   2.911708   4.312988   2.731227
                    6          7          8          9         10
     6  O    0.000000
     7  H    2.053864   0.000000
     8  N    2.398657   2.016887   0.000000
     9  C    1.449728   2.863135   3.620944   0.000000
    10  H    3.293450   3.794941   4.609254   2.202953   0.000000
[...]
 093156,0.00109241,0.00166974,-0.00211257,-0.00052937,-0.00060536,-0.04
 355989,-0.01723757,-0.01764162,0.00055721,0.00011271,-0.00031422,-0.00
 012564,-0.00006122,-0.00002796,-0.00009115,0.00004011,0.00022872,-0.00
 046951,0.00029829,-0.00112464,-0.00008597,0.00000506,0.00006691,0.0022
 6320,0.00003761,0.00075264,0.00011200,-0.00002294,0.00022111,0.0000056
 8,-0.00007231,0.00010464,0.00000579,-0.00000097,0.00001928,0.00011444,
 0.00016411,-0.00003681,-0.00320896,0.00009241,0.00015210,-0.00150968,-
 0.00096196,-0.00151609,0.03317254,-0.00557909,-0.03082919,0.07175660,-
 0.02958589,-0.19928080,-0.00578074,0.21439446,0.77458010,-0.00126909,-
 0.00139033,-0.00027998,0.00101683,0.00022578,-0.00480903,0.01162561,-0
 .01388600,-0.03670859,-0.00051029,0.00185194,0.00266650,-0.00268897,-0
 .00447547,0.00109345,-0.00246405,0.00439659,0.00638491,-0.00647838,-0.
 00234012,-0.00128822,-0.15198072,-0.02230412,-0.01346146,-0.00109474,0
 .00035049,-0.00154091,-0.00038452,0.00004603,-0.00009208,0.00065125,0.
 00084414,0.00184994,-0.00265359,0.00125864,-0.00390290,0.00014609,-0.0
 0001450,0.00048123,0.00680393,-0.00002337,0.00183470,0.00062606,0.0001
 1614,0.00047457,-0.00021085,-0.00026021,0.00037975,-0.00016220,-0.0001
 5715,0.00001856,0.00003599,0.00035326,-0.00006172,-0.01147758,-0.00046
 058,0.00263912,0.03646961,0.01437696,0.01993736,-0.01209686,-0.0071336
 1,-0.01525291,-0.05532234,0.00430629,0.04133014,-0.25561994,-0.0609025
 0,-0.06862136,0.84826665,-0.00002619,0.00059364,-0.00030244,-0.0002572
 4,-0.00144315,-0.00163784,-0.00826341,-0.00493494,-0.01068063,0.000483
 40,0.00021061,0.00026908,-0.00124115,-0.00033889,0.00040481,0.00331844
 ,-0.00081807,0.00022344,-0.00120096,0.00123985,0.00021539,-0.02736362,
 -0.08692779,-0.04565433,-0.00028544,-0.00010462,0.00044529,0.00032126,
 0.00003594,0.00010765,0.00051370,-0.00009230,0.00032541,0.00017923,0.0
 0019870,0.00070212,0.00018024,-0.00001434,-0.00003189,-0.00123690,-0.0
 0003850,-0.00070756,-0.00006037,-0.00005546,-0.00015667,0.00003913,-0.
 00010550,-0.00009778,-0.00002466,-0.00002178,-0.00000083,-0.00013712,-
 0.00014135,-0.00009908,0.00189207,-0.00090624,0.00004727,0.02457761,0.
 00032605,-0.00897009,-0.00998853,-0.00363595,-0.00863336,-0.01295308,-
 0.00708130,0.03211642,-0.04677278,-0.08218222,-0.04573660,0.07115122,0
 .26311756,0.00151400,0.00238461,-0.00132443,0.00187380,-0.00370658,0.0
 0545893,-0.04053051,-0.00386794,-0.01363866,0.00083880,0.00024951,-0.0
 0238767,0.00152915,0.00351548,0.00012988,0.01328253,-0.00501133,-0.006
 46334,0.00264333,0.00141989,0.00156172,-0.02420700,-0.04583793,-0.2048
 2616,-0.00378722,-0.00174119,0.00276514,0.00116781,0.00037802,0.000324
 39,0.00031475,-0.00012635,-0.00075052,0.00332368,-0.00130580,0.0064392
 5,0.00116316,0.00012955,-0.00042472,-0.01231497,-0.00070630,-0.0041485
 3,-0.00055249,0.00001894,-0.00122590,0.00000598,0.00038253,-0.00053002
 ,-0.00008994,-0.00015012,-0.00008445,-0.00025470,-0.00075438,-0.000210
 52,0.01811400,0.00060678,-0.00137146,0.05348547,-0.00270968,-0.0471919
 7,-0.02333772,-0.00991706,-0.01637454,-0.01411830,0.01981885,0.0618655
 3,-0.02341199,-0.03687476,-0.16363651,-0.20001492,0.11767273,0.7324512
 6,-0.00004477,0.00000544,0.00003887,-0.00023832,-0.00034976,-0.0003007
 6,-0.00052708,0.00248117,0.00485246,0.00001500,0.00021177,-0.00010978,
 0.00010293,0.00021839,-0.00005318,0.00057594,-0.00090065,-0.00051842,-
 0.00093740,-0.00056354,-0.00051960,0.00335050,0.00792988,0.02714644,-0
 .00039014,-0.00008515,0.00011580,0.00003734,0.00001992,-0.00000381,0.0
 0009034,0.00006987,-0.00000578,0.00004619,0.00001311,0.00013262,0.0000
 4775,0.00002315,0.00001194,-0.00013117,-0.00002745,-0.00014038,0.00001
 499,0.00000347,-0.00003027,-0.00000920,-0.00000206,-0.00000247,-0.0000
 1429,-0.00001883,-0.00002756,-0.00004528,-0.00011155,0.00002455,0.0002
 3596,0.00002626,0.00005887,-0.06734007,-0.02318413,-0.06190425,0.00062
 350,-0.00929883,-0.02578288,-0.00480534,-0.00297869,0.00190833,0.00056
 347,0.00024110,-0.00008058,-0.00446770,-0.00170279,-0.00013210,0.07362
 074,-0.00004342,-0.00007233,0.00012161,-0.00037400,0.00071269,0.000135
 89,-0.00136070,-0.00155117,0.00132249,0.00033481,-0.00021333,-0.000254
 45,-0.00003431,-0.00007104,0.00003392,0.00039398,-0.00021729,-0.000135
 24,-0.00018974,0.00052956,0.00027838,-0.00056376,0.00261260,-0.0012698
 6,0.00004529,-0.00006088,0.00007607,-0.00004006,0.00000127,-0.00002020
 ,0.00003321,-0.00005805,-0.00001055,-0.00001355,0.00002026,-0.00002522
 ,0.00004097,0.00000558,-0.00000679,0.00003632,-0.00001927,0.00002674,0
 .00000121,0.00000132,0.00000294,0.00000379,-0.00001138,-0.00000489,0.0
 0000290,0.00000205,-0.00001612,-0.00014087,-0.00001857,0.00005065,-0.0
 0004278,0.00000895,-0.00000874,-0.02058505,-0.07183256,-0.09029369,-0.
 00142985,0.00545800,-0.00810574,-0.00343002,0.01052837,-0.00244476,0.0
 0016538,-0.00066199,0.00035626,-0.00055895,0.00327231,-0.00039290,0.02
 618442,0.05938523,0.00005820,0.00006630,-0.00003558,0.00035771,0.00010
 430,0.00026207,-0.00333530,-0.00077467,-0.00077061,-0.00029989,-0.0000
 5542,0.00016252,-0.00014266,-0.00015495,0.00009162,-0.00021130,0.00015
 695,0.00045071,0.00064069,0.00054134,0.00142378,-0.00284445,-0.0076067
 8,-0.02067640,0.00015628,0.00007547,0.00010541,-0.00000360,-0.00001816
 ,-0.00000070,-0.00006573,-0.00000796,-0.00002094,-0.00009539,0.0000075
 2,-0.00010426,0.00000808,0.00002057,-0.00000871,0.00014032,0.00002686,
 0.00009720,-0.00000376,-0.00000101,0.00003314,0.00000189,-0.00000461,0
 .00000630,-0.00000129,0.00000495,0.00002211,0.00011607,0.00006814,0.00
 001890,-0.00026124,-0.00002517,-0.00003474,-0.05363349,-0.08823569,-0.
 30620788,0.00097066,-0.00276509,-0.00124667,-0.00000762,-0.00308593,0.
 00192447,-0.00067940,0.00026110,0.00051957,0.00411450,0.00080720,0.002
 83995,0.05544994,0.09864346,0.32314179,-0.00003143,-0.00004347,0.00008
 467,-0.00022119,0.00016535,-0.00020934,0.00020737,-0.00019277,0.001132
 67,0.00004272,-0.00009307,-0.00003151,0.00001467,0.00000409,-0.0000139
 5,-0.00017481,-0.00001559,0.00003196,-0.00002706,-0.00000012,-0.000069
 64,-0.00216032,-0.00296740,-0.00319823,0.00004348,0.00000299,-0.000043
 59,-0.00003371,-0.00000037,-0.00001454,-0.00001493,-0.00001645,-0.0000
 3777,-0.00001247,-0.00001126,-0.00002421,-0.00002909,-0.00000040,0.000
 00418,0.00001877,0.00001368,0.00002175,-0.00000080,0.00000113,0.000007
 93,0.00000103,0.00000442,0.00000314,0.00000403,0.00000256,0.00000414,-
 0.00001297,0.00000546,0.00001731,-0.00002975,-0.00000999,-0.00001433,-
 0.01518850,0.00285405,0.01981077,-0.23048435,0.00305181,0.15276836,0.0
 0726120,-0.00054899,-0.00612340,0.00049727,-0.00104164,-0.00191211,-0.
 00035295,-0.00021109,-0.00064556,0.00040256,0.00109544,-0.00035229,0.2
 3956199,0.00002469,0.00009531,-0.00004117,0.00028093,0.00005394,0.0002
 3113,0.00018152,0.00175648,0.00011163,0.00002009,-0.00004863,-0.000025
 69,-0.00002827,-0.00003671,-0.00000617,-0.00081927,-0.00006682,-0.0001
 0860,-0.00006419,-0.00005840,0.00003056,-0.00341975,0.00661803,-0.0026
 9406,0.00004076,0.00013526,-0.00014854,0.00002427,-0.00001330,0.000006
 55,0.00001204,-0.00003536,-0.00000160,-0.00002992,0.00001022,-0.000040
 82,-0.00006269,-0.00002338,0.00001217,0.00003911,-0.00002063,0.0000385
 3,-0.00000077,0.00000190,0.00001216,0.00000508,-0.00000927,-0.00000245
 ,-0.00000013,0.00001073,0.00000216,-0.00002186,0.00001314,0.00000343,-
 0.00004165,0.00000121,-0.00001465,-0.00586399,-0.00032553,0.00675314,0
 .00350895,-0.03045789,-0.01365737,0.00864798,0.00169904,-0.00476739,-0
 .00080622,0.00166458,-0.00283292,-0.00061792,-0.00050084,-0.00050894,0
 .00123790,-0.00474883,0.00165910,-0.00280771,0.02587245,-0.00003172,-0
 .00005421,0.00008139,-0.00017723,0.00008848,-0.00020714,-0.00002523,-0
 .00041182,0.00073981,-0.00000671,-0.00006001,-0.00000175,0.00001209,0.
 00000159,-0.00000171,-0.00006761,0.00003312,0.00004118,-0.00002276,-0.
 00000870,-0.00004918,-0.00310122,-0.00256304,0.00163258,0.00003948,-0.
 00000845,-0.00000537,-0.00003484,-0.00000166,-0.00001241,-0.00001890,-
 0.00000746,-0.00002830,-0.00001236,-0.00000399,-0.00003297,-0.00001513
 ,0.00000339,-0.00000092,0.00003751,0.00001566,0.00003473,-0.00000011,0
 .00000078,0.00000860,-0.00000048,0.00000354,0.00000287,0.00000402,0.00
 000371,0.00000473,0.00000139,0.00000622,0.00001652,-0.00006336,-0.0000
 1108,-0.00001546,-0.01024289,0.00079460,0.00887046,0.15381678,-0.01357
 119,-0.18104507,0.02525981,0.00189451,-0.01002512,-0.00104289,-0.00266
 601,-0.00553731,-0.00209644,-0.00094172,-0.00183343,-0.00010892,0.0016
 4608,0.00018648,-0.16176861,0.01442822,0.18437407,-0.00004083,-0.00007
 232,-0.00001229,0.00006978,0.00014505,-0.00018087,0.00139127,-0.000603
 83,-0.00133245,-0.00001754,0.00000983,0.00009163,-0.00002554,-0.000109
 70,0.00002865,-0.00017826,0.00022419,0.00033538,-0.00049602,-0.0001482
 7,-0.00020800,-0.00689802,-0.00255286,-0.00063757,0.00009341,0.0000261
 1,-0.00008852,-0.00002855,-0.00001036,-0.00000663,-0.00000911,0.000025
 25,0.00005672,-0.00010913,0.00004323,-0.00022227,-0.00002062,-0.000000
 93,0.00002076,0.00033676,0.00002546,0.00020092,0.00002829,0.00000295,0
 .00003811,-0.00000780,-0.00000693,0.00001688,-0.00000390,-0.00000572,0
 .00000163,0.00000570,0.00002326,0.00000101,-0.00046762,-0.00000755,-0.
 00006813,-0.00124372,0.00003214,0.00057106,-0.00526405,-0.00098514,0.0
 0287716,0.01463582,0.01160693,0.02933347,-0.07335245,-0.02076301,-0.03
 165908,0.00439708,-0.01024805,-0.03721162,0.00001297,0.00005222,-0.000
 07576,0.00050248,0.00042730,0.00130242,0.06540611,-0.00002018,0.000029
 58,-0.00003261,0.00006547,0.00004687,-0.00003070,-0.00003661,0.0008151
 6,-0.00051072,0.00004717,-0.00004683,0.00004442,-0.00003759,0.00000417
 ,0.00002461,-0.00005058,-0.00008226,0.00004903,-0.00004837,-0.00014866
 ,-0.00003706,-0.00229942,0.00387868,-0.00058559,-0.00003243,0.00001862
 ,-0.00001524,0.00000330,0.00000164,-0.00000163,0.00004122,-0.00002108,
 0.00003820,-0.00006121,0.00010858,-0.00010287,0.00000296,-0.00000683,0
 .00001177,0.00024758,-0.00006542,0.00002154,0.00001294,-0.00000848,0.0
 0001329,0.00000663,-0.00003919,0.00002444,-0.00000681,0.00000300,-0.00
 000450,-0.00001156,0.00000108,-0.00001318,-0.00035447,0.00001910,0.000
 07671,0.00012498,-0.00055976,0.00046816,-0.00075609,0.00358974,-0.0004
 6024,0.00201662,0.00207239,0.00074670,-0.02233983,-0.06072409,-0.12407
 298,-0.00041674,-0.00332385,-0.00871645,0.00005671,-0.00029915,0.00006
 721,-0.00006368,0.00026461,0.00007021,0.02160870,0.06142632,-0.0000517
 2,0.00000256,-0.00005824,0.00001478,-0.00018542,0.00002305,0.00002412,
 -0.00020868,-0.00001949,0.00004258,0.00016030,0.00004184,-0.00006077,-
 0.00010646,0.00000918,0.00030548,0.00010126,0.00007502,0.00000567,0.00
 002951,0.00001645,-0.00019144,-0.00049492,0.00294470,-0.00021302,-0.00
 005458,0.00000871,0.00002967,0.00001216,0.00000843,0.00007237,0.000053
 46,0.00006721,-0.00001468,0.00003330,-0.00003850,0.00003641,0.00000151
 ,0.00001345,0.00026083,-0.00002696,-0.00007674,0.00003140,0.00000400,0
 .00000575,-0.00001570,-0.00000051,0.00000945,-0.00001335,-0.00001943,-
 0.00000645,-0.00003047,-0.00002961,-0.00001059,-0.00048433,0.00004073,
 0.00015223,0.00084623,0.00051876,0.00040475,0.00357560,-0.00039153,0.0
 0022549,-0.00193999,-0.00554988,-0.01573637,-0.03729825,-0.12521542,-0
 .40518294,-0.00397257,-0.00200619,-0.00433239,-0.00005802,0.00007237,-
 0.00006231,-0.00036132,-0.00027585,-0.00038487,0.03876102,0.13071556,0
 .42122200,0.00030378,-0.00019388,0.00072950,-0.00070017,0.00163849,-0.
 00014161,0.00451002,0.00010308,0.00175312,-0.00005218,-0.00117643,-0.0
 0036484,0.00021432,0.00026005,-0.00013126,-0.00279604,0.00028287,-0.00
 026793,-0.00035059,-0.00016340,-0.00022328,-0.00678814,-0.00276219,-0.
 00355082,0.00144882,0.00045490,-0.00034774,-0.00024427,-0.00005134,-0.
 00007794,-0.00052141,-0.00041096,-0.00065070,0.00023981,-0.00043104,0.
 00044010,-0.00034549,-0.00004742,-0.00011741,-0.00150520,0.00019681,-0
 .00007348,-0.00020923,-0.00001296,-0.00001571,0.00007735,0.00009683,-0
 .00006680,0.00012088,0.00014265,0.00009848,0.00014911,0.00025416,0.000
 11869,0.00229528,-0.00011751,-0.00031930,0.00910178,0.00131705,0.00019
 847,-0.01877406,-0.01800589,-0.03226621,-0.54057524,-0.15825084,-0.209
 67945,-0.10160664,-0.02539744,-0.00262615,0.01621953,0.00576226,0.0127
 4497,-0.00052657,0.00033076,-0.00027977,-0.00002327,-0.00016098,-0.002
 06775,0.00014411,0.00014597,-0.00251855,0.65159633,0.00008206,-0.00012
 790,0.00023401,-0.00023570,0.00054405,-0.00013795,0.00171912,-0.000418
 87,0.00088651,-0.00013521,-0.00032323,-0.00005063,0.00006824,0.0000355
 6,-0.00004529,-0.00119364,0.00033175,0.00000157,-0.00007102,0.00003314
 ,0.00009356,-0.00325012,-0.00015742,0.00261995,0.00054280,0.00016108,-
 0.00017726,-0.00010048,-0.00002281,-0.00003281,-0.00020806,-0.00008702
 ,-0.00019009,0.00002249,-0.00014777,0.00001491,-0.00013631,-0.00001692
 ,-0.00002998,-0.00027977,0.00015939,0.00008197,-0.00005554,-0.00000140
 ,0.00001949,0.00001720,0.00004250,-0.00001361,0.00004199,0.00003951,0.
 00003351,0.00009949,0.00008700,0.00004458,0.00041480,-0.00016165,-0.00
 010280,0.00567615,0.00340637,-0.00479642,-0.02456859,0.01200722,-0.018
 74687,-0.15688084,-0.13163184,-0.08070998,-0.01772623,0.01659266,0.003
 81709,0.00034200,0.00618675,-0.00294663,-0.00016599,-0.00254776,0.0006
 5201,0.00066648,-0.00157582,0.00095673,-0.00091092,-0.00386978,0.00127
 468,0.19760648,0.10289017,0.00005026,-0.00020592,0.00032787,-0.0002855
 0,0.00089707,-0.00043358,0.00247858,-0.00004008,0.00149004,-0.00018669
 ,-0.00054210,0.00010200,-0.00001069,-0.00007832,-0.00002158,-0.0020288
 1,0.00039888,0.00031962,0.00013638,0.00017557,0.00026620,-0.00634178,0
 .00172488,0.01101715,0.00085880,0.00030214,-0.00032143,-0.00017622,-0.
 00004711,-0.00004974,-0.00023941,-0.00014037,-0.00014812,-0.00009987,-
 0.00008830,-0.00027427,-0.00020293,-0.00002613,-0.00001795,0.00003158,
 0.00011318,0.00037742,-0.00004967,-0.00000562,0.00007450,0.00003062,0.
 00001651,0.00000566,0.00005776,0.00007079,0.00003487,0.00015325,0.0001
 5850,0.00003235,-0.00004245,-0.00008196,-0.00023430,0.01496466,-0.0015
 2659,-0.01235610,-0.05378230,-0.02318347,-0.01824326,-0.20562536,-0.07
 993518,-0.20109625,0.02248576,0.00902586,0.03354331,-0.00476249,-0.006
 74485,-0.01141946,-0.00215255,0.00020218,-0.00041746,0.00087215,0.0016
 0665,0.00270230,-0.00580548,0.00063895,0.00182117,0.23779909,0.0958703
 5,0.19112892,0.00109259,0.00178195,0.00017758,-0.00004353,-0.00197383,
 0.00329703,-0.01547857,0.00268812,0.00034852,0.00068383,-0.00147104,-0
 .00237487,0.00014534,0.00132200,-0.00180283,0.00489865,-0.00348196,-0.
 00778963,0.00137999,0.00042248,-0.00017826,0.01517972,0.01058352,0.035
 48268,-0.00052090,-0.00035281,0.00175625,0.00054555,0.00021702,0.00014
 338,-0.00022254,-0.00085504,-0.00146602,0.00270673,-0.00275441,0.00729
 907,0.00028479,-0.00004721,-0.00059386,-0.01945521,-0.00000239,-0.0031
 5110,-0.00105548,0.00028787,-0.00143769,0.00004797,0.00062161,-0.00071
 593,0.00010463,0.00012211,0.00009739,-0.00009242,-0.00029662,-0.000052
 06,0.00572580,-0.00034935,-0.00375182,-0.00540000,-0.00242329,0.000243
 92,0.00114745,0.00241375,0.00679184,0.01743666,-0.00416395,-0.01971578
 ,-0.09644059,-0.00973374,0.04842683,-0.41702384,0.01355483,0.26860760,
 -0.00026286,0.00008637,0.00027861,0.00024004,0.00029468,0.00043167,0.0
 0113940,0.00215529,0.00321803,-0.01140262,-0.00138088,0.00187331,0.514
 63941,0.00086736,-0.00038358,-0.00041070,-0.00194366,-0.00176174,0.002
 39908,0.00184119,-0.00345723,0.00211691,-0.00037244,-0.00068369,-0.001
 61123,-0.00034929,-0.00112300,-0.00314458,0.00046116,0.00171840,0.0014
 6238,0.00015788,0.00025704,0.00005326,0.01367593,0.01615467,-0.0190579
 3,-0.00019779,-0.00062520,0.00002052,-0.00006526,-0.00006238,-0.000078
 88,-0.00079425,0.00022320,-0.00047170,-0.00056597,-0.00004421,-0.00065
 794,0.00004192,0.00011839,0.00003218,0.00134163,0.00284970,0.00042061,
 0.00007039,0.00006457,0.00008591,-0.00024991,0.00018478,-0.00004551,0.
 00002335,-0.00006046,-0.00009243,0.00036560,-0.00018947,-0.00006710,-0
 .00296957,-0.00378804,0.00041098,-0.00603429,0.00274270,-0.00159383,0.
 00186118,-0.00008908,0.00207239,0.00162360,0.00546473,-0.00752288,-0.0
 1843209,0.01988250,0.00924006,0.01532209,-0.08251430,-0.02130254,0.000
 66686,-0.00015459,-0.00042707,0.00015658,-0.00027550,0.00036250,0.0021
 7299,-0.00308417,0.00154528,-0.00141006,-0.00142698,0.00144446,-0.0072
 6511,0.05006295,-0.00059544,-0.00077889,0.00027047,-0.00035821,0.00044
 569,-0.00150962,0.01204052,0.00221042,0.00527595,-0.00061871,-0.000388
 50,0.00057991,-0.00138457,-0.00268807,-0.00149607,-0.00736364,0.001501
 11,-0.00239034,-0.00049582,-0.00017492,0.00030623,0.04547686,-0.017045
 41,-0.06743138,0.00298220,0.00097242,-0.00089378,-0.00049130,-0.000247
 30,-0.00016702,-0.00017344,0.00011910,0.00047808,-0.00092845,0.0010993
 9,-0.00426138,-0.00062603,-0.00003867,0.00027518,0.00919936,0.00028716
 ,0.00538462,0.00042183,-0.00009784,0.00089141,0.00002871,-0.00036435,0
 .00036187,0.00003589,0.00004441,-0.00001020,0.00026167,0.00016577,0.00
 001959,-0.01338583,-0.00010333,-0.00257347,-0.01219912,-0.00399645,-0.
 00069675,0.00426630,0.00147309,0.00087634,-0.00192672,-0.00348267,-0.0
 0355030,0.01958799,0.00400178,0.01991674,0.27366085,-0.02093494,-0.331
 66135,0.00219149,0.00002010,-0.00169973,0.00006134,0.00023078,0.000485
 30,0.00387185,0.00157298,-0.00113999,0.00190429,0.00137937,0.00179012,
 -0.33544386,0.03481780,0.38256954\\0.00001034,-0.00002691,-0.00003038,
 -0.00000520,-0.00002101,0.00001138,0.00000846,0.00002756,0.00000845,-0
 .00000027,0.00002351,-0.00001312,-0.00001931,0.00001356,0.00001084,-0.
 00002486,-0.00001862,0.00001425,-0.00000613,-0.00000999,-0.00001150,0.
 00000312,-0.00000105,-0.00001530,0.00005436,0.00003206,-0.00001657,-0.
 00000098,0.00000057,0.00000179,0.00002078,-0.00000084,0.00003298,-0.00
 000550,-0.00001424,0.00001816,-0.00001217,-0.00000610,0.00000029,-0.00
 000630,0.00000826,-0.00000318,-0.00000038,0.00000797,-0.00000773,0.000
 00317,0.00000322,-0.00000335,-0.00001288,0.00000398,-0.00000078,-0.000
 00847,-0.00001417,-0.00000746,0.00000744,-0.00000153,-0.00000123,0.000
 01661,-0.00000057,-0.00000504,-0.00000996,-0.00000855,-0.00000198,0.00
 001152,0.00001894,0.00003095,0.00002063,-0.00003383,0.00002536,-0.0000
 1696,0.00001651,-0.00001418,-0.00000389,-0.00000141,-0.00000005,-0.000
 00413,-0.00000522,-0.00000324,-0.00000558,0.00000552,-0.00000609,-0.00
 001234,0.00000027,-0.00001971,-0.00000113,0.00000213,0.00000647\\\@
 The archive entry for this job was punched.


 NOBODY LOSES ALL THE TIME
 I HAD AN UNCLE NAMED
 SOL WHO WAS A BORN FAILURE AND
 NEARLY EVERYBODY SAID HE SHOULD HAVE GONE
 INTO VAUDEVILLE PERHAPS BECAUSE MY UNCLE SOL COULD
 SING MCCANN HE WAS A DIVER ON XMAS EVE LIKE HELL ITSELF WHICH
 MAY OR MAY NOT ACCOUNT FOR THE FACT THAT MY UNCLE
 SOL INDULGED IN THAT POSSIBLY MOST INEXCUSABLE
 OF ALL TO USE A HIGHFALOOTIN PHRASE
 LUXURIES THAT IS OR TO
 WIT FARMING AND BE
 IT NEEDLESSLY
 ADDED
 MY UNCLE SOL'S FARM     
 FAILED BECAUSE THE CHICKENS
 ATE THE VEGETABLES SO
 MY UNCLE SOL HAD A
 CHICKEN FARM TILL THE
 SKUNKS ATE THE CHICKENS WHEN 
 MY UNCLE SOL
 HAD A SKUNK FARM BUT
 THE SKUNKS CAUGHT COLD AND
 DIED AND SO
 MY UNCLE SOL IMITATED THE
 SKUNKS IN A SUBTLE MANNER
 OR BY DROWNING HIMSELF IN THE WATERTANK
 BUT SOMEBODY WHO'D GIVEN MY UNCLE SOL A VICTOR     
 VICTROLA AND RECORDS WHILE HE LIVED PRESENTED TO
 HIM UPON THE AUSPICIOUS OCCASION OF HIS DECEASE A
 SCRUMPTIOUS NOT TO MENTION SPLENDIFEROUS FUNERAL WITH
 TALL BOYS IN BLACK GLOVES AND FLOWERS AND EVERYTHING AND
 I REMEMBER WE ALL CRIED LIKE THE MISSOURI
 WHEN MY UNCLE SOL'S COFFIN LURCHED BECAUSE     
 SOMEBODY PRESSED A BUTTON
 (AND DOWN WENT
 MY UNCLE
 SOL
 AND STARTED A WORM FARM)
           E. E. CUMMINGS
 Job cpu time:       0 days 10 hours 41 minutes 31.6 seconds.
 Elapsed time:       0 days  0 hours 16 minutes 10.4 seconds.
 File lengths (MBytes):  RWF=    632 Int=      0 D2E=      0 Chk=     21 Scr=      1
 Normal termination of Gaussian 16 at Thu Oct 17 11:03:42 2024.
