 Entering Gaussian System, Link 0=g16
 Input=UridineNsrraPBE0aVDZ.gjf
 Output=UridineNsrraPBE0aVDZ.log
 Initial command:
 /sw/contrib/chem-src/g16/c01/g16/l1.exe "/scr/Gau-19222.inp" -scrdir="/scr/"
 Entering Link 1 = /sw/contrib/chem-src/g16/c01/g16/l1.exe PID=     19223.
  
 Copyright (c) 1988-2019, Gaussian, Inc.  All Rights Reserved.
  
 This is part of the Gaussian(R) 16 program.  It is based on
 the Gaussian(R) 09 system (copyright 2009, Gaussian, Inc.),
 the Gaussian(R) 03 system (copyright 2003, Gaussian, Inc.),
 the Gaussian(R) 98 system (copyright 1998, Gaussian, Inc.),
 the Gaussian(R) 94 system (copyright 1995, Gaussian, Inc.),
 the Gaussian 92(TM) system (copyright 1992, Gaussian, Inc.),
 the Gaussian 90(TM) system (copyright 1990, Gaussian, Inc.),
 the Gaussian 88(TM) system (copyright 1988, Gaussian, Inc.),
 the Gaussian 86(TM) system (copyright 1986, Carnegie Mellon
 University), and the Gaussian 82(TM) system (copyright 1983,
 Carnegie Mellon University). Gaussian is a federally registered
 trademark of Gaussian, Inc.
  
 This software contains proprietary and confidential information,
 including trade secrets, belonging to Gaussian, Inc.
  
 This software is provided under written license and may be
 used, copied, transmitted, or stored only in accord with that
 written license.
  
 The following legend is applicable only to US Government
 contracts under FAR:
  
                    RESTRICTED RIGHTS LEGEND
  
 Use, reproduction and disclosure by the US Government is
 subject to restrictions as set forth in subparagraphs (a)
 and (c) of the Commercial Computer Software - Restricted
 Rights clause in FAR 52.227-19.
  
 Gaussian, Inc.
 340 Quinnipiac St., Bldg. 40, Wallingford CT 06492
  
  
 ---------------------------------------------------------------
 Warning -- This program may not be used in any manner that
 competes with the business of Gaussian, Inc. or will provide
 assistance to any competitor of Gaussian, Inc.  The licensee
 of this program is prohibited from giving any competitor of
 Gaussian, Inc. access to this program.  By using this program,
 the user acknowledges that Gaussian, Inc. is engaged in the
 business of creating and licensing software in the field of
 computational chemistry and represents and warrants to the
 licensee that it is not a competitor of Gaussian, Inc. and that
 it will not use this program in any manner prohibited above.
 ---------------------------------------------------------------
  

 Cite this work as:
 Gaussian 16, Revision C.01,
 M. J. Frisch, G. W. Trucks, H. B. Schlegel, G. E. Scuseria, 
 M. A. Robb, J. R. Cheeseman, G. Scalmani, V. Barone, 
 G. A. Petersson, H. Nakatsuji, X. Li, M. Caricato, A. V. Marenich, 
 J. Bloino, B. G. Janesko, R. Gomperts, B. Mennucci, H. P. Hratchian, 
 J. V. Ortiz, A. F. Izmaylov, J. L. Sonnenberg, D. Williams-Young, 
 F. Ding, F. Lipparini, F. Egidi, J. Goings, B. Peng, A. Petrone, 
 T. Henderson, D. Ranasinghe, V. G. Zakrzewski, J. Gao, N. Rega, 
 G. Zheng, W. Liang, M. Hada, M. Ehara, K. Toyota, R. Fukuda, 
 J. Hasegawa, M. Ishida, T. Nakajima, Y. Honda, O. Kitao, H. Nakai, 
 T. Vreven, K. Throssell, J. A. Montgomery, Jr., J. E. Peralta, 
 F. Ogliaro, M. J. Bearpark, J. J. Heyd, E. N. Brothers, K. N. Kudin, 
 V. N. Staroverov, T. A. Keith, R. Kobayashi, J. Normand, 
 K. Raghavachari, A. P. Rendell, J. C. Burant, S. S. Iyengar, 
 J. Tomasi, M. Cossi, J. M. Millam, M. Klene, C. Adamo, R. Cammi, 
 J. W. Ochterski, R. L. Martin, K. Morokuma, O. Farkas, 
 J. B. Foresman, and D. J. Fox, Gaussian, Inc., Wallingford CT, 2019.
 
 ******************************************
 Gaussian 16:  EM64L-G16RevC.01  3-Jul-2019
                17-Oct-2024 
 ******************************************
 %nprocshared=40
 Will use up to   40 processors via shared memory.
 %mem=50gb
 ------------------------------------------------------
 # PBE1PBE/aug-cc-pVDZ opt freq EmpiricalDispersion=GD3
 ------------------------------------------------------
 1/18=20,19=15,26=3,38=1/1,3;
 2/9=110,12=2,17=6,18=5,40=1/2;
 3/5=16,7=10,11=2,25=1,30=1,71=1,74=-13,124=31/1,2,3;
 4//1;
 5/5=2,38=5/2;
 6/7=2,8=2,9=2,10=2,28=1/1;
 7//1,2,3,16;
 1/18=20,19=15,26=3/3(2);
 2/9=110/2;
 99//99;
 2/9=110/2;
 3/5=16,7=10,11=2,25=1,30=1,71=1,74=-13,124=31/1,2,3;
 4/5=5,16=3,69=1/1;
 5/5=2,38=5/2;
 7//1,2,3,16;
 1/18=20,19=15,26=3/3(-5);
 2/9=110/2;
 6/7=2,8=2,9=2,10=2,19=2,28=1/1;
 99/9=1/99;
 ----
 blah
 ----
 Symbolic Z-matrix:
 Charge =  0 Multiplicity = 1
 C                    -3.04216  -1.72473   0.7985 
 C                    -2.30737  -1.37622  -0.4839 
 C                    -1.8851    0.08264  -0.21996 
 O                    -3.22683  -1.46535  -1.58714 
 H                    -1.47767  -2.05528  -0.70071 
 O                    -2.80782   0.62734   0.75687 
 H                    -1.98966   0.68393  -1.13119 
 N                    -0.50416   0.20421   0.25962 
 C                    -3.7574   -0.40856   1.0829 
 H                    -2.3121   -1.98148   1.57445 
 O                    -3.92873  -2.82296   0.60054 
 C                    -4.24419  -0.25377   2.52283 
 H                    -4.6223   -0.27899   0.4195 
 O                    -3.21862  -0.58868   3.45714 
 H                    -5.09542  -0.91498   2.71185 
 H                    -4.54306   0.78268   2.71047 
 H                    -4.21167  -3.11968   1.4849 
 H                    -3.7305   -2.28989  -1.42829 
 H                    -3.53399  -0.30269   4.33343 
 C                    -0.20712   0.38181   1.59787 
 C                     1.04855   0.48175   2.03885 
 C                     2.15103   0.39891   1.07064 
 N                     1.78252   0.22081  -0.22991 
 C                     0.49952   0.10631  -0.69749 
 H                    -1.0355    0.44625   2.29719 
 H                     1.30138   0.62501   3.08049 
 H                     2.51999   0.15617  -0.91362 
 O                     3.31864   0.47934   1.43189 
 O                     0.29526  -0.08815  -1.89302 
 

 GradGradGradGradGradGradGradGradGradGradGradGradGradGradGradGradGradGrad
 Berny optimization.
 Initialization pass.
                           ----------------------------
                           !    Initial Parameters    !
                           ! (Angstroms and Degrees)  !
 --------------------------                            --------------------------
 ! Name  Definition              Value          Derivative Info.                !
 --------------------------------------------------------------------------------
 ! R1    R(1,2)                  1.5185         estimate D2E/DX2                !
 ! R2    R(1,9)                  1.5247         estimate D2E/DX2                !
 ! R3    R(1,10)                 1.0959         estimate D2E/DX2                !
 ! R4    R(1,11)                 1.4252         estimate D2E/DX2                !
 ! R5    R(2,3)                  1.5415         estimate D2E/DX2                !
 ! R6    R(2,4)                  1.4389         estimate D2E/DX2                !
 ! R7    R(2,5)                  1.0939         estimate D2E/DX2                !
 ! R8    R(3,6)                  1.4499         estimate D2E/DX2                !
 ! R9    R(3,7)                  1.0967         estimate D2E/DX2                !
 ! R10   R(3,8)                  1.4669         estimate D2E/DX2                !
 ! R11   R(4,18)                 0.9792         estimate D2E/DX2                !
 ! R12   R(6,9)                  1.4426         estimate D2E/DX2                !
 ! R13   R(8,20)                 1.3823         estimate D2E/DX2                !
 ! R14   R(8,24)                 1.3903         estimate D2E/DX2                !
 ! R15   R(9,12)                 1.5278         estimate D2E/DX2                !
 ! R16   R(9,13)                 1.0977         estimate D2E/DX2                !
 ! R17   R(11,17)                0.9748         estimate D2E/DX2                !
 ! R18   R(12,14)                1.4272         estimate D2E/DX2                !
 ! R19   R(12,15)                1.0943         estimate D2E/DX2                !
 ! R20   R(12,16)                1.0949         estimate D2E/DX2                !
 ! R21   R(14,19)                0.9742         estimate D2E/DX2                !
 ! R22   R(20,21)                1.3346         estimate D2E/DX2                !
 ! R23   R(20,25)                1.086          estimate D2E/DX2                !
 ! R24   R(21,22)                1.4696         estimate D2E/DX2                !
 ! R25   R(21,26)                1.0814         estimate D2E/DX2                !
 ! R26   R(22,23)                1.3634         estimate D2E/DX2                !
 ! R27   R(22,28)                1.2249         estimate D2E/DX2                !
 ! R28   R(23,24)                1.3703         estimate D2E/DX2                !
 ! R29   R(23,27)                1.0077         estimate D2E/DX2                !
 ! R30   R(24,29)                1.2283         estimate D2E/DX2                !
 ! A1    A(2,1,9)              100.7425         estimate D2E/DX2                !
 ! A2    A(2,1,10)             109.2307         estimate D2E/DX2                !
 ! A3    A(2,1,11)             111.134          estimate D2E/DX2                !
 ! A4    A(9,1,10)             112.4993         estimate D2E/DX2                !
 ! A5    A(9,1,11)             113.5321         estimate D2E/DX2                !
 ! A6    A(10,1,11)            109.4027         estimate D2E/DX2                !
 ! A7    A(1,2,3)              101.8386         estimate D2E/DX2                !
 ! A8    A(1,2,4)              108.9097         estimate D2E/DX2                !
 ! A9    A(1,2,5)              113.0749         estimate D2E/DX2                !
 ! A10   A(3,2,4)              111.4039         estimate D2E/DX2                !
 ! A11   A(3,2,5)              114.4356         estimate D2E/DX2                !
 ! A12   A(4,2,5)              107.1132         estimate D2E/DX2                !
 ! A13   A(2,3,6)              107.2509         estimate D2E/DX2                !
 ! A14   A(2,3,7)              110.517          estimate D2E/DX2                !
 ! A15   A(2,3,8)              113.0971         estimate D2E/DX2                !
 ! A16   A(6,3,7)              107.045          estimate D2E/DX2                !
 ! A17   A(6,3,8)              110.3469         estimate D2E/DX2                !
 ! A18   A(7,3,8)              108.4183         estimate D2E/DX2                !
 ! A19   A(2,4,18)             104.8606         estimate D2E/DX2                !
 ! A20   A(3,6,9)              107.5414         estimate D2E/DX2                !
 ! A21   A(3,8,20)             121.9697         estimate D2E/DX2                !
 ! A22   A(3,8,24)             116.6603         estimate D2E/DX2                !
 ! A23   A(20,8,24)            121.3589         estimate D2E/DX2                !
 ! A24   A(1,9,6)              105.6003         estimate D2E/DX2                !
 ! A25   A(1,9,12)             114.375          estimate D2E/DX2                !
 ! A26   A(1,9,13)             111.0252         estimate D2E/DX2                !
 ! A27   A(6,9,12)             110.4855         estimate D2E/DX2                !
 ! A28   A(6,9,13)             107.2954         estimate D2E/DX2                !
 ! A29   A(12,9,13)            107.8534         estimate D2E/DX2                !
 ! A30   A(1,11,17)            106.8043         estimate D2E/DX2                !
 ! A31   A(9,12,14)            111.3614         estimate D2E/DX2                !
 ! A32   A(9,12,15)            110.4515         estimate D2E/DX2                !
 ! A33   A(9,12,16)            110.1447         estimate D2E/DX2                !
 ! A34   A(14,12,15)           107.7041         estimate D2E/DX2                !
 ! A35   A(14,12,16)           107.8245         estimate D2E/DX2                !
 ! A36   A(15,12,16)           109.2713         estimate D2E/DX2                !
 ! A37   A(12,14,19)           106.6979         estimate D2E/DX2                !
 ! A38   A(8,20,21)            122.1203         estimate D2E/DX2                !
 ! A39   A(8,20,25)            117.8486         estimate D2E/DX2                !
 ! A40   A(21,20,25)           120.0299         estimate D2E/DX2                !
 ! A41   A(20,21,22)           118.9409         estimate D2E/DX2                !
 ! A42   A(20,21,26)           123.2409         estimate D2E/DX2                !
 ! A43   A(22,21,26)           117.8179         estimate D2E/DX2                !
 ! A44   A(21,22,23)           115.6607         estimate D2E/DX2                !
 ! A45   A(21,22,28)           121.1388         estimate D2E/DX2                !
 ! A46   A(23,22,28)           123.1991         estimate D2E/DX2                !
 ! A47   A(22,23,24)           126.1177         estimate D2E/DX2                !
 ! A48   A(22,23,27)           117.2429         estimate D2E/DX2                !
 ! A49   A(24,23,27)           116.6354         estimate D2E/DX2                !
 ! A50   A(8,24,23)            115.7924         estimate D2E/DX2                !
 ! A51   A(8,24,29)            124.1332         estimate D2E/DX2                !
 ! A52   A(23,24,29)           120.0673         estimate D2E/DX2                !
 ! D1    D(9,1,2,3)             37.9145         estimate D2E/DX2                !
 ! D2    D(9,1,2,4)            -79.8572         estimate D2E/DX2                !
 ! D3    D(9,1,2,5)            161.1934         estimate D2E/DX2                !
 ! D4    D(10,1,2,3)           -80.6859         estimate D2E/DX2                !
 ! D5    D(10,1,2,4)           161.5424         estimate D2E/DX2                !
 ! D6    D(10,1,2,5)            42.593          estimate D2E/DX2                !
 ! D7    D(11,1,2,3)           158.5134         estimate D2E/DX2                !
 ! D8    D(11,1,2,4)            40.7418         estimate D2E/DX2                !
 ! D9    D(11,1,2,5)           -78.2076         estimate D2E/DX2                !
 ! D10   D(2,1,9,6)            -40.0557         estimate D2E/DX2                !
 ! D11   D(2,1,9,12)          -161.7524         estimate D2E/DX2                !
 ! D12   D(2,1,9,13)            75.9209         estimate D2E/DX2                !
 ! D13   D(10,1,9,6)            76.1407         estimate D2E/DX2                !
 ! D14   D(10,1,9,12)          -45.556          estimate D2E/DX2                !
 ! D15   D(10,1,9,13)         -167.8827         estimate D2E/DX2                !
 ! D16   D(11,1,9,6)          -158.93           estimate D2E/DX2                !
 ! D17   D(11,1,9,12)           79.3734         estimate D2E/DX2                !
 ! D18   D(11,1,9,13)          -42.9533         estimate D2E/DX2                !
 ! D19   D(2,1,11,17)          167.65           estimate D2E/DX2                !
 ! D20   D(9,1,11,17)          -79.6257         estimate D2E/DX2                !
 ! D21   D(10,1,11,17)          46.9507         estimate D2E/DX2                !
 ! D22   D(1,2,3,6)            -24.3572         estimate D2E/DX2                !
 ! D23   D(1,2,3,7)           -140.7117         estimate D2E/DX2                !
 ! D24   D(1,2,3,8)             97.5294         estimate D2E/DX2                !
 ! D25   D(4,2,3,6)             91.6071         estimate D2E/DX2                !
 ! D26   D(4,2,3,7)            -24.7473         estimate D2E/DX2                !
 ! D27   D(4,2,3,8)           -146.5062         estimate D2E/DX2                !
 ! D28   D(5,2,3,6)           -146.7074         estimate D2E/DX2                !
 ! D29   D(5,2,3,7)             96.9382         estimate D2E/DX2                !
 ! D30   D(5,2,3,8)            -24.8208         estimate D2E/DX2                !
 ! D31   D(1,2,4,18)           -43.5908         estimate D2E/DX2                !
 ! D32   D(3,2,4,18)          -155.1338         estimate D2E/DX2                !
 ! D33   D(5,2,4,18)            79.022          estimate D2E/DX2                !
 ! D34   D(2,3,6,9)             -0.4537         estimate D2E/DX2                !
 ! D35   D(7,3,6,9)            118.1702         estimate D2E/DX2                !
 ! D36   D(8,3,6,9)           -124.0447         estimate D2E/DX2                !
 ! D37   D(2,3,8,20)          -100.2252         estimate D2E/DX2                !
 ! D38   D(2,3,8,24)            78.579          estimate D2E/DX2                !
 ! D39   D(6,3,8,20)            19.9078         estimate D2E/DX2                !
 ! D40   D(6,3,8,24)          -161.2879         estimate D2E/DX2                !
 ! D41   D(7,3,8,20)           136.8443         estimate D2E/DX2                !
 ! D42   D(7,3,8,24)           -44.3514         estimate D2E/DX2                !
 ! D43   D(3,6,9,1)             25.4095         estimate D2E/DX2                !
 ! D44   D(3,6,9,12)           149.5851         estimate D2E/DX2                !
 ! D45   D(3,6,9,13)           -93.0854         estimate D2E/DX2                !
 ! D46   D(3,8,20,21)          179.4368         estimate D2E/DX2                !
 ! D47   D(3,8,20,25)           -0.9664         estimate D2E/DX2                !
 ! D48   D(24,8,20,21)           0.6882         estimate D2E/DX2                !
 ! D49   D(24,8,20,25)        -179.715          estimate D2E/DX2                !
 ! D50   D(3,8,24,23)         -179.927          estimate D2E/DX2                !
 ! D51   D(3,8,24,29)           -0.8949         estimate D2E/DX2                !
 ! D52   D(20,8,24,23)          -1.1148         estimate D2E/DX2                !
 ! D53   D(20,8,24,29)         177.9172         estimate D2E/DX2                !
 ! D54   D(1,9,12,14)           47.9764         estimate D2E/DX2                !
 ! D55   D(1,9,12,15)          -71.651          estimate D2E/DX2                !
 ! D56   D(1,9,12,16)          167.5522         estimate D2E/DX2                !
 ! D57   D(6,9,12,14)          -70.9999         estimate D2E/DX2                !
 ! D58   D(6,9,12,15)          169.3728         estimate D2E/DX2                !
 ! D59   D(6,9,12,16)           48.576          estimate D2E/DX2                !
 ! D60   D(13,9,12,14)         172.0152         estimate D2E/DX2                !
 ! D61   D(13,9,12,15)          52.3878         estimate D2E/DX2                !
 ! D62   D(13,9,12,16)         -68.409          estimate D2E/DX2                !
 ! D63   D(9,12,14,19)         169.0961         estimate D2E/DX2                !
 ! D64   D(15,12,14,19)        -69.6591         estimate D2E/DX2                !
 ! D65   D(16,12,14,19)         48.152          estimate D2E/DX2                !
 ! D66   D(8,20,21,22)          -0.065          estimate D2E/DX2                !
 ! D67   D(8,20,21,26)         179.7332         estimate D2E/DX2                !
 ! D68   D(25,20,21,22)       -179.6532         estimate D2E/DX2                !
 ! D69   D(25,20,21,26)          0.145          estimate D2E/DX2                !
 ! D70   D(20,21,22,23)         -0.0635         estimate D2E/DX2                !
 ! D71   D(20,21,22,28)       -179.6556         estimate D2E/DX2                !
 ! D72   D(26,21,22,23)       -179.8726         estimate D2E/DX2                !
 ! D73   D(26,21,22,28)          0.5353         estimate D2E/DX2                !
 ! D74   D(21,22,23,24)         -0.4565         estimate D2E/DX2                !
 ! D75   D(21,22,23,27)       -179.7048         estimate D2E/DX2                !
 ! D76   D(28,22,23,24)        179.1262         estimate D2E/DX2                !
 ! D77   D(28,22,23,27)         -0.1221         estimate D2E/DX2                !
 ! D78   D(22,23,24,8)           1.0325         estimate D2E/DX2                !
 ! D79   D(22,23,24,29)       -178.0417         estimate D2E/DX2                !
 ! D80   D(27,23,24,8)        -179.7152         estimate D2E/DX2                !
 ! D81   D(27,23,24,29)          1.2106         estimate D2E/DX2                !
 --------------------------------------------------------------------------------
 Trust Radius=3.00D-01 FncErr=1.00D-07 GrdErr=1.00D-06 EigMax=2.50D+02 EigMin=1.00D-04
 Number of steps in this run=    173 maximum allowed number of steps=    174.
 GradGradGradGradGradGradGradGradGradGradGradGradGradGradGradGradGradGrad

                          Input orientation:                          
 ---------------------------------------------------------------------
 Center     Atomic      Atomic             Coordinates (Angstroms)
 Number     Number       Type             X           Y           Z
 ---------------------------------------------------------------------
      1          6           0       -3.042157   -1.724730    0.798502
      2          6           0       -2.307370   -1.376217   -0.483901
      3          6           0       -1.885104    0.082638   -0.219963
      4          8           0       -3.226833   -1.465347   -1.587138
      5          1           0       -1.477669   -2.055284   -0.700710
      6          8           0       -2.807821    0.627337    0.756868
      7          1           0       -1.989661    0.683927   -1.131192
      8          7           0       -0.504160    0.204208    0.259620
      9          6           0       -3.757402   -0.408563    1.082900
     10          1           0       -2.312101   -1.981484    1.574455
     11          8           0       -3.928733   -2.822959    0.600544
     12          6           0       -4.244188   -0.253773    2.522829
     13          1           0       -4.622305   -0.278994    0.419496
     14          8           0       -3.218616   -0.588677    3.457136
     15          1           0       -5.095415   -0.914984    2.711855
     16          1           0       -4.543062    0.782679    2.710466
     17          1           0       -4.211674   -3.119678    1.484902
     18          1           0       -3.730503   -2.289891   -1.428292
     19          1           0       -3.533992   -0.302685    4.333430
     20          6           0       -0.207123    0.381811    1.597872
     21          6           0        1.048550    0.481748    2.038852
     22          6           0        2.151025    0.398905    1.070641
     23          7           0        1.782518    0.220805   -0.229909
     24          6           0        0.499521    0.106308   -0.697490
     25          1           0       -1.035503    0.446250    2.297189
     26          1           0        1.301384    0.625007    3.080486
     27          1           0        2.519989    0.156167   -0.913622
     28          8           0        3.318643    0.479336    1.431889
     29          8           0        0.295264   -0.088151   -1.893015
 ---------------------------------------------------------------------
                    Distance matrix (angstroms):
                    1          2          3          4          5
     1  C    0.000000
     2  C    1.518529   0.000000
     3  C    2.375421   1.541503   0.000000
     4  O    2.406796   1.438920   2.462857   0.000000
     5  H    2.191923   1.093866   2.228863   2.047769   0.000000
     6  O    2.364077   2.409188   1.449932   3.170057   3.330209
     7  H    3.260842   2.182686   1.096731   2.521479   2.819703
     8  N    3.233052   2.510405   1.466896   3.689293   2.641071
     9  C    1.524713   2.343888   2.333288   2.920171   3.330185
    10  H    1.095905   2.145506   2.768188   3.331487   2.424479
    11  O    1.425241   2.428559   3.645840   2.668656   2.879289
    12  C    2.565520   3.748543   3.633368   4.403948   4.614139
    13  H    2.175009   2.716422   2.834071   2.716865   3.781376
    14  O    2.896565   4.120966   3.968625   5.119895   4.740202
    15  H    2.921040   4.266003   4.460595   4.719728   5.102349
    16  H    3.492194   4.456807   4.017738   5.025483   5.393217
    17  H    1.945455   3.246877   4.309794   3.625486   3.658500
    18  H    2.398299   1.937004   3.239514   0.979178   2.379008
    19  H    3.841851   5.085641   4.858055   6.041461   5.713373
    20  C    3.621315   3.440272   2.491916   4.761820   3.582903
    21  C    4.810498   4.591134   3.723957   5.934466   4.508160
    22  C    5.617208   5.044299   4.249238   6.281767   4.725267
    23  N    5.302851   4.397974   3.670236   5.456994   4.003879
    24  C    4.258425   3.181531   2.432083   4.140929   2.929466
    25  H    3.314495   3.559985   2.681435   4.852230   3.929451
    26  H    5.440134   5.452784   4.619614   6.830889   5.404122
    27  H    6.116095   5.082938   4.459979   6.009068   4.573523
    28  O    6.761573   6.226183   5.474026   7.465894   5.828969
    29  O    4.589231   3.227758   2.753593   3.794127   2.904220
                    6          7          8          9         10
     6  O    0.000000
     7  H    2.058485   0.000000
     8  N    2.394399   2.090742   0.000000
     9  C    1.442598   3.036551   3.411284   0.000000
    10  H    2.778513   3.811680   3.126450   2.191940   0.000000
    11  O    3.631173   4.365450   4.583412   2.468062   2.066418
    12  C    2.440927   4.394775   4.395415   1.527848   2.759957
    13  H    2.056114   3.203539   4.149477   1.097702   3.093452
    14  O    2.989798   4.917582   4.268612   2.441256   2.511209
    15  H    3.381392   5.193383   5.324065   2.168003   3.190288
    16  H    2.617582   4.613886   4.759622   2.164554   3.729385
    17  H    4.067057   5.123348   5.127884   2.778149   2.216277
    18  H    3.759852   3.458669   4.413487   3.137866   3.335186
    19  H    3.766173   5.763719   5.102229   3.259918   3.453017
    20  C    2.744303   3.273607   1.382277   3.673467   3.164908
    21  C    4.066482   4.395541   2.377730   4.980328   4.192511
    22  C    4.974012   4.698361   2.783105   5.963360   5.083265
    23  N    4.712771   3.905909   2.338548   5.728026   4.987154
    24  C    3.650362   2.591867   1.390331   4.642873   4.174425
    25  H    2.355100   3.566610   2.119575   3.100635   2.836537
    26  H    4.720675   5.345342   3.375551   5.536238   4.703105
    27  H    5.603401   4.545637   3.244116   6.611404   5.840306
    28  O    6.165316   5.898249   4.007959   7.140068   6.146645
    29  O    4.142818   2.529301   2.314820   5.038138   4.733541
                   11         12         13         14         15
    11  O    0.000000
    12  C    3.224191   0.000000
    13  H    2.643024   2.137199   0.000000
    14  O    3.695457   1.427196   3.360581   0.000000
    15  H    3.075573   1.094312   2.425536   2.045556   0.000000
    16  H    4.222534   1.094882   2.526257   2.047509   1.785261
    17  H    0.974775   3.048239   3.061567   3.358845   2.673403
    18  H    2.107043   4.474484   2.872862   5.198419   4.571014
    19  H    4.521287   1.945519   4.062495   0.974240   2.332907
    20  C    5.011546   4.190156   4.617257   3.669850   5.178613
    21  C    6.145174   5.365473   5.946397   4.622341   6.336568
    22  C    6.896728   6.590417   6.838241   5.958500   7.545250
    23  N    6.524763   6.642588   6.457033   6.265852   7.566370
    24  C    5.465797   5.744815   5.256350   5.618582   6.630987
    25  H    4.683707   3.291901   4.113011   2.680025   4.302069
    26  H    6.737411   5.642394   6.556537   4.695242   6.589879
    27  H    7.263189   7.598115   7.278663   7.251890   8.502108
    28  O    8.007543   7.676198   8.041061   6.926618   8.624316
    29  O    5.615974   6.335120   5.437519   6.420436   7.137780
                   16         17         18         19         20
    16  H    0.000000
    17  H    4.103683   0.000000
    18  H    5.218262   3.067045   0.000000
    19  H    2.197783   4.063104   6.097953   0.000000
    20  C    4.494322   5.320678   5.358158   4.361178   0.000000
    21  C    5.639836   6.398991   6.522455   5.184603   1.334603
    22  C    6.902689   7.282581   6.933013   6.592226   2.416429
    23  N    6.998176   7.073170   6.175202   7.025908   2.706543
    24  C    6.123667   6.112707   4.916193   6.461165   2.417422
    25  H    3.547810   4.843936   5.350580   3.309022   1.086007
    26  H    5.858271   6.852909   7.358369   5.080487   2.129057
    27  H    7.963243   7.861258   6.731771   8.024512   3.714251
    28  O    7.970771   8.346340   8.095660   7.482587   3.531018
    29  O    6.734968   6.396325   4.611988   7.312855   3.558026
                   21         22         23         24         25
    21  C    0.000000
    22  C    1.469608   0.000000
    23  N    2.398765   1.363432   0.000000
    24  C    2.816017   2.437081   1.370336   0.000000
    25  H    2.100303   3.414766   3.791871   3.382301   0.000000
    26  H    1.081411   2.193738   3.369508   3.896810   2.471143
    27  H    3.314852   2.032820   1.007724   2.032607   4.799477
    28  O    2.349837   1.224867   2.277738   3.552583   4.439417
    29  O    4.043736   3.530486   2.252399   1.228339   4.428808
                   26         27         28         29
    26  H    0.000000
    27  H    4.202108   0.000000
    28  O    2.609296   2.498741   0.000000
    29  O    5.124118   2.443011   4.529663   0.000000
 Stoichiometry    C9H12N2O6
 Framework group  C1[X(C9H12N2O6)]
 Deg. of freedom    81
 Full point group                 C1      NOp   1
 Largest Abelian subgroup         C1      NOp   1
 Largest concise Abelian subgroup C1      NOp   1
                         Standard orientation:                         
 ---------------------------------------------------------------------
 Center     Atomic      Atomic             Coordinates (Angstroms)
 Number     Number       Type             X           Y           Z
 ---------------------------------------------------------------------
      1          6           0       -2.036826   -0.243127    0.786557
      2          6           0       -1.106601   -1.374507    0.385817
      3          6           0       -0.341712   -0.750676   -0.798248
      4          8           0       -1.896774   -2.501177   -0.034578
      5          1           0       -0.469277   -1.716577    1.206395
      6          8           0       -1.182938    0.292466   -1.351872
      7          1           0       -0.187378   -1.493417   -1.590292
      8          7           0        0.964242   -0.203249   -0.415370
      9          6           0       -2.402198    0.322457   -0.581423
     10          1           0       -1.486049    0.475506    1.403986
     11          8           0       -3.157762   -0.733881    1.517292
     12          6           0       -2.977385    1.737445   -0.545575
     13          1           0       -3.127716   -0.322870   -1.093406
     14          8           0       -2.180614    2.602157    0.263324
     15          1           0       -3.988573    1.728671   -0.127317
     16          1           0       -3.007956    2.157763   -1.556102
     17          1           0       -3.599763    0.041335    1.909545
     18          1           0       -2.615114   -2.565238    0.627745
     19          1           0       -2.498031    3.508768    0.100706
     20          6           0        1.156929    1.148743   -0.201648
     21          6           0        2.341086    1.648707    0.157478
     22          6           0        3.476420    0.732161    0.332720
     23          7           0        3.211180   -0.586136    0.107580
     24          6           0        1.999733   -1.116455   -0.251555
     25          1           0        0.307374    1.810622   -0.341592
     26          1           0        2.513135    2.703078    0.325259
     27          1           0        3.971930   -1.236422    0.225452
     28          8           0        4.579293    1.146720    0.667551
     29          8           0        1.876644   -2.330539   -0.391792
 ---------------------------------------------------------------------
 Rotational constants (GHZ):           0.7970329           0.3184285           0.2552677
 Standard basis: Aug-CC-pVDZ (5D, 7F)
 There are   533 symmetry adapted cartesian basis functions of A   symmetry.
 There are   499 symmetry adapted basis functions of A   symmetry.
   499 basis functions,   863 primitive gaussians,   533 cartesian basis functions
    64 alpha electrons       64 beta electrons
       nuclear repulsion energy      1316.7278020115 Hartrees.
 NAtoms=   29 NActive=   29 NUniq=   29 SFac= 1.00D+00 NAtFMM=   60 NAOKFM=F Big=F
 Integral buffers will be    131072 words long.
 Raffenetti 2 integral format.
 Two-electron integral symmetry is turned on.
 Nuclear repulsion after empirical dispersion term =     1316.7078395162 Hartrees.
 One-electron integrals computed using PRISM.
 NBasis=   499 RedAO= T EigKep=  3.18D-06  NBF=   499
 NBsUse=   499 1.00D-06 EigRej= -1.00D+00 NBFU=   499
 ExpMin= 2.97D-02 ExpMax= 1.17D+04 ExpMxC= 4.01D+02 IAcc=3 IRadAn=         5 AccDes= 0.00D+00
 Harris functional with IExCor= 1009 and IRadAn=       5 diagonalized for initial guess.
 HarFok:  IExCor= 1009 AccDes= 0.00D+00 IRadAn=         5 IDoV= 1 UseB2=F ITyADJ=14
 ICtDFT=  3500011 ScaDFX=  1.000000  1.000000  1.000000  1.000000
 FoFCou: FMM=F IPFlag=           0 FMFlag=      100000 FMFlg1=           0
         NFxFlg=           0 DoJE=T BraDBF=F KetDBF=T FulRan=T
         wScrn=  0.000000 ICntrl=       500 IOpCl=  0 I1Cent=   200000004 NGrid=           0
         NMat0=    1 NMatS0=      1 NMatT0=    0 NMatD0=    1 NMtDS0=    0 NMtDT0=    0
 Petite list used in FoFCou.
 Requested convergence on RMS density matrix=1.00D-08 within 128 cycles.
 Requested convergence on MAX density matrix=1.00D-06.
 Requested convergence on             energy=1.00D-06.
 No special actions if energy rises.
 SCF Done:  E(RPBE1PBE) =  -910.202785145     A.U. after   14 cycles
            NFock= 14  Conv=0.50D-08     -V/T= 2.0056

 **********************************************************************

            Population analysis using the SCF Density.

 **********************************************************************

 Orbital symmetries:
       Occupied  (A) (A) (A) (A) (A) (A) (A) (A) (A) (A) (A) (A)
                 (A) (A) (A) (A) (A) (A) (A) (A) (A) (A) (A) (A)
                 (A) (A) (A) (A) (A) (A) (A) (A) (A) (A) (A) (A)
                 (A) (A) (A) (A) (A) (A) (A) (A) (A) (A) (A) (A)
                 (A) (A) (A) (A) (A) (A) (A) (A) (A) (A) (A) (A)
                 (A) (A) (A) (A)
       Virtual   (A) (A) (A) (A) (A) (A) (A) (A) (A) (A) (A) (A)
                 (A) (A) (A) (A) (A) (A) (A) (A) (A) (A) (A) (A)
                 (A) (A) (A) (A) (A) (A) (A) (A) (A) (A) (A) (A)
                 (A) (A) (A) (A) (A) (A) (A) (A) (A) (A) (A) (A)
                 (A) (A) (A) (A) (A) (A) (A) (A) (A) (A) (A) (A)
                 (A) (A) (A) (A) (A) (A) (A) (A) (A) (A) (A) (A)
                 (A) (A) (A) (A) (A) (A) (A) (A) (A) (A) (A) (A)
                 (A) (A) (A) (A) (A) (A) (A) (A) (A) (A) (A) (A)
                 (A) (A) (A) (A) (A) (A) (A) (A) (A) (A) (A) (A)
                 (A) (A) (A) (A) (A) (A) (A) (A) (A) (A) (A) (A)
                 (A) (A) (A) (A) (A) (A) (A) (A) (A) (A) (A) (A)
                 (A) (A) (A) (A) (A) (A) (A) (A) (A) (A) (A) (A)
                 (A) (A) (A) (A) (A) (A) (A) (A) (A) (A) (A) (A)
                 (A) (A) (A) (A) (A) (A) (A) (A) (A) (A) (A) (A)
                 (A) (A) (A) (A) (A) (A) (A) (A) (A) (A) (A) (A)
                 (A) (A) (A) (A) (A) (A) (A) (A) (A) (A) (A) (A)
                 (A) (A) (A) (A) (A) (A) (A) (A) (A) (A) (A) (A)
                 (A) (A) (A) (A) (A) (A) (A) (A) (A) (A) (A) (A)
                 (A) (A) (A) (A) (A) (A) (A) (A) (A) (A) (A) (A)
                 (A) (A) (A) (A) (A) (A) (A) (A) (A) (A) (A) (A)
                 (A) (A) (A) (A) (A) (A) (A) (A) (A) (A) (A) (A)
                 (A) (A) (A) (A) (A) (A) (A) (A) (A) (A) (A) (A)
                 (A) (A) (A) (A) (A) (A) (A) (A) (A) (A) (A) (A)
                 (A) (A) (A) (A) (A) (A) (A) (A) (A) (A) (A) (A)
                 (A) (A) (A) (A) (A) (A) (A) (A) (A) (A) (A) (A)
                 (A) (A) (A) (A) (A) (A) (A) (A) (A) (A) (A) (A)
                 (A) (A) (A) (A) (A) (A) (A) (A) (A) (A) (A) (A)
                 (A) (A) (A) (A) (A) (A) (A) (A) (A) (A) (A) (A)
                 (A) (A) (A) (A) (A) (A) (A) (A) (A) (A) (A) (A)
                 (A) (A) (A) (A) (A) (A) (A) (A) (A) (A) (A) (A)
                 (A) (A) (A) (A) (A) (A) (A) (A) (A) (A) (A) (A)
                 (A) (A) (A) (A) (A) (A) (A) (A) (A) (A) (A) (A)
                 (A) (A) (A) (A) (A) (A) (A) (A) (A) (A) (A) (A)
                 (A) (A) (A) (A) (A) (A) (A) (A) (A) (A) (A) (A)
                 (A) (A) (A) (A) (A) (A) (A) (A) (A) (A) (A) (A)
                 (A) (A) (A) (A) (A) (A) (A) (A) (A) (A) (A) (A)
                 (A) (A) (A)
 The electronic state is 1-A.
 Alpha  occ. eigenvalues --  -19.26932 -19.26802 -19.25890 -19.23973 -19.21141
 Alpha  occ. eigenvalues --  -19.19618 -14.48014 -14.45927 -10.39098 -10.35202
 Alpha  occ. eigenvalues --  -10.34799 -10.31301 -10.31215 -10.30997 -10.30889
 Alpha  occ. eigenvalues --  -10.30577 -10.24797  -1.12649  -1.11219  -1.09310
 Alpha  occ. eigenvalues --   -1.08367  -1.07495  -1.05840  -1.01591  -0.97407
 Alpha  occ. eigenvalues --   -0.83914  -0.82759  -0.80052  -0.73323  -0.71671
 Alpha  occ. eigenvalues --   -0.68267  -0.64513  -0.63877  -0.60433  -0.59350
 Alpha  occ. eigenvalues --   -0.58184  -0.55336  -0.54958  -0.54283  -0.51600
 Alpha  occ. eigenvalues --   -0.51267  -0.51057  -0.48132  -0.47295  -0.47080
 Alpha  occ. eigenvalues --   -0.46010  -0.45119  -0.44872  -0.43432  -0.42823
 Alpha  occ. eigenvalues --   -0.41770  -0.41184  -0.40436  -0.38756  -0.38389
 Alpha  occ. eigenvalues --   -0.35175  -0.32995  -0.32431  -0.31847  -0.30903
 Alpha  occ. eigenvalues --   -0.30600  -0.30095  -0.27663  -0.26006
 Alpha virt. eigenvalues --   -0.03775  -0.02966  -0.01209  -0.00179   0.00064
 Alpha virt. eigenvalues --    0.00547   0.01724   0.02213   0.02573   0.02869
 Alpha virt. eigenvalues --    0.03009   0.04065   0.05022   0.05532   0.05623
 Alpha virt. eigenvalues --    0.05964   0.06415   0.06876   0.07386   0.08029
 Alpha virt. eigenvalues --    0.08344   0.08672   0.09155   0.09508   0.09681
 Alpha virt. eigenvalues --    0.09887   0.10491   0.10515   0.10851   0.11065
 Alpha virt. eigenvalues --    0.11414   0.11485   0.11929   0.12350   0.12656
 Alpha virt. eigenvalues --    0.12699   0.13003   0.13285   0.13769   0.14091
 Alpha virt. eigenvalues --    0.14201   0.14745   0.15240   0.15684   0.16064
 Alpha virt. eigenvalues --    0.16265   0.16463   0.17112   0.17511   0.17822
 Alpha virt. eigenvalues --    0.18239   0.18536   0.19106   0.19397   0.20073
 Alpha virt. eigenvalues --    0.20805   0.21183   0.21375   0.21479   0.22133
 Alpha virt. eigenvalues --    0.22403   0.22684   0.23083   0.23302   0.23433
 Alpha virt. eigenvalues --    0.23480   0.24579   0.24671   0.25126   0.25319
 Alpha virt. eigenvalues --    0.25729   0.26092   0.26246   0.26810   0.27047
 Alpha virt. eigenvalues --    0.27545   0.27853   0.28032   0.28384   0.28781
 Alpha virt. eigenvalues --    0.29044   0.29329   0.29955   0.30152   0.30374
 Alpha virt. eigenvalues --    0.30800   0.31259   0.31452   0.31746   0.32215
 Alpha virt. eigenvalues --    0.32484   0.32853   0.33755   0.33962   0.34303
 Alpha virt. eigenvalues --    0.34638   0.35076   0.35584   0.35793   0.36699
 Alpha virt. eigenvalues --    0.36808   0.37233   0.37503   0.38141   0.38503
 Alpha virt. eigenvalues --    0.38882   0.39342   0.39986   0.40019   0.40755
 Alpha virt. eigenvalues --    0.40970   0.41664   0.42271   0.43157   0.43380
 Alpha virt. eigenvalues --    0.43935   0.44275   0.44493   0.45569   0.45912
 Alpha virt. eigenvalues --    0.46100   0.47068   0.47310   0.47707   0.48453
 Alpha virt. eigenvalues --    0.48780   0.49279   0.49514   0.50469   0.50971
 Alpha virt. eigenvalues --    0.52170   0.52354   0.52555   0.53157   0.53303
 Alpha virt. eigenvalues --    0.54213   0.54545   0.54690   0.55200   0.55891
 Alpha virt. eigenvalues --    0.56118   0.56391   0.57601   0.58235   0.59258
 Alpha virt. eigenvalues --    0.59682   0.59917   0.61064   0.61246   0.61578
 Alpha virt. eigenvalues --    0.62245   0.62676   0.63032   0.63712   0.63925
 Alpha virt. eigenvalues --    0.64221   0.65362   0.65653   0.66347   0.67247
 Alpha virt. eigenvalues --    0.67452   0.67601   0.68207   0.68572   0.69174
 Alpha virt. eigenvalues --    0.69924   0.70148   0.70881   0.71449   0.71791
 Alpha virt. eigenvalues --    0.71919   0.72732   0.73702   0.74069   0.74691
 Alpha virt. eigenvalues --    0.74899   0.75679   0.75984   0.76139   0.76671
 Alpha virt. eigenvalues --    0.77936   0.78238   0.78459   0.79317   0.80158
 Alpha virt. eigenvalues --    0.80642   0.81076   0.81864   0.83033   0.83661
 Alpha virt. eigenvalues --    0.84581   0.85174   0.85485   0.86000   0.86537
 Alpha virt. eigenvalues --    0.87396   0.87873   0.88598   0.89650   0.89880
 Alpha virt. eigenvalues --    0.90831   0.91145   0.92697   0.92980   0.94377
 Alpha virt. eigenvalues --    0.94824   0.95731   0.96301   0.96975   0.98039
 Alpha virt. eigenvalues --    0.98845   1.01198   1.02470   1.02592   1.02904
 Alpha virt. eigenvalues --    1.03979   1.05058   1.05467   1.05918   1.07014
 Alpha virt. eigenvalues --    1.07217   1.08591   1.09322   1.10241   1.10598
 Alpha virt. eigenvalues --    1.11598   1.13007   1.13390   1.15251   1.15550
 Alpha virt. eigenvalues --    1.16888   1.17178   1.18287   1.19648   1.19784
 Alpha virt. eigenvalues --    1.20394   1.21531   1.22484   1.24211   1.24424
 Alpha virt. eigenvalues --    1.25462   1.25984   1.26882   1.28421   1.29184
 Alpha virt. eigenvalues --    1.30716   1.31249   1.31787   1.33169   1.34048
 Alpha virt. eigenvalues --    1.34340   1.34580   1.36569   1.37572   1.37790
 Alpha virt. eigenvalues --    1.39441   1.39978   1.42455   1.42875   1.43773
 Alpha virt. eigenvalues --    1.44562   1.46208   1.46914   1.47715   1.48819
 Alpha virt. eigenvalues --    1.49661   1.50122   1.51780   1.52885   1.53041
 Alpha virt. eigenvalues --    1.53789   1.53983   1.54939   1.55677   1.56660
 Alpha virt. eigenvalues --    1.56989   1.58594   1.59055   1.60482   1.60783
 Alpha virt. eigenvalues --    1.62055   1.64144   1.65116   1.66724   1.67502
 Alpha virt. eigenvalues --    1.67957   1.68763   1.70653   1.71343   1.71970
 Alpha virt. eigenvalues --    1.72929   1.74560   1.74897   1.75515   1.76622
 Alpha virt. eigenvalues --    1.77918   1.78339   1.79653   1.80146   1.81284
 Alpha virt. eigenvalues --    1.81521   1.82867   1.85086   1.85618   1.85952
 Alpha virt. eigenvalues --    1.85976   1.87033   1.87825   1.89271   1.90224
 Alpha virt. eigenvalues --    1.92111   1.92637   1.93228   1.94537   1.95240
 Alpha virt. eigenvalues --    1.96273   1.98497   2.00513   2.00752   2.01361
 Alpha virt. eigenvalues --    2.02634   2.03153   2.04784   2.05880   2.06854
 Alpha virt. eigenvalues --    2.07785   2.09245   2.09494   2.10859   2.11319
 Alpha virt. eigenvalues --    2.11488   2.12033   2.14156   2.15582   2.15785
 Alpha virt. eigenvalues --    2.17965   2.18469   2.20877   2.21345   2.22460
 Alpha virt. eigenvalues --    2.22900   2.23365   2.24676   2.25968   2.27460
 Alpha virt. eigenvalues --    2.27976   2.28467   2.29843   2.32596   2.33295
 Alpha virt. eigenvalues --    2.34424   2.37426   2.39466   2.39883   2.40971
 Alpha virt. eigenvalues --    2.42437   2.45219   2.46103   2.47621   2.48947
 Alpha virt. eigenvalues --    2.49826   2.50705   2.52081   2.52278   2.54290
 Alpha virt. eigenvalues --    2.54889   2.57145   2.58987   2.60732   2.60985
 Alpha virt. eigenvalues --    2.62357   2.65194   2.65209   2.68276   2.70172
 Alpha virt. eigenvalues --    2.71887   2.74259   2.75671   2.76800   2.77956
 Alpha virt. eigenvalues --    2.79610   2.80565   2.82538   2.85048   2.86212
 Alpha virt. eigenvalues --    2.90451   2.90787   2.95106   2.96813   2.99614
 Alpha virt. eigenvalues --    3.00416   3.10391   3.13861   3.17200   3.19537
 Alpha virt. eigenvalues --    3.22455   3.26382   3.31995   3.37115   3.38961
 Alpha virt. eigenvalues --    3.40422   3.41576   3.43808   3.44282   3.45380
 Alpha virt. eigenvalues --    3.46605   3.48088   3.48785   3.49411   3.50501
 Alpha virt. eigenvalues --    3.51067   3.53051   3.53909   3.55011   3.55646
 Alpha virt. eigenvalues --    3.57059   3.58825   3.61424   3.62743   3.65045
 Alpha virt. eigenvalues --    3.65592   3.67633   3.70995   3.73752   3.75476
 Alpha virt. eigenvalues --    3.78104   3.83623   3.84744   3.88978   3.97062
 Alpha virt. eigenvalues --    4.02971   4.05198   4.09629   4.20588   4.64103
          Condensed to atoms (all electrons):
               1          2          3          4          5          6
     1  C   10.309557  -3.061803   0.800428   0.325288   0.666201  -0.073433
     2  C   -3.061803  10.826428  -3.061486  -0.657841  -1.395959   0.035524
     3  C    0.800428  -3.061486  12.165599   0.151145   0.385329  -0.147022
     4  O    0.325288  -0.657841   0.151145   8.721071  -0.006707   0.010919
     5  H    0.666201  -1.395959   0.385329  -0.006707   2.225383   0.012770
     6  O   -0.073433   0.035524  -0.147022   0.010919   0.012770   9.431576
     7  H    0.175232   0.204471  -0.765472  -0.044670   0.062867  -0.265350
     8  N    0.068230   0.530523  -0.887211   0.028959  -0.218233  -0.085531
     9  C   -2.641756   0.869857  -2.076806  -0.063165  -0.029835   0.111910
    10  H   -1.051115   0.269373  -0.324157  -0.016050  -0.147679   0.029889
    11  O   -0.629532   0.208635   0.041166  -0.030875  -0.019725  -0.007925
    12  C   -0.013849  -0.258786   0.183838   0.020686   0.016507  -0.088894
    13  H    0.407290  -0.166896   0.257363  -0.013947  -0.001981  -0.121905
    14  O    0.027274  -0.013613   0.005994   0.001158  -0.002639   0.000303
    15  H   -0.076029   0.098418  -0.022686  -0.003298   0.001075   0.082814
    16  H    0.051133  -0.036868  -0.028827   0.002130   0.001158  -0.069301
    17  H    0.224699  -0.067867   0.009020   0.006640   0.011553  -0.005343
    18  H   -0.200181   0.147773  -0.048021   0.281186  -0.044657   0.002132
    19  H   -0.011058   0.008591  -0.014715  -0.000211  -0.000028  -0.006366
    20  C   -0.488333   0.847491  -1.963725  -0.019192  -0.095825   0.264138
    21  C    0.105056  -0.176495   0.304622   0.007905   0.025073  -0.037933
    22  C    0.004981   0.045435  -0.284500  -0.000618  -0.006076   0.003162
    23  N   -0.034616   0.099461  -0.147944  -0.001355  -0.015097   0.001552
    24  C    0.287062  -0.425123   0.256056   0.012495   0.069199  -0.116536
    25  H    0.050494  -0.139995   0.173128  -0.002001  -0.008943  -0.158144
    26  H    0.002486   0.002663   0.006663   0.000221   0.000117  -0.001543
    27  H    0.004422  -0.011954  -0.002675   0.000296  -0.000436   0.000138
    28  O   -0.000532   0.001624   0.002421  -0.000028   0.000583   0.000546
    29  O   -0.001546  -0.016823   0.137307   0.001534   0.017858   0.002299
               7          8          9         10         11         12
     1  C    0.175232   0.068230  -2.641756  -1.051115  -0.629532  -0.013849
     2  C    0.204471   0.530523   0.869857   0.269373   0.208635  -0.258786
     3  C   -0.765472  -0.887211  -2.076806  -0.324157   0.041166   0.183838
     4  O   -0.044670   0.028959  -0.063165  -0.016050  -0.030875   0.020686
     5  H    0.062867  -0.218233  -0.029835  -0.147679  -0.019725   0.016507
     6  O   -0.265350  -0.085531   0.111910   0.029889  -0.007925  -0.088894
     7  H    1.941823  -0.052288   0.059836  -0.013123  -0.005912  -0.006701
     8  N   -0.052288   8.180255   0.054908  -0.005554  -0.007004   0.045238
     9  C    0.059836   0.054908   9.748718   0.384733   0.336237  -0.331824
    10  H   -0.013123  -0.005554   0.384733   2.368882  -0.101300  -0.102603
    11  O   -0.005912  -0.007004   0.336237  -0.101300   8.577725  -0.018214
    12  C   -0.006701   0.045238  -0.331824  -0.102603  -0.018214   5.234523
    13  H    0.003072  -0.010716  -1.248318   0.116265  -0.043381  -0.014871
    14  O   -0.001399   0.016600  -0.241111   0.016215   0.005282   0.260581
    15  H   -0.004581  -0.005961   0.217625  -0.015449  -0.000017  -0.119727
    16  H    0.001738   0.009834   0.133458   0.014380  -0.002020   0.035574
    17  H    0.002189   0.001638  -0.099733  -0.119310   0.302039   0.010195
    18  H   -0.009167   0.002694   0.045746   0.025409   0.050232  -0.011788
    19  H   -0.000338  -0.001810   0.056753  -0.005407   0.000134  -0.071280
    20  C   -0.009085   0.115429   0.400827   0.174283  -0.009910  -0.067827
    21  C   -0.013850  -0.275980  -0.010471  -0.044765   0.001726  -0.009332
    22  C    0.006642  -0.111074   0.004923   0.010058  -0.000400  -0.007145
    23  N   -0.001058   0.018275   0.011105  -0.001382   0.000778   0.000296
    24  C    0.137974  -0.318373  -0.244175  -0.028204  -0.006225  -0.000092
    25  H    0.022409  -0.060345  -0.035633  -0.000304   0.001017  -0.003810
    26  H   -0.002114   0.040444  -0.007478  -0.002104   0.000113   0.000494
    27  H    0.002280   0.075749  -0.001520   0.000310  -0.000067  -0.000162
    28  O   -0.000164  -0.008536   0.001149  -0.000210  -0.000007   0.000032
    29  O    0.032380  -0.183040   0.011177  -0.001894   0.000448   0.001193
              13         14         15         16         17         18
     1  C    0.407290   0.027274  -0.076029   0.051133   0.224699  -0.200181
     2  C   -0.166896  -0.013613   0.098418  -0.036868  -0.067867   0.147773
     3  C    0.257363   0.005994  -0.022686  -0.028827   0.009020  -0.048021
     4  O   -0.013947   0.001158  -0.003298   0.002130   0.006640   0.281186
     5  H   -0.001981  -0.002639   0.001075   0.001158   0.011553  -0.044657
     6  O   -0.121905   0.000303   0.082814  -0.069301  -0.005343   0.002132
     7  H    0.003072  -0.001399  -0.004581   0.001738   0.002189  -0.009167
     8  N   -0.010716   0.016600  -0.005961   0.009834   0.001638   0.002694
     9  C   -1.248318  -0.241111   0.217625   0.133458  -0.099733   0.045746
    10  H    0.116265   0.016215  -0.015449   0.014380  -0.119310   0.025409
    11  O   -0.043381   0.005282  -0.000017  -0.002020   0.302039   0.050232
    12  C   -0.014871   0.260581  -0.119727   0.035574   0.010195  -0.011788
    13  H    2.516296   0.050890  -0.156633  -0.008633  -0.001957   0.007272
    14  O    0.050890   8.294417  -0.150919  -0.017581  -0.002921   0.000043
    15  H   -0.156633  -0.150919   1.765844  -0.289375  -0.003485   0.001447
    16  H   -0.008633  -0.017581  -0.289375   1.476269   0.000126  -0.001296
    17  H   -0.001957  -0.002921  -0.003485   0.000126   0.604733  -0.009026
    18  H    0.007272   0.000043   0.001447  -0.001296  -0.009026   0.554327
    19  H    0.003172   0.367367   0.008533  -0.053075  -0.000332   0.000027
    20  C   -0.012181  -0.010621  -0.001606   0.019000  -0.010740   0.009512
    21  C   -0.007447   0.003090  -0.002692   0.006888   0.002508  -0.001261
    22  C    0.000861  -0.000321  -0.000282   0.000438   0.000021   0.000126
    23  N   -0.000401   0.000329   0.000189  -0.000237  -0.000156   0.000962
    24  C    0.002678   0.002339  -0.003186   0.004906   0.004164  -0.007370
    25  H    0.008424   0.000001  -0.004239   0.004675   0.000833   0.000759
    26  H   -0.000263   0.001838  -0.000117   0.000040   0.000013  -0.000029
    27  H    0.000012   0.000044  -0.000044   0.000038   0.000062  -0.000078
    28  O    0.000024   0.000004   0.000013  -0.000005  -0.000010  -0.000012
    29  O   -0.000603   0.000004   0.000102   0.000047   0.000062   0.000571
              19         20         21         22         23         24
     1  C   -0.011058  -0.488333   0.105056   0.004981  -0.034616   0.287062
     2  C    0.008591   0.847491  -0.176495   0.045435   0.099461  -0.425123
     3  C   -0.014715  -1.963725   0.304622  -0.284500  -0.147944   0.256056
     4  O   -0.000211  -0.019192   0.007905  -0.000618  -0.001355   0.012495
     5  H   -0.000028  -0.095825   0.025073  -0.006076  -0.015097   0.069199
     6  O   -0.006366   0.264138  -0.037933   0.003162   0.001552  -0.116536
     7  H   -0.000338  -0.009085  -0.013850   0.006642  -0.001058   0.137974
     8  N   -0.001810   0.115429  -0.275980  -0.111074   0.018275  -0.318373
     9  C    0.056753   0.400827  -0.010471   0.004923   0.011105  -0.244175
    10  H   -0.005407   0.174283  -0.044765   0.010058  -0.001382  -0.028204
    11  O    0.000134  -0.009910   0.001726  -0.000400   0.000778  -0.006225
    12  C   -0.071280  -0.067827  -0.009332  -0.007145   0.000296  -0.000092
    13  H    0.003172  -0.012181  -0.007447   0.000861  -0.000401   0.002678
    14  O    0.367367  -0.010621   0.003090  -0.000321   0.000329   0.002339
    15  H    0.008533  -0.001606  -0.002692  -0.000282   0.000189  -0.003186
    16  H   -0.053075   0.019000   0.006888   0.000438  -0.000237   0.004906
    17  H   -0.000332  -0.010740   0.002508   0.000021  -0.000156   0.004164
    18  H    0.000027   0.009512  -0.001261   0.000126   0.000962  -0.007370
    19  H    0.564234  -0.000134   0.000321  -0.000324   0.000013  -0.000898
    20  C   -0.000134   9.892007  -2.263882   0.162578   0.178570  -1.439166
    21  C    0.000321  -2.263882   9.393642  -1.683587  -0.026377   0.526558
    22  C   -0.000324   0.162578  -1.683587   7.682992   0.191479  -0.372109
    23  N    0.000013   0.178570  -0.026377   0.191479   7.062312  -0.192802
    24  C   -0.000898  -1.439166   0.526558  -0.372109  -0.192802   7.205558
    25  H   -0.004852  -0.858717  -0.089086  -0.163452   0.012675   0.036462
    26  H   -0.000380   0.485475  -0.847042   0.207958  -0.053749  -0.035117
    27  H   -0.000019  -0.034550   0.029952  -0.166043   0.420713  -0.284485
    28  O   -0.000013   0.111505  -0.144018   0.153296  -0.115092   0.029321
    29  O   -0.000005  -0.060288   0.018735  -0.014759  -0.260421   0.345095
              25         26         27         28         29
     1  C    0.050494   0.002486   0.004422  -0.000532  -0.001546
     2  C   -0.139995   0.002663  -0.011954   0.001624  -0.016823
     3  C    0.173128   0.006663  -0.002675   0.002421   0.137307
     4  O   -0.002001   0.000221   0.000296  -0.000028   0.001534
     5  H   -0.008943   0.000117  -0.000436   0.000583   0.017858
     6  O   -0.158144  -0.001543   0.000138   0.000546   0.002299
     7  H    0.022409  -0.002114   0.002280  -0.000164   0.032380
     8  N   -0.060345   0.040444   0.075749  -0.008536  -0.183040
     9  C   -0.035633  -0.007478  -0.001520   0.001149   0.011177
    10  H   -0.000304  -0.002104   0.000310  -0.000210  -0.001894
    11  O    0.001017   0.000113  -0.000067  -0.000007   0.000448
    12  C   -0.003810   0.000494  -0.000162   0.000032   0.001193
    13  H    0.008424  -0.000263   0.000012   0.000024  -0.000603
    14  O    0.000001   0.001838   0.000044   0.000004   0.000004
    15  H   -0.004239  -0.000117  -0.000044   0.000013   0.000102
    16  H    0.004675   0.000040   0.000038  -0.000005   0.000047
    17  H    0.000833   0.000013   0.000062  -0.000010   0.000062
    18  H    0.000759  -0.000029  -0.000078  -0.000012   0.000571
    19  H   -0.004852  -0.000380  -0.000019  -0.000013  -0.000005
    20  C   -0.858717   0.485475  -0.034550   0.111505  -0.060288
    21  C   -0.089086  -0.847042   0.029952  -0.144018   0.018735
    22  C   -0.163452   0.207958  -0.166043   0.153296  -0.014759
    23  N    0.012675  -0.053749   0.420713  -0.115092  -0.260421
    24  C    0.036462  -0.035117  -0.284485   0.029321   0.345095
    25  H    3.183395  -0.232517   0.001292   0.002390  -0.003574
    26  H   -0.232517   2.042750   0.009481  -0.019388   0.001553
    27  H    0.001292   0.009481   1.124268  -0.050885  -0.003766
    28  O    0.002390  -0.019388  -0.050885   8.708482  -0.001720
    29  O   -0.003574   0.001553  -0.003766  -0.001720   8.615640
 Mulliken charges:
               1
     1  C    0.773953
     2  C    1.295241
     3  C    0.895168
     4  O   -0.711675
     5  H   -0.501854
     6  O   -0.804444
     7  H   -0.457642
     8  N    0.042878
     9  C    0.582863
    10  H   -0.429186
    11  O   -0.643016
    12  C    1.317745
    13  H   -0.563486
    14  O   -0.612649
    15  H   -0.315737
    16  H   -0.254615
    17  H    0.140382
    18  H    0.202668
    19  H    0.162099
    20  C    0.684971
    21  C    1.208142
    22  C    0.335740
    23  N   -0.148023
    24  C    0.553996
    25  H   -0.732343
    26  H   -0.600466
    27  H   -0.112373
    28  O   -0.670769
    29  O   -0.637568
 Sum of Mulliken charges =  -0.00000
 Mulliken charges with hydrogens summed into heavy atoms:
               1
     1  C    0.344767
     2  C    0.793387
     3  C    0.437526
     4  O   -0.509007
     6  O   -0.804444
     8  N    0.042878
     9  C    0.019377
    11  O   -0.502634
    12  C    0.747393
    14  O   -0.450550
    20  C   -0.047372
    21  C    0.607676
    22  C    0.335740
    23  N   -0.260397
    24  C    0.553996
    28  O   -0.670769
    29  O   -0.637568
 Electronic spatial extent (au):  <R**2>=           4233.3023
 Charge=             -0.0000 electrons
 Dipole moment (field-independent basis, Debye):
    X=             -6.7201    Y=              3.7752    Z=              0.5533  Tot=              7.7277
 Quadrupole moment (field-independent basis, Debye-Ang):
   XX=           -104.8220   YY=           -101.1489   ZZ=            -98.5177
   XY=            -16.0217   XZ=             -5.6600   YZ=             -4.4029
 Traceless Quadrupole moment (field-independent basis, Debye-Ang):
   XX=             -3.3258   YY=              0.3473   ZZ=              2.9785
   XY=            -16.0217   XZ=             -5.6600   YZ=             -4.4029
 Octapole moment (field-independent basis, Debye-Ang**2):
  XXX=           -175.5966  YYY=             71.5946  ZZZ=              6.5026  XYY=            -43.1471
  XXY=            -17.0179  XXZ=            -12.7559  XZZ=            -15.2625  YZZ=             -4.5021
  YYZ=              4.2371  XYZ=             -6.2310
 Hexadecapole moment (field-independent basis, Debye-Ang**3):
 XXXX=          -3995.1337 YYYY=          -1228.3261 ZZZZ=           -383.7598 XXXY=           -385.7946
 XXXZ=           -160.3878 YYYX=            -73.2493 YYYZ=            -42.2066 ZZZX=            -29.6171
 ZZZY=             10.0745 XXYY=           -778.1524 XXZZ=           -655.1692 YYZZ=           -285.6745
 XXYZ=            -43.6897 YYXZ=              2.3645 ZZXY=            -22.2861
 N-N= 1.316707839516D+03 E-N=-4.764964224249D+03  KE= 9.051403251737D+02
 Calling FoFJK, ICntrl=      2127 FMM=F ISym2X=0 I1Cent= 0 IOpClX= 0 NMat=1 NMatS=1 NMatT=0.
 ***** Axes restored to original set *****
 -------------------------------------------------------------------
 Center     Atomic                   Forces (Hartrees/Bohr)
 Number     Number              X              Y              Z
 -------------------------------------------------------------------
      1        6          -0.004644531   -0.003256911   -0.002470812
      2        6          -0.013456022   -0.009601059   -0.013074260
      3        6          -0.017261157    0.007119347   -0.002432061
      4        8           0.003681851   -0.000144858    0.013454042
      5        1           0.007758943    0.003614636    0.003316055
      6        8           0.014187591   -0.021670373   -0.007629590
      7        1           0.003934340   -0.003223877   -0.001735329
      8        7          -0.002012293    0.000123116    0.003465979
      9        6           0.000422560    0.009596772    0.019300383
     10        1           0.000555825    0.004639760    0.004386788
     11        8           0.001430669    0.003180637    0.012739766
     12        6           0.010685776    0.002911988    0.002515451
     13        1          -0.002265389   -0.005620359   -0.001328846
     14        8          -0.000074876    0.002945744    0.007186659
     15        1          -0.007542065   -0.001702956   -0.006196294
     16        1          -0.005085385    0.003651501   -0.005394296
     17        1           0.002833462    0.001565056   -0.013308563
     18        1           0.005419457    0.011508964   -0.003383203
     19        1           0.006745188   -0.004818151   -0.011218674
     20        6          -0.010332420   -0.000930480    0.000545559
     21        6           0.015633007   -0.001377498   -0.015799392
     22        6           0.008952726    0.005412602    0.044722831
     23        7          -0.004700967    0.000822799   -0.000193480
     24        6          -0.003941145   -0.004763549   -0.022185307
     25        1          -0.006780247   -0.001287795   -0.005008942
     26        1           0.000164014    0.000296197    0.002158892
     27        1           0.001680216   -0.000782060   -0.004733701
     28        8           0.001712016   -0.001116447   -0.012003726
     29        8          -0.007701145    0.002907252    0.014304072
 -------------------------------------------------------------------
 Cartesian Forces:  Max     0.044722831 RMS     0.009166770

 GradGradGradGradGradGradGradGradGradGradGradGradGradGradGradGradGradGrad
 Berny optimization.
 FormGI is forming the generalized inverse of G from B-inverse, IUseBI=4.
 Internal  Forces:  Max     0.020172572 RMS     0.005537437
 Search for a local minimum.
 Step number   1 out of a maximum of  173
 All quantities printed in internal units (Hartrees-Bohrs-Radians)
 Mixed Optimization -- RFO/linear search
 Second derivative matrix not updated -- first step.
 ITU=  0
     Eigenvalues ---    0.00398   0.00532   0.00807   0.00831   0.01177
     Eigenvalues ---    0.01332   0.01358   0.01446   0.01596   0.01785
     Eigenvalues ---    0.01946   0.01977   0.02093   0.02132   0.02336
     Eigenvalues ---    0.02535   0.03067   0.03726   0.04311   0.04795
     Eigenvalues ---    0.04936   0.05006   0.05456   0.05645   0.05728
     Eigenvalues ---    0.05979   0.06263   0.06948   0.07956   0.08220
     Eigenvalues ---    0.09620   0.11601   0.12956   0.13866   0.15932
     Eigenvalues ---    0.15999   0.16000   0.16000   0.16000   0.16000
     Eigenvalues ---    0.16000   0.16699   0.18805   0.19676   0.22082
     Eigenvalues ---    0.22359   0.23437   0.24608   0.24994   0.24997
     Eigenvalues ---    0.24999   0.26202   0.28708   0.29205   0.29623
     Eigenvalues ---    0.33937   0.34046   0.34139   0.34255   0.34319
     Eigenvalues ---    0.34370   0.34934   0.35278   0.35824   0.36114
     Eigenvalues ---    0.36601   0.37473   0.39734   0.41395   0.41681
     Eigenvalues ---    0.45260   0.46074   0.46356   0.49516   0.51468
     Eigenvalues ---    0.51545   0.52413   0.52520   0.56993   0.91782
     Eigenvalues ---    0.93259
 RFO step:  Lambda=-1.97021875D-02 EMin= 3.97578433D-03
 Linear search not attempted -- first point.
 Iteration  1 RMS(Cart)=  0.09938056 RMS(Int)=  0.00250510
 Iteration  2 RMS(Cart)=  0.00371248 RMS(Int)=  0.00049861
 Iteration  3 RMS(Cart)=  0.00000458 RMS(Int)=  0.00049858
 Iteration  4 RMS(Cart)=  0.00000001 RMS(Int)=  0.00049858
 Variable       Old X    -DE/DX   Delta X   Delta X   Delta X     New X
                                 (Linear)    (Quad)   (Total)
    R1        2.86960   0.00264   0.00000   0.01421   0.01383   2.88343
    R2        2.88129  -0.00289   0.00000  -0.00809  -0.00826   2.87303
    R3        2.07096   0.00239   0.00000   0.00662   0.00662   2.07758
    R4        2.69331  -0.00623   0.00000  -0.01427  -0.01427   2.67904
    R5        2.91302  -0.00931   0.00000  -0.03384  -0.03370   2.87932
    R6        2.71916  -0.01424   0.00000  -0.03415  -0.03415   2.68502
    R7        2.06711   0.00298   0.00000   0.00821   0.00821   2.07532
    R8        2.73998  -0.01846   0.00000  -0.04954  -0.04918   2.69080
    R9        2.07252  -0.00070   0.00000  -0.00195  -0.00195   2.07057
   R10        2.77203  -0.00523   0.00000  -0.01373  -0.01373   2.75830
   R11        1.85038  -0.01303   0.00000  -0.02434  -0.02434   1.82603
   R12        2.72611  -0.00874   0.00000  -0.02096  -0.02087   2.70524
   R13        2.61213  -0.00367   0.00000  -0.00836  -0.00837   2.60376
   R14        2.62734  -0.00841   0.00000  -0.01819  -0.01824   2.60910
   R15        2.88721  -0.01356   0.00000  -0.04291  -0.04291   2.84430
   R16        2.07436   0.00192   0.00000   0.00536   0.00536   2.07972
   R17        1.84206  -0.01337   0.00000  -0.02459  -0.02459   1.81747
   R18        2.69701   0.00259   0.00000   0.00598   0.00598   2.70299
   R19        2.06795   0.00583   0.00000   0.01605   0.01605   2.08400
   R20        2.06903   0.00392   0.00000   0.01082   0.01082   2.07985
   R21        1.84105  -0.01369   0.00000  -0.02512  -0.02512   1.81593
   R22        2.52203   0.01724   0.00000   0.02846   0.02850   2.55054
   R23        2.05225   0.00187   0.00000   0.00502   0.00502   2.05728
   R24        2.77716  -0.00784   0.00000  -0.01938  -0.01933   2.75783
   R25        2.04357   0.00216   0.00000   0.00571   0.00571   2.04928
   R26        2.57651   0.02017   0.00000   0.03820   0.03820   2.61472
   R27        2.31466  -0.00198   0.00000  -0.00208  -0.00208   2.31258
   R28        2.58956   0.00988   0.00000   0.01879   0.01875   2.60831
   R29        1.90432   0.00449   0.00000   0.00929   0.00929   1.91362
   R30        2.32122  -0.01310   0.00000  -0.01398  -0.01398   2.30725
    A1        1.75829   0.00007   0.00000   0.01064   0.01034   1.76863
    A2        1.90644  -0.00052   0.00000   0.00307   0.00305   1.90949
    A3        1.93965  -0.00040   0.00000  -0.01313  -0.01295   1.92670
    A4        1.96348  -0.00282   0.00000  -0.03664  -0.03652   1.92696
    A5        1.98151   0.00147   0.00000   0.01144   0.01158   1.99309
    A6        1.90944   0.00192   0.00000   0.02242   0.02244   1.93188
    A7        1.77742  -0.00301   0.00000  -0.00934  -0.00891   1.76851
    A8        1.90083   0.00710   0.00000   0.04363   0.04265   1.94348
    A9        1.97353  -0.00011   0.00000   0.00468   0.00294   1.97647
   A10        1.94436  -0.00676   0.00000  -0.05961  -0.05911   1.88525
   A11        1.99728  -0.00121   0.00000  -0.03733  -0.03711   1.96017
   A12        1.86948   0.00395   0.00000   0.05614   0.05407   1.92355
   A13        1.87188   0.00201   0.00000   0.00053  -0.00023   1.87165
   A14        1.92888  -0.00102   0.00000   0.00669   0.00636   1.93525
   A15        1.97392   0.00029   0.00000  -0.01346  -0.01404   1.95988
   A16        1.86829   0.00367   0.00000   0.04489   0.04495   1.91323
   A17        1.92592  -0.00633   0.00000  -0.04900  -0.04941   1.87650
   A18        1.89226   0.00150   0.00000   0.01303   0.01357   1.90583
   A19        1.83016   0.00337   0.00000   0.01874   0.01874   1.84891
   A20        1.87695   0.00693   0.00000   0.03390   0.03455   1.91150
   A21        2.12877  -0.00101   0.00000  -0.00137  -0.00135   2.12743
   A22        2.03611  -0.00278   0.00000  -0.00792  -0.00789   2.02821
   A23        2.11811   0.00379   0.00000   0.00921   0.00916   2.12727
   A24        1.84307  -0.00483   0.00000  -0.02657  -0.02655   1.81652
   A25        1.99622   0.00494   0.00000   0.01971   0.01940   2.01562
   A26        1.93776  -0.00280   0.00000  -0.02715  -0.02699   1.91077
   A27        1.92834  -0.00014   0.00000  -0.01548  -0.01521   1.91313
   A28        1.87266   0.00258   0.00000   0.03431   0.03397   1.90662
   A29        1.88240   0.00013   0.00000   0.01560   0.01573   1.89812
   A30        1.86409   0.00528   0.00000   0.02941   0.02941   1.89349
   A31        1.94362  -0.01309   0.00000  -0.05093  -0.05064   1.89298
   A32        1.92774  -0.00310   0.00000  -0.03550  -0.03529   1.89245
   A33        1.92239  -0.00139   0.00000  -0.02251  -0.02221   1.90018
   A34        1.87979   0.00963   0.00000   0.05979   0.05844   1.93824
   A35        1.88189   0.00900   0.00000   0.05928   0.05831   1.94020
   A36        1.90714  -0.00042   0.00000  -0.00584  -0.00828   1.89886
   A37        1.86223   0.00493   0.00000   0.02744   0.02744   1.88967
   A38        2.13140   0.00049   0.00000  -0.00126  -0.00122   2.13018
   A39        2.05685  -0.00877   0.00000  -0.04681  -0.04683   2.01002
   A40        2.09492   0.00828   0.00000   0.04808   0.04806   2.14298
   A41        2.07591   0.00362   0.00000   0.01622   0.01631   2.09222
   A42        2.15096  -0.00217   0.00000  -0.01010  -0.01015   2.14081
   A43        2.05631  -0.00145   0.00000  -0.00612  -0.00616   2.05015
   A44        2.01866  -0.01012   0.00000  -0.03413  -0.03407   1.98459
   A45        2.11427   0.01896   0.00000   0.06861   0.06858   2.18285
   A46        2.15023  -0.00884   0.00000  -0.03445  -0.03449   2.11574
   A47        2.20117   0.00595   0.00000   0.02631   0.02628   2.22745
   A48        2.04628  -0.00072   0.00000  -0.00060  -0.00058   2.04569
   A49        2.03567  -0.00523   0.00000  -0.02573  -0.02572   2.00995
   A50        2.02096  -0.00374   0.00000  -0.01648  -0.01662   2.00434
   A51        2.16653  -0.00971   0.00000  -0.03460  -0.03461   2.13193
   A52        2.09557   0.01346   0.00000   0.05135   0.05134   2.14691
    D1        0.66173  -0.00169   0.00000  -0.00434  -0.00447   0.65727
    D2       -1.39377   0.00453   0.00000   0.04984   0.05008  -1.34369
    D3        2.81336  -0.00516   0.00000  -0.05305  -0.05314   2.76021
    D4       -1.40823   0.00168   0.00000   0.03065   0.03057  -1.37767
    D5        2.81945   0.00790   0.00000   0.08482   0.08512   2.90457
    D6        0.74339  -0.00178   0.00000  -0.01807  -0.01811   0.72528
    D7        2.76658  -0.00012   0.00000   0.00903   0.00888   2.77546
    D8        0.71108   0.00610   0.00000   0.06321   0.06343   0.77451
    D9       -1.36498  -0.00359   0.00000  -0.03968  -0.03980  -1.40478
   D10       -0.69910   0.00294   0.00000   0.02016   0.02026  -0.67884
   D11       -2.82311   0.00352   0.00000   0.04634   0.04648  -2.77663
   D12        1.32507   0.00187   0.00000   0.03220   0.03263   1.35770
   D13        1.32891   0.00121   0.00000   0.01441   0.01434   1.34325
   D14       -0.79510   0.00179   0.00000   0.04059   0.04056  -0.75454
   D15       -2.93011   0.00014   0.00000   0.02646   0.02671  -2.90340
   D16       -2.77385   0.00270   0.00000   0.02406   0.02394  -2.74991
   D17        1.38533   0.00328   0.00000   0.05023   0.05016   1.43549
   D18       -0.74968   0.00163   0.00000   0.03610   0.03630  -0.71337
   D19        2.92604  -0.00054   0.00000  -0.01339  -0.01330   2.91274
   D20       -1.38973   0.00017   0.00000  -0.00158  -0.00177  -1.39150
   D21        0.81944  -0.00091   0.00000  -0.02360  -0.02351   0.79594
   D22       -0.42511   0.00106   0.00000   0.00166   0.00160  -0.42352
   D23       -2.45588  -0.00392   0.00000  -0.05574  -0.05587  -2.51175
   D24        1.70221  -0.00531   0.00000  -0.06805  -0.06815   1.63406
   D25        1.59885   0.00478   0.00000   0.02175   0.02154   1.62039
   D26       -0.43192  -0.00020   0.00000  -0.03566  -0.03593  -0.46785
   D27       -2.55702  -0.00159   0.00000  -0.04797  -0.04820  -2.60522
   D28       -2.56053   0.00387   0.00000   0.02222   0.02259  -2.53794
   D29        1.69189  -0.00112   0.00000  -0.03519  -0.03488   1.65701
   D30       -0.43320  -0.00251   0.00000  -0.04750  -0.04716  -0.48036
   D31       -0.76080  -0.00291   0.00000  -0.01857  -0.02027  -0.78107
   D32       -2.70760   0.00027   0.00000  -0.00052  -0.00071  -2.70831
   D33        1.37919   0.00350   0.00000   0.04648   0.04836   1.42756
   D34       -0.00792  -0.00014   0.00000   0.00786   0.00811   0.00019
   D35        2.06246   0.00162   0.00000   0.03934   0.04001   2.10247
   D36       -2.16499   0.00211   0.00000   0.05445   0.05406  -2.11093
   D37       -1.74926   0.00144   0.00000   0.04952   0.04898  -1.70028
   D38        1.37146   0.00135   0.00000   0.04560   0.04504   1.41650
   D39        0.34746  -0.00027   0.00000   0.00639   0.00696   0.35442
   D40       -2.81500  -0.00036   0.00000   0.00247   0.00302  -2.81198
   D41        2.38838   0.00148   0.00000   0.04059   0.04059   2.42897
   D42       -0.77408   0.00139   0.00000   0.03667   0.03665  -0.73743
   D43        0.44348  -0.00034   0.00000  -0.01369  -0.01370   0.42978
   D44        2.61075   0.00250   0.00000  -0.01582  -0.01541   2.59535
   D45       -1.62465   0.00409   0.00000   0.01440   0.01500  -1.60965
   D46        3.13176   0.00005   0.00000   0.00017   0.00011   3.13187
   D47       -0.01687   0.00021   0.00000   0.00371   0.00358  -0.01328
   D48        0.01201   0.00022   0.00000   0.00448   0.00448   0.01649
   D49       -3.13662   0.00038   0.00000   0.00802   0.00795  -3.12866
   D50       -3.14032  -0.00014   0.00000  -0.00372  -0.00357   3.13930
   D51       -0.01562   0.00070   0.00000   0.01542   0.01504  -0.00058
   D52       -0.01946  -0.00029   0.00000  -0.00774  -0.00764  -0.02710
   D53        3.10524   0.00055   0.00000   0.01139   0.01096   3.11620
   D54        0.83735  -0.00107   0.00000  -0.00892  -0.00895   0.82840
   D55       -1.25055  -0.00258   0.00000  -0.02734  -0.02753  -1.27807
   D56        2.92434   0.00086   0.00000   0.01770   0.01748   2.94182
   D57       -1.23918   0.00192   0.00000   0.02322   0.02334  -1.21584
   D58        2.95611   0.00041   0.00000   0.00480   0.00476   2.96088
   D59        0.84781   0.00385   0.00000   0.04984   0.04977   0.89758
   D60        3.00223  -0.00118   0.00000  -0.01857  -0.01831   2.98393
   D61        0.91434  -0.00269   0.00000  -0.03698  -0.03689   0.87746
   D62       -1.19396   0.00075   0.00000   0.00805   0.00812  -1.18584
   D63        2.95128   0.00051   0.00000   0.00337   0.00346   2.95475
   D64       -1.21578  -0.00505   0.00000  -0.03264  -0.03480  -1.25058
   D65        0.84041   0.00436   0.00000   0.02374   0.02580   0.86621
   D66       -0.00113   0.00003   0.00000   0.00045   0.00049  -0.00064
   D67        3.13694  -0.00001   0.00000  -0.00028  -0.00027   3.13666
   D68       -3.13554  -0.00007   0.00000  -0.00279  -0.00286  -3.13840
   D69        0.00253  -0.00011   0.00000  -0.00352  -0.00363  -0.00110
   D70       -0.00111  -0.00005   0.00000  -0.00121  -0.00118  -0.00229
   D71       -3.13558  -0.00016   0.00000  -0.00598  -0.00618   3.14142
   D72       -3.13937  -0.00001   0.00000  -0.00050  -0.00044  -3.13981
   D73        0.00934  -0.00011   0.00000  -0.00528  -0.00544   0.00390
   D74       -0.00797  -0.00011   0.00000  -0.00303  -0.00312  -0.01109
   D75       -3.13644  -0.00002   0.00000  -0.00136  -0.00147  -3.13791
   D76        3.12634   0.00012   0.00000   0.00232   0.00214   3.12848
   D77       -0.00213   0.00022   0.00000   0.00399   0.00379   0.00166
   D78        0.01802   0.00029   0.00000   0.00742   0.00745   0.02547
   D79       -3.10741  -0.00028   0.00000  -0.01002  -0.01044  -3.11785
   D80       -3.13662   0.00022   0.00000   0.00592   0.00598  -3.13064
   D81        0.02113  -0.00035   0.00000  -0.01152  -0.01190   0.00922
         Item               Value     Threshold  Converged?
 Maximum Force            0.020173     0.000450     NO 
 RMS     Force            0.005537     0.000300     NO 
 Maximum Displacement     0.634624     0.001800     NO 
 RMS     Displacement     0.099942     0.001200     NO 
 Predicted change in Energy=-1.125433D-02
 GradGradGradGradGradGradGradGradGradGradGradGradGradGradGradGradGradGrad

                          Input orientation:                          
 ---------------------------------------------------------------------
 Center     Atomic      Atomic             Coordinates (Angstroms)
 Number     Number       Type             X           Y           Z
 ---------------------------------------------------------------------
      1          6           0       -3.021939   -1.724203    0.798006
      2          6           0       -2.324165   -1.390007   -0.517147
      3          6           0       -1.921423    0.060553   -0.282099
      4          8           0       -3.233777   -1.422279   -1.608192
      5          1           0       -1.459440   -2.034329   -0.724911
      6          8           0       -2.809448    0.591845    0.695989
      7          1           0       -2.001560    0.642870   -1.206785
      8          7           0       -0.565370    0.180326    0.244492
      9          6           0       -3.742117   -0.418473    1.094393
     10          1           0       -2.266846   -1.929379    1.570295
     11          8           0       -3.883166   -2.837890    0.631186
     12          6           0       -4.133112   -0.206412    2.532306
     13          1           0       -4.644217   -0.346566    0.468109
     14          8           0       -3.004745   -0.508591    3.357778
     15          1           0       -4.982670   -0.870257    2.764132
     16          1           0       -4.453269    0.838358    2.663816
     17          1           0       -4.146079   -3.153113    1.500955
     18          1           0       -3.760873   -2.223559   -1.490523
     19          1           0       -3.198164   -0.214358    4.251888
     20          6           0       -0.318200    0.330274    1.591671
     21          6           0        0.934823    0.430258    2.083187
     22          6           0        2.077452    0.379517    1.176757
     23          7           0        1.726568    0.223761   -0.152568
     24          6           0        0.456855    0.104333   -0.680471
     25          1           0       -1.203881    0.365158    2.223763
     26          1           0        1.140503    0.552962    3.140840
     27          1           0        2.479677    0.178666   -0.828020
     28          8           0        3.249844    0.460818    1.518062
     29          8           0        0.244240   -0.054575   -1.872212
 ---------------------------------------------------------------------
                    Distance matrix (angstroms):
                    1          2          3          4          5
     1  C    0.000000
     2  C    1.525845   0.000000
     3  C    2.358626   1.523670   0.000000
     4  O    2.434301   1.420850   2.383188   0.000000
     5  H    2.203828   1.098211   2.190443   2.074382   0.000000
     6  O    2.328012   2.373801   1.423908   3.089660   3.276929
     7  H    3.265486   2.170774   1.095701   2.438099   2.773714
     8  N    3.157269   2.477782   1.459632   3.622317   2.577557
     9  C    1.520340   2.356167   2.332192   2.927456   3.336386
    10  H    1.099406   2.156762   2.740530   3.360786   2.435342
    11  O    1.417688   2.417751   3.617111   2.727723   2.891221
    12  C    2.558552   3.737960   3.589389   4.408045   4.593394
    13  H    2.153718   2.728028   2.853448   2.730847   3.796663
    14  O    2.833803   4.031764   3.840079   5.054516   4.624305
    15  H    2.905054   4.254948   4.417823   4.741368   5.093293
    16  H    3.478027   4.429133   3.961519   4.984746   5.357128
    17  H    1.949259   3.240471   4.296047   3.673537   3.663904
    18  H    2.456165   1.925201   3.171913   0.966295   2.432810
    19  H    3.773591   4.988960   4.718334   5.983384   5.577095
    20  C    3.487261   3.380884   2.480743   4.670242   3.501475
    21  C    4.685014   4.549297   3.726848   5.868168   4.437578
    22  C    5.529275   5.037336   4.268606   6.261913   4.685360
    23  N    5.219815   4.375569   3.653937   5.425247   3.946795
    24  C    4.198981   3.161297   2.411809   4.100241   2.871939
    25  H    3.115052   3.442126   2.624308   4.690340   3.810188
    26  H    5.291529   5.399993   4.618914   6.751978   5.328960
    27  H    6.044225   5.063030   4.436402   5.984584   4.519360
    28  O    6.680424   6.215884   5.490246   7.440219   5.782218
    29  O    4.537141   3.196291   2.689202   3.746588   2.852761
                    6          7          8          9         10
     6  O    0.000000
     7  H    2.067810   0.000000
     8  N    2.325744   2.093513   0.000000
     9  C    1.431551   3.074314   3.342546   0.000000
    10  H    2.723123   3.794603   3.017222   2.164658   0.000000
    11  O    3.594461   4.362828   4.501881   2.467394   2.078415
[...]
 268,-0.00037831,0.00031806,0.00020913,0.00344495,-0.00116244,-0.000047
 45,0.00021230,-0.00004773,0.00003319,-0.00000839,0.00005949,-0.0006140
 1,0.00004487,0.00054861,-0.00040898,-0.00039587,0.00026175,-0.00096980
 ,0.00943406,0.00419464,0.00006694,0.00016215,-0.00011482,0.00000878,-0
 .00002064,-0.00004664,-0.00005551,0.00000329,0.00006366,-0.00007738,-0
 .00000616,-0.00009843,-0.00002196,-0.00003260,0.00000461,0.00009940,0.
 00005495,0.00008869,0.00001711,-0.00000284,0.00001630,0.00000215,0.000
 00768,0.00001799,0.00003752,0.00000304,-0.00003018,0.00006714,0.000010
 11,0.00004120,-0.00002058,-0.00002078,-0.00001143,-0.00173555,-0.00029
 572,-0.00341383,0.00281858,0.00999086,-0.00365425,-0.00409907,-0.05459
 924,-0.01686106,0.02505187,0.07102222,-0.00024095,0.00023600,-0.000693
 32,0.00037641,-0.00021975,-0.00004045,0.00048298,-0.00093690,-0.006680
 77,-0.00044455,0.00004882,0.00054702,-0.00005982,0.00059342,-0.0002099
 9,0.00160709,-0.00000058,0.00171288,0.00111953,-0.00072544,0.00017034,
 0.01670439,0.00386624,0.03644936,0.00013525,-0.00030085,0.00021637,-0.
 00006723,-0.00017020,0.00007651,-0.00018626,-0.00021507,0.00055586,-0.
 00055939,0.00008889,-0.00057679,0.00012059,0.00005461,-0.00003613,0.00
 074713,0.00016079,0.00039626,0.00011026,-0.00000299,0.00006660,0.00005
 138,-0.00000329,0.00010137,0.00002225,0.00004291,-0.00016379,0.0001948
 5,0.00005796,-0.00010840,-0.00010533,-0.00004276,-0.00003607,-0.009695
 91,-0.00207527,-0.02052633,0.01887582,-0.00414780,-0.03920759,-0.00432
 339,-0.01728651,-0.23843164,-0.07273126,0.06902516,0.74080377,-0.00077
 801,-0.00069946,0.00079997,-0.00079354,-0.00108312,-0.00027814,-0.0398
 1480,0.00099772,0.01871320,0.00226142,0.00133995,0.00081413,0.00004719
 ,-0.00129293,-0.00006043,-0.00018957,-0.00064949,-0.00357170,-0.000637
 29,0.00091999,0.00083635,-0.21122712,-0.00097038,0.02900735,-0.0018498
 8,-0.00049218,0.00054473,0.00021471,-0.00005029,0.00018133,0.00107112,
 0.00135098,-0.00048560,0.00010144,0.00004092,0.00034742,0.00015856,0.0
 0007003,0.00012408,0.00012203,0.00012826,-0.00070263,0.00005821,0.0000
 8253,-0.00011311,-0.00005071,-0.00009268,-0.00008081,-0.00002712,-0.00
 031704,0.00013952,-0.00013534,-0.00008537,0.00025566,0.00009389,-0.000
 01790,0.00015042,0.04363939,0.00675258,0.05438587,-0.03880990,-0.00111
 237,0.00270707,0.01389319,-0.00813393,-0.09371918,-0.27914396,-0.01249
 637,-0.00773594,0.64951139,0.00017701,-0.00024026,0.00062441,-0.003318
 96,0.00131365,-0.00099543,-0.00158881,-0.00121748,0.00278831,0.0006359
 0,-0.00087978,0.00023079,-0.00043095,-0.00120156,-0.00003115,0.0017913
 9,0.00038910,-0.00156076,-0.00022018,0.00144832,-0.00023374,0.00049430
 ,-0.06775886,-0.00743725,0.00049012,-0.00022159,-0.00000709,-0.0000835
 6,0.00001829,-0.00003843,0.00014972,0.00000498,-0.00025073,0.00020270,
 -0.00001181,0.00016509,-0.00001551,0.00008108,-0.00003124,-0.00021261,
 -0.00016664,-0.00019491,-0.00004328,-0.00000455,-0.00001296,0.00001139
 ,-0.00002113,-0.00007719,-0.00007453,-0.00001924,0.00009178,-0.0002155
 0,-0.00004504,-0.00004694,0.00005339,0.00005425,0.00002041,0.00313238,
 -0.00192106,-0.00200430,-0.00004613,0.00031359,0.00043561,-0.00259958,
 -0.01484599,-0.00206152,-0.01768499,-0.05895816,-0.01139617,0.03005865
 ,0.22519394,0.00224969,-0.00039582,0.00110026,-0.00470214,0.00420769,0
 .00044111,0.01901327,-0.00091053,0.02900009,-0.00173813,-0.00263778,-0
 .00260842,-0.00015809,-0.00173407,0.00121445,-0.01158473,0.00040132,-0
 .00096331,-0.00768630,0.00131780,-0.00205396,0.04680760,-0.00841759,-0
 .16371707,0.00145455,0.00312439,-0.00301128,-0.00008906,0.00035032,-0.
 00051677,-0.00067581,-0.00102317,-0.00093458,0.00081682,-0.00029672,0.
 00052368,-0.00090527,-0.00059792,0.00019483,-0.00111175,-0.00030857,-0
 .00004016,-0.00020448,-0.00007575,0.00008385,0.00000792,0.00005872,-0.
 00018450,-0.00002713,0.00017496,0.00030440,-0.00052535,-0.00011120,-0.
 00029461,0.00012564,0.00008418,-0.00007462,0.01762331,-0.00483088,-0.0
 4948375,0.01177850,0.00074352,0.00375086,-0.03525009,-0.00031269,0.004
 39234,-0.05516562,-0.01369952,-0.15738060,0.08462770,0.09553835,0.9710
 4372,0.00013344,-0.00064026,-0.00017050,0.00009077,0.00019248,0.000134
 41,0.00089281,-0.00008215,-0.00080577,-0.00026366,-0.00002370,0.000119
 64,-0.00007617,0.00016767,0.00011375,-0.00318469,0.00007124,-0.0018309
 9,-0.00014499,0.00010088,0.00018974,0.01177649,0.00021399,-0.00465576,
 -0.00134782,-0.00093432,-0.00074491,0.00006563,-0.00014128,-0.00026079
 ,-0.00015864,0.00025007,0.00015915,-0.00265607,0.00019727,-0.00134328,
 0.00008240,0.00009767,0.00018761,-0.00137260,-0.00028918,0.00019384,0.
 00039752,0.00006758,0.00015352,0.00006200,-0.00013006,0.00017937,0.000
 04152,-0.00002480,-0.00001217,0.00003875,-0.00005547,-0.00013906,0.000
 90094,0.00050349,0.00060813,-0.25259570,0.00682301,0.14312728,-0.01227
 482,0.00060749,0.01453162,-0.00319831,-0.00081060,-0.00231667,0.000009
 34,-0.00007848,-0.00068804,-0.00063114,0.00003580,-0.00118524,0.262731
 93,-0.00056188,-0.00004145,-0.00047267,-0.00011315,0.00016314,-0.00032
 989,0.00048812,-0.00153812,0.00015034,-0.00009970,-0.00018107,0.000201
 16,0.00002458,-0.00004583,0.00000110,0.00016058,-0.00067401,0.00074710
 ,0.00023040,0.00000507,-0.00006856,0.00333655,0.00371023,-0.00362301,-
 0.00015626,0.00053160,-0.00063706,-0.00010528,-0.00065064,-0.00005516,
 0.00024342,0.00006881,0.00032715,-0.00050525,0.00029300,-0.00056140,-0
 .00005075,-0.00010912,0.00009354,-0.00039669,-0.00116537,0.00027633,0.
 00016872,-0.00004896,0.00012071,0.00033698,-0.00012043,0.00003888,-0.0
 0001401,-0.00008396,-0.00006835,-0.00000370,0.00000452,-0.00011630,0.0
 0068791,0.00023323,-0.00014214,0.00592532,-0.04584204,-0.00711539,-0.0
 0211862,0.00855314,0.00111029,-0.00103034,0.01202993,-0.00143155,0.000
 21314,-0.00080736,0.00006831,-0.00087027,0.00389518,-0.00043940,-0.006
 21608,0.03073847,-0.00014685,-0.00008201,-0.00029090,-0.00017134,-0.00
 024894,-0.00026284,0.00216756,-0.00027453,-0.00136592,0.00010350,0.000
 10854,0.00010640,0.00002503,0.00013599,-0.00000078,0.00086389,0.000521
 05,0.00107056,0.00007002,-0.00002791,0.00003127,0.02685458,-0.00141699
 ,-0.02105361,-0.00222405,-0.00107102,0.00074018,-0.00003764,-0.0001076
 3,0.00033493,0.00028351,0.00034112,-0.00001108,0.00113415,-0.00053671,
 0.00224509,0.00036309,0.00013491,-0.00013517,-0.00054213,-0.00006008,-
 0.00240611,-0.00047545,0.00005616,-0.00043558,-0.00023774,0.00011291,-
 0.00016570,0.00000269,-0.00002766,0.00006842,-0.00003053,-0.00002496,0
 .00001197,0.00024186,0.00011553,-0.00052197,0.13534276,-0.00753834,-0.
 15596026,-0.01183424,-0.00000026,0.01324434,-0.00197117,-0.00153057,-0
 .00248129,0.00046432,0.00019631,0.00108887,-0.00597324,-0.00073823,-0.
 00214880,-0.14447989,0.01118193,0.16868063,-0.00000138,0.00000203,-0.0
 0007920,-0.00005354,0.00025218,-0.00004623,0.00124389,-0.00018088,-0.0
 0124544,-0.00013760,-0.00014260,-0.00000918,-0.00001240,-0.00000784,0.
 00000755,-0.00017777,0.00002826,0.00044007,-0.00036509,-0.00007060,-0.
 00010364,-0.00547787,-0.00083839,-0.00154443,0.00014535,0.00013973,-0.
 00012057,0.00000796,-0.00002060,-0.00002054,-0.00003992,-0.00004462,0.
 00006726,-0.00016626,0.00001729,-0.00020206,-0.00002561,-0.00001882,0.
 00001765,0.00028597,0.00006276,0.00027701,0.00004306,0.00000275,0.0000
 4117,0.00001772,-0.00001037,0.00001357,-0.00000027,0.00000231,-0.00002
 040,0.00000474,-0.00001583,-0.00004165,-0.00013496,-0.00004849,-0.0000
 0509,-0.00028456,-0.00286200,-0.02885567,-0.06042145,-0.00608795,-0.04
 614525,0.00979556,0.00286621,0.02406366,-0.00432229,0.00008723,0.00396
 455,-0.00257651,-0.00009548,0.00029344,0.00088695,0.00028033,0.0000834
 8,0.05951429,-0.00000420,0.00001234,-0.00001255,0.00030601,-0.00011955
 ,0.00011908,-0.00020961,0.00194543,-0.00051297,0.00010582,0.00009345,0
 .00004783,-0.00000426,-0.00002061,0.00000957,0.00001723,-0.00003732,0.
 00007982,-0.00039422,-0.00006016,-0.00017258,-0.00009773,0.00793383,-0
 .00055693,0.00002692,0.00002174,0.00002908,-0.00000311,0.00002919,-0.0
 0002875,-0.00000253,-0.00002164,0.00001868,-0.00004377,0.00001826,-0.0
 0004542,-0.00000163,-0.00000077,-0.00000288,0.00004395,-0.00008721,0.0
 0013251,0.00000179,-0.00000181,0.00000200,0.00002569,-0.00001383,0.000
 01025,-0.00001570,0.00000273,-0.00002073,0.00001696,0.00001319,0.00002
 385,-0.00004745,0.00007923,-0.00001226,0.00021972,-0.00155582,-0.00150
 425,-0.00624885,-0.02998101,-0.03495895,-0.00062248,0.00087316,-0.0003
 3013,-0.00000466,0.00272322,-0.00019343,-0.00010754,-0.00015758,0.0002
 3751,0.00020794,-0.00547366,0.00058290,0.00671053,0.02593457,-0.000013
 06,0.00000864,-0.00002126,-0.00003658,0.00006975,-0.00004117,0.0004221
 4,-0.00012754,-0.00012815,-0.00002674,-0.00003183,0.00001475,-0.000000
 13,0.00000671,-0.00000182,-0.00003147,-0.00001583,0.00011124,-0.000050
 83,-0.00004321,0.00003080,-0.00134999,-0.00064789,0.00298588,0.0000372
 9,0.00005712,-0.00001251,-0.00000088,-0.00000332,0.00001210,0.00001464
 ,-0.00000338,0.00002074,-0.00002830,-0.00002695,-0.00002736,-0.0000055
 1,-0.00001022,0.00000296,0.00000331,0.00001435,0.00001133,-0.00000052,
 0.00000607,0.00000469,-0.00000240,-0.00000228,0.00000270,-0.00000547,-
 0.00000348,-0.00000535,0.00000237,-0.00000292,-0.00001347,-0.00000396,
 -0.00001608,0.00001949,0.00206029,-0.00031173,-0.00552803,-0.04662663,
 -0.03464802,-0.34871971,-0.00956680,-0.00183306,-0.01292408,0.00327141
 ,-0.00027841,-0.00168702,0.00177076,0.00009537,0.00020877,-0.00008023,
 0.00060557,0.00047796,0.05086137,0.03676252,0.36332363,-0.00003231,-0.
 00003936,0.00002404,-0.00015033,0.00010842,-0.00006073,0.00031054,-0.0
 0000390,0.00134684,0.00006761,-0.00002578,0.00000847,0.00000791,-0.000
 08285,0.00000916,-0.00032922,0.00000948,0.00003591,-0.00010938,0.00005
 814,-0.00001692,-0.00413793,-0.00096871,-0.00455649,-0.00006626,0.0000
 9069,-0.00007866,0.00000257,-0.00001531,0.00000917,0.00006858,0.000056
 72,-0.00001408,-0.00004883,-0.00000866,-0.00003410,-0.00001695,-0.0000
 2034,0.00002002,0.00007752,0.00001667,-0.00000270,0.00001314,0.0000066
 1,0.00000763,0.00000215,-0.00000951,-0.00000348,-0.00001361,-0.0000242
 0,0.00000567,-0.00002420,-0.00001709,-0.00001574,-0.00000757,-0.000008
 86,0.00001082,0.00018986,-0.00001940,-0.00088789,0.00010278,-0.0004502
 9,-0.00281357,0.01609770,0.00026061,-0.00279496,-0.28346118,0.00909506
 ,0.18583868,-0.02138648,0.00212467,0.02602189,-0.00009856,0.00003316,0
 .00006674,0.00058391,-0.00002504,-0.00049550,0.29081238,-0.00001147,0.
 00000959,-0.00003194,-0.00003410,0.00003491,0.00009972,0.00033782,0.00
 094716,0.00012182,0.00007842,-0.00002610,0.00001298,0.00001122,-0.0000
 0645,-0.00001017,-0.00035085,-0.00015225,0.00012129,-0.00003003,-0.000
 01944,-0.00005367,-0.00106150,0.00435641,-0.00098501,0.00002259,0.0001
 2643,-0.00007168,0.00000596,0.00001100,0.00002067,-0.00000386,-0.00004
 758,-0.00000319,-0.00001901,-0.00000125,-0.00000251,-0.00001448,-0.000
 02230,0.00000719,0.00000975,-0.00002064,0.00001477,-0.00000093,-0.0000
 0023,0.00000738,0.00000687,-0.00000748,-0.00000728,-0.00002063,0.00000
 691,0.00000664,-0.00001818,0.00001353,0.00001394,-0.00000295,0.0000126
 0,-0.00000348,0.00002924,-0.00079672,-0.00008965,-0.00054744,0.0038641
 5,-0.00091658,0.00379208,0.00108707,-0.00152666,0.01010080,-0.01879974
 ,-0.01697179,-0.00191190,-0.00071087,0.00359636,0.00000887,-0.00038741
 ,0.00004420,0.00013269,0.00032506,-0.00010235,-0.01068122,0.01810368,0
 .00006424,0.00005734,-0.00001891,0.00002786,0.00012705,0.00008300,0.00
 024562,-0.00010117,0.00089288,-0.00014158,-0.00009903,-0.00011893,-0.0
 0000972,0.00001069,0.00001485,-0.00065058,-0.00005920,0.00014616,-0.00
 002342,0.00001822,0.00002705,-0.00503102,-0.00074606,-0.00059136,0.000
 10059,0.00016936,-0.00008075,-0.00000723,0.00000177,-0.00002195,-0.000
 07745,-0.00009988,0.00000535,-0.00001704,-0.00002267,-0.00002421,-0.00
 004547,-0.00002806,0.00000767,-0.00000953,-0.00000446,0.00004980,-0.00
 000475,-0.00000527,0.00001865,0.00000600,0.00000719,0.00000070,0.00000
 760,0.00002161,-0.00000201,0.00000763,0.00001043,-0.00000138,-0.000007
 57,-0.00000169,-0.00001187,-0.00104131,-0.00005589,-0.00089904,-0.0037
 3020,-0.00104964,-0.00511221,0.03070277,-0.00079398,-0.01678943,0.1910
 6860,-0.01593717,-0.23732469,-0.00929546,0.00177895,0.01891434,0.00005
 822,0.00005297,0.00001537,0.00129259,-0.00000941,-0.00052763,-0.202352
 60,0.01571216,0.23929907,0.00071588,0.00053701,-0.00037087,-0.00004669
 ,0.00113537,0.00093396,0.00537399,-0.00078191,0.00013800,-0.00132315,-
 0.00090277,-0.00071483,-0.00004088,0.00028891,-0.00000248,-0.00291679,
 -0.00020304,0.00082098,-0.00060770,-0.00032149,-0.00010628,-0.00358115
 ,-0.00084492,-0.01089261,0.00143798,0.00117260,-0.00060427,0.00001633,
 0.00018194,-0.00014634,-0.00100149,-0.00115896,0.00021057,0.00031609,-
 0.00013046,0.00007354,-0.00031549,-0.00017008,-0.00002292,-0.00076378,
 -0.00028024,0.00066495,-0.00016484,-0.00008183,0.00007552,0.00001485,0
 .00010266,-0.00002439,0.00006573,0.00030847,-0.00009401,0.00014161,0.0
 0013500,-0.00006242,-0.00009156,0.00005151,-0.00021256,0.00732511,0.00
 156003,0.01850451,-0.07152753,-0.00439279,-0.00289521,-0.64949372,-0.0
 3593770,-0.12750693,-0.03776724,-0.00776842,-0.05636144,0.00732765,0.0
 0088541,0.00418318,-0.00031531,-0.00000611,-0.00146128,0.00095957,0.00
 022586,0.00026056,-0.00299612,-0.00033769,-0.00220017,0.75277584,0.000
 05227,0.00000756,0.00000732,0.00001687,0.00001753,0.00002679,0.0003799
 6,-0.00043316,0.00007836,-0.00013384,-0.00002303,-0.00005335,-0.000027
 31,0.00006297,0.00001298,-0.00018304,0.00007266,0.00018186,0.00005515,
 -0.00003384,-0.00008828,-0.00074968,0.00002090,0.00039137,0.00004280,0
 .00001192,-0.00001711,0.00000187,0.00000532,-0.00003334,-0.00007480,-0
 .00002629,0.00001471,-0.00000377,-0.00002194,-0.00001955,-0.00001464,-
 0.00000324,-0.00000204,-0.00002271,0.00006758,0.00005063,-0.00000058,-
 0.00000164,0.00000282,-0.00001142,0.00001291,0.00000809,0.00002636,0.0
 0001155,-0.00000447,0.00002484,-0.00000166,-0.00000597,-0.00001962,-0.
 00002982,-0.00000586,0.00023342,0.00367143,-0.00072467,-0.00190225,0.0
 2246335,-0.00008106,-0.03651262,-0.07817308,-0.01082708,-0.01031536,0.
 01793954,-0.00735223,0.00216667,0.00726267,-0.00096808,0.00017097,-0.0
 0271682,0.00030892,-0.00018313,-0.00201274,0.00044358,0.00019141,-0.00
 407989,0.00092251,0.04754477,0.03763070,-0.00001569,0.00014504,-0.0002
 8444,0.00017637,0.00016680,0.00003487,0.00101125,-0.00019151,0.0000686
 3,-0.00032397,-0.00012107,0.00006824,-0.00002052,0.00015689,-0.0000293
 0,-0.00078897,-0.00000287,0.00103691,0.00019556,-0.00015375,0.00008124
 ,-0.00714940,0.00059624,0.00874236,0.00013415,0.00022834,-0.00017180,-
 0.00002039,-0.00007839,-0.00000111,-0.00013159,-0.00017345,0.00022864,
 -0.00031220,0.00000363,-0.00031734,-0.00004125,-0.00004881,0.00001693,
 0.00040176,0.00007260,0.00020520,0.00005258,-0.00000456,0.00006147,0.0
 0003522,0.00000376,0.00003836,0.00001133,0.00002972,-0.00007820,0.0000
 6946,0.00001850,-0.00007836,-0.00004174,-0.00001030,-0.00004132,0.0023
 1484,-0.00124520,-0.01117640,0.02011796,0.00095851,0.02372582,-0.13139
 062,-0.01098778,-0.13408506,-0.08335436,-0.00839487,-0.03079418,0.0232
 7328,-0.00001562,-0.00507904,0.00065107,0.00035832,0.00092068,-0.00291
 820,0.00035367,0.00228998,0.00130534,0.00094510,0.00529821,0.18385846,
 0.01809000,0.14344088,-0.00026204,0.00078547,-0.00066950,0.00151317,0.
 00013093,-0.00005345,-0.00134756,0.00315037,-0.00301168,-0.00036754,-0
 .00030321,0.00004660,-0.00031334,0.00048550,-0.00004552,-0.00076897,-0
 .00119338,0.00368071,-0.00032840,-0.00072368,0.00317236,0.01805409,0.0
 0385962,0.04439185,0.00081233,0.00063983,0.00049090,-0.00000764,-0.000
 08468,0.00001235,-0.00039502,-0.00061213,0.00039903,-0.00048033,-0.000
 16517,-0.00036162,-0.00005918,-0.00003749,-0.00005267,0.00026996,0.000
 00965,0.00043973,0.00000427,-0.00002456,0.00017321,0.00005084,0.000036
 18,0.00004252,0.00001182,0.00013462,-0.00012706,0.00020385,0.00012099,
 0.00006070,-0.00006937,-0.00001388,-0.00008519,-0.01132534,-0.00058972
 ,-0.00830391,0.00785014,0.00018926,-0.00230666,-0.00476719,0.00155047,
 0.02222422,-0.01573337,-0.01022195,-0.07715163,-0.12044880,-0.01361277
 ,-0.09399431,0.00020800,0.00011886,0.00151836,0.00070854,-0.00007566,-
 0.00037913,0.00454227,0.00050993,0.00106340,-0.00351719,-0.00075258,-0
 .00709972,0.12596202,-0.00038237,0.00070295,-0.00041377,0.00140796,-0.
 00169432,0.00031746,-0.00099619,-0.00343616,-0.00075485,-0.00051644,0.
 00054870,0.00002744,-0.00035882,0.00107064,-0.00025777,0.00089303,0.00
 055982,-0.00028092,-0.00007775,-0.00047697,-0.00046850,0.00434528,0.01
 936956,-0.01044841,-0.00057726,-0.00064404,0.00035194,0.00000203,-0.00
 008390,0.00001076,-0.00009731,0.00001659,0.00024136,-0.00012352,0.0001
 6530,-0.00019773,0.00008370,0.00002691,0.00000129,0.00022138,0.0001202
 3,0.00009137,0.00004981,0.00000068,-0.00003383,-0.00001284,0.00003245,
 0.00010899,0.00007435,0.00002784,-0.00011328,0.00023995,0.00004648,-0.
 00003641,-0.00002172,-0.00003134,-0.00000334,0.00026770,0.00444158,-0.
 00046295,0.00027902,-0.00102456,-0.00059899,-0.00016853,0.00760163,0.0
 0165976,-0.00698665,0.01923871,-0.01220207,-0.01352505,-0.09159345,-0.
 07307542,-0.00029004,-0.00034006,-0.00015463,0.00004330,-0.00046169,0.
 00003879,0.00034890,-0.00382017,0.00012331,-0.00081112,-0.00170146,-0.
 00069895,0.01668919,0.05133807,-0.00118936,0.00008098,-0.00067014,0.00
 145603,-0.00225833,-0.00057525,-0.01280864,0.00029766,-0.00734126,0.00
 082623,0.00129031,0.00171783,0.00011034,0.00079655,-0.00065330,0.00273
 101,0.00006162,0.00103499,0.00405956,-0.00078072,0.00020333,0.02879353
 ,-0.01038565,-0.07816393,-0.00100389,-0.00116597,0.00113570,0.00002471
 ,-0.00030092,0.00030015,0.00038411,0.00051816,0.00067959,-0.00087268,0
 .00015638,-0.00074275,0.00038353,0.00019918,-0.00002795,0.00134002,0.0
 0034469,0.00014450,0.00021032,0.00004710,0.00004279,0.00004322,-0.0000
 5390,0.00012828,-0.00000157,-0.00011460,-0.00021533,0.00028182,0.00008
 791,0.00009531,-0.00008866,-0.00006884,0.00005664,0.00727935,0.0001133
 4,0.00412596,-0.00090685,-0.00012396,-0.00388105,0.00317815,0.00027417
 ,0.01129577,-0.04510578,-0.01098312,-0.04828746,-0.09666262,-0.0746354
 0,-0.64268124,-0.00169402,-0.00027283,-0.00179668,-0.00006581,-0.00004
 802,0.00012054,-0.00058295,0.00005175,-0.00324874,-0.00604520,-0.00035
 687,-0.00412186,0.11592610,0.09722935,0.77132556\\-0.00001045,-0.00000
 914,-0.00001459,0.00000560,-0.00000028,0.00002162,-0.00001226,0.000004
 19,0.00000682,-0.00000615,-0.00000374,-0.00000985,-0.00000089,-0.00000
 008,-0.00000227,0.00000817,-0.00000063,-0.00001196,0.00000246,-0.00000
 010,0.00000064,0.00001183,-0.00000234,-0.00000706,-0.00000469,-0.00000
 447,0.00000812,0.00000414,0.00000501,0.00000071,0.00001357,0.00000291,
 0.00000049,0.00001513,0.00000168,0.00000332,-0.00000062,0.00000306,0.0
 0000101,-0.00001129,-0.00000173,-0.00000235,-0.00000364,-0.00000183,-0
 .00000235,-0.00000325,-0.00000066,-0.00000011,-0.00000338,0.00000279,-
 0.00000082,-0.00000031,-0.00000023,-0.00000029,0.00000172,0.00000253,-
 0.00000230,0.00000216,0.00000168,0.00000464,-0.00000280,-0.00000149,0.
 00000012,-0.00000609,0.00000375,-0.00001316,0.00001077,-0.00000037,0.0
 0001490,-0.00001440,-0.00000176,0.00000626,-0.00000074,0.00000044,-0.0
 0000127,0.00000031,0.00000026,0.00000054,-0.00000109,0.00000038,-0.000
 00174,0.00000364,-0.00000071,0.00000311,0.00000253,0.00000090,-0.00000
 219\\\@
 The archive entry for this job was punched.


 ... A MOLECULAR SYSTEM ... (PASSES) ... FROM ONE STATE OF EQUILIBRIUM 
 TO ANOTHER ... BY MEANS OF ALL POSSIBLE INTERMEDIATE PATHS, 
 BUT THE PATH MOST ECONOMICAL OF ENERGY WILL BE THE MORE OFTEN TRAVELED.

                      -- HENRY EYRING, 1945
 Job cpu time:       0 days 10 hours 36 minutes 18.2 seconds.
 Elapsed time:       0 days  0 hours 16 minutes  2.7 seconds.
 File lengths (MBytes):  RWF=    632 Int=      0 D2E=      0 Chk=     21 Scr=      1
 Normal termination of Gaussian 16 at Thu Oct 17 08:39:27 2024.
