 Entering Gaussian System, Link 0=g16
 Input=UridineMNsrraPBE0aVDZ.gjf
 Output=UridineMNsrraPBE0aVDZ.log
 Initial command:
 /sw/contrib/chem-src/g16/c01/g16/l1.exe "/scr/Gau-76524.inp" -scrdir="/scr/"
 Entering Link 1 = /sw/contrib/chem-src/g16/c01/g16/l1.exe PID=     76525.
  
 Copyright (c) 1988-2019, Gaussian, Inc.  All Rights Reserved.
  
 This is part of the Gaussian(R) 16 program.  It is based on
 the Gaussian(R) 09 system (copyright 2009, Gaussian, Inc.),
 the Gaussian(R) 03 system (copyright 2003, Gaussian, Inc.),
 the Gaussian(R) 98 system (copyright 1998, Gaussian, Inc.),
 the Gaussian(R) 94 system (copyright 1995, Gaussian, Inc.),
 the Gaussian 92(TM) system (copyright 1992, Gaussian, Inc.),
 the Gaussian 90(TM) system (copyright 1990, Gaussian, Inc.),
 the Gaussian 88(TM) system (copyright 1988, Gaussian, Inc.),
 the Gaussian 86(TM) system (copyright 1986, Carnegie Mellon
 University), and the Gaussian 82(TM) system (copyright 1983,
 Carnegie Mellon University). Gaussian is a federally registered
 trademark of Gaussian, Inc.
  
 This software contains proprietary and confidential information,
 including trade secrets, belonging to Gaussian, Inc.
  
 This software is provided under written license and may be
 used, copied, transmitted, or stored only in accord with that
 written license.
  
 The following legend is applicable only to US Government
 contracts under FAR:
  
                    RESTRICTED RIGHTS LEGEND
  
 Use, reproduction and disclosure by the US Government is
 subject to restrictions as set forth in subparagraphs (a)
 and (c) of the Commercial Computer Software - Restricted
 Rights clause in FAR 52.227-19.
  
 Gaussian, Inc.
 340 Quinnipiac St., Bldg. 40, Wallingford CT 06492
  
  
 ---------------------------------------------------------------
 Warning -- This program may not be used in any manner that
 competes with the business of Gaussian, Inc. or will provide
 assistance to any competitor of Gaussian, Inc.  The licensee
 of this program is prohibited from giving any competitor of
 Gaussian, Inc. access to this program.  By using this program,
 the user acknowledges that Gaussian, Inc. is engaged in the
 business of creating and licensing software in the field of
 computational chemistry and represents and warrants to the
 licensee that it is not a competitor of Gaussian, Inc. and that
 it will not use this program in any manner prohibited above.
 ---------------------------------------------------------------
  

 Cite this work as:
 Gaussian 16, Revision C.01,
 M. J. Frisch, G. W. Trucks, H. B. Schlegel, G. E. Scuseria, 
 M. A. Robb, J. R. Cheeseman, G. Scalmani, V. Barone, 
 G. A. Petersson, H. Nakatsuji, X. Li, M. Caricato, A. V. Marenich, 
 J. Bloino, B. G. Janesko, R. Gomperts, B. Mennucci, H. P. Hratchian, 
 J. V. Ortiz, A. F. Izmaylov, J. L. Sonnenberg, D. Williams-Young, 
 F. Ding, F. Lipparini, F. Egidi, J. Goings, B. Peng, A. Petrone, 
 T. Henderson, D. Ranasinghe, V. G. Zakrzewski, J. Gao, N. Rega, 
 G. Zheng, W. Liang, M. Hada, M. Ehara, K. Toyota, R. Fukuda, 
 J. Hasegawa, M. Ishida, T. Nakajima, Y. Honda, O. Kitao, H. Nakai, 
 T. Vreven, K. Throssell, J. A. Montgomery, Jr., J. E. Peralta, 
 F. Ogliaro, M. J. Bearpark, J. J. Heyd, E. N. Brothers, K. N. Kudin, 
 V. N. Staroverov, T. A. Keith, R. Kobayashi, J. Normand, 
 K. Raghavachari, A. P. Rendell, J. C. Burant, S. S. Iyengar, 
 J. Tomasi, M. Cossi, J. M. Millam, M. Klene, C. Adamo, R. Cammi, 
 J. W. Ochterski, R. L. Martin, K. Morokuma, O. Farkas, 
 J. B. Foresman, and D. J. Fox, Gaussian, Inc., Wallingford CT, 2019.
 
 ******************************************
 Gaussian 16:  EM64L-G16RevC.01  3-Jul-2019
                24-Oct-2024 
 ******************************************
 %nprocshared=40
 Will use up to   40 processors via shared memory.
 %mem=50gb
 ------------------------------------------------------
 # PBE1PBE/aug-cc-pVDZ opt freq EmpiricalDispersion=GD3
 ------------------------------------------------------
 1/18=20,19=15,26=3,38=1/1,3;
 2/9=110,12=2,17=6,18=5,40=1/2;
 3/5=16,7=10,11=2,25=1,30=1,71=1,74=-13,124=31/1,2,3;
 4//1;
 5/5=2,38=5/2;
 6/7=2,8=2,9=2,10=2,28=1/1;
 7//1,2,3,16;
 1/18=20,19=15,26=3/3(2);
 2/9=110/2;
 99//99;
 2/9=110/2;
 3/5=16,7=10,11=2,25=1,30=1,71=1,74=-13,124=31/1,2,3;
 4/5=5,16=3,69=1/1;
 5/5=2,38=5/2;
 7//1,2,3,16;
 1/18=20,19=15,26=3/3(-5);
 2/9=110/2;
 6/7=2,8=2,9=2,10=2,19=2,28=1/1;
 99/9=1/99;
 ----
 blah
 ----
 Symbolic Z-matrix:
 Charge = -1 Multiplicity = 1
 C                    -2.0384   -0.16703   0.81986 
 C                    -1.17422  -1.37168   0.43055 
 C                    -0.40915  -0.82028  -0.77492 
 O                    -1.98957  -2.42771  -0.01303 
 H                    -0.48546  -1.70039   1.22386 
 O                    -1.2041    0.19675  -1.33635 
 H                    -0.22266  -1.61806  -1.50153 
 N                     0.90048  -0.26055  -0.39821 
 C                    -2.37759   0.4098   -0.55058 
 H                    -1.45644   0.5624    1.40075 
 O                    -3.23043  -0.53183   1.49013 
 C                    -2.76655   1.86663  -0.57189 
 H                    -3.21361  -0.17205  -0.97317 
 O                    -1.7839    2.62821   0.11379 
 H                    -3.75219   1.95689  -0.0855 
 H                    -2.85995   2.1891   -1.62089 
 H                    -3.06687  -0.54154   2.43736 
 H                    -2.79232  -2.40539   0.52495 
 H                    -1.99475   3.56104   0.02665 
 C                     1.08661   1.07676  -0.15911 
 C                     2.28398   1.59256   0.20077 
 C                     3.43663   0.72676   0.34295 
 N                     3.1467   -0.61895   0.0775 
 C                     1.9382   -1.1756   -0.26961 
 H                     0.19923   1.69423  -0.28647 
 H                     2.40857   2.65594   0.38056 
 O                     4.56683   1.05909   0.65804 
 O                     1.78061  -2.37188  -0.4451 
 

 GradGradGradGradGradGradGradGradGradGradGradGradGradGradGradGradGradGrad
 Berny optimization.
 Initialization pass.
                           ----------------------------
                           !    Initial Parameters    !
                           ! (Angstroms and Degrees)  !
 --------------------------                            --------------------------
 ! Name  Definition              Value          Derivative Info.                !
 --------------------------------------------------------------------------------
 ! R1    R(1,2)                  1.5328         estimate D2E/DX2                !
 ! R2    R(1,9)                  1.5251         estimate D2E/DX2                !
 ! R3    R(1,10)                 1.0992         estimate D2E/DX2                !
 ! R4    R(1,11)                 1.4154         estimate D2E/DX2                !
 ! R5    R(2,3)                  1.5305         estimate D2E/DX2                !
 ! R6    R(2,4)                  1.406          estimate D2E/DX2                !
 ! R7    R(2,5)                  1.1008         estimate D2E/DX2                !
 ! R8    R(3,6)                  1.4077         estimate D2E/DX2                !
 ! R9    R(3,7)                  1.0951         estimate D2E/DX2                !
 ! R10   R(3,8)                  1.4732         estimate D2E/DX2                !
 ! R11   R(4,18)                 0.9666         estimate D2E/DX2                !
 ! R12   R(6,9)                  1.4282         estimate D2E/DX2                !
 ! R13   R(8,20)                 1.3712         estimate D2E/DX2                !
 ! R14   R(8,24)                 1.3895         estimate D2E/DX2                !
 ! R15   R(9,12)                 1.508          estimate D2E/DX2                !
 ! R16   R(9,13)                 1.1028         estimate D2E/DX2                !
 ! R17   R(11,17)                0.9613         estimate D2E/DX2                !
 ! R18   R(12,14)                1.4198         estimate D2E/DX2                !
 ! R19   R(12,15)                1.1028         estimate D2E/DX2                !
 ! R20   R(12,16)                1.1014         estimate D2E/DX2                !
 ! R21   R(14,19)                0.9603         estimate D2E/DX2                !
 ! R22   R(20,21)                1.3525         estimate D2E/DX2                !
 ! R23   R(20,25)                1.0886         estimate D2E/DX2                !
 ! R24   R(21,22)                1.4486         estimate D2E/DX2                !
 ! R25   R(21,26)                1.0856         estimate D2E/DX2                !
 ! R26   R(22,23)                1.4019         estimate D2E/DX2                !
 ! R27   R(22,27)                1.2195         estimate D2E/DX2                !
 ! R28   R(23,24)                1.3751         estimate D2E/DX2                !
 ! R29   R(24,28)                1.2193         estimate D2E/DX2                !
 ! A1    A(2,1,9)              101.2102         estimate D2E/DX2                !
 ! A2    A(2,1,10)             110.9322         estimate D2E/DX2                !
 ! A3    A(2,1,11)             113.1129         estimate D2E/DX2                !
 ! A4    A(9,1,10)             109.9768         estimate D2E/DX2                !
 ! A5    A(9,1,11)             109.6166         estimate D2E/DX2                !
 ! A6    A(10,1,11)            111.5109         estimate D2E/DX2                !
 ! A7    A(1,2,3)              101.4626         estimate D2E/DX2                !
 ! A8    A(1,2,4)              110.0884         estimate D2E/DX2                !
 ! A9    A(1,2,5)              113.8529         estimate D2E/DX2                !
 ! A10   A(3,2,4)              108.1798         estimate D2E/DX2                !
 ! A11   A(3,2,5)              111.2489         estimate D2E/DX2                !
 ! A12   A(4,2,5)              111.4644         estimate D2E/DX2                !
 ! A13   A(2,3,6)              106.9855         estimate D2E/DX2                !
 ! A14   A(2,3,7)              110.198          estimate D2E/DX2                !
 ! A15   A(2,3,8)              112.3245         estimate D2E/DX2                !
 ! A16   A(6,3,7)              110.9697         estimate D2E/DX2                !
 ! A17   A(6,3,8)              109.2393         estimate D2E/DX2                !
 ! A18   A(7,3,8)              107.162          estimate D2E/DX2                !
 ! A19   A(2,4,18)             106.7787         estimate D2E/DX2                !
 ! A20   A(3,6,9)              110.6308         estimate D2E/DX2                !
 ! A21   A(3,8,20)             122.3985         estimate D2E/DX2                !
 ! A22   A(3,8,24)             115.9355         estimate D2E/DX2                !
 ! A23   A(20,8,24)            121.6517         estimate D2E/DX2                !
 ! A24   A(1,9,6)              104.787          estimate D2E/DX2                !
 ! A25   A(1,9,12)             115.8143         estimate D2E/DX2                !
 ! A26   A(1,9,13)             108.2639         estimate D2E/DX2                !
 ! A27   A(6,9,12)             110.3805         estimate D2E/DX2                !
 ! A28   A(6,9,13)             109.4729         estimate D2E/DX2                !
 ! A29   A(12,9,13)            107.9849         estimate D2E/DX2                !
 ! A30   A(1,11,17)            109.0226         estimate D2E/DX2                !
 ! A31   A(9,12,14)            109.4424         estimate D2E/DX2                !
 ! A32   A(9,12,15)            107.6591         estimate D2E/DX2                !
 ! A33   A(9,12,16)            108.5523         estimate D2E/DX2                !
 ! A34   A(14,12,15)           111.2033         estimate D2E/DX2                !
 ! A35   A(14,12,16)           111.1994         estimate D2E/DX2                !
 ! A36   A(15,12,16)           108.6811         estimate D2E/DX2                !
 ! A37   A(12,14,19)           108.9815         estimate D2E/DX2                !
 ! A38   A(8,20,21)            122.5824         estimate D2E/DX2                !
 ! A39   A(8,20,25)            114.9716         estimate D2E/DX2                !
 ! A40   A(21,20,25)           122.445          estimate D2E/DX2                !
 ! A41   A(20,21,22)           120.173          estimate D2E/DX2                !
 ! A42   A(20,21,26)           121.2795         estimate D2E/DX2                !
 ! A43   A(22,21,26)           118.5454         estimate D2E/DX2                !
 ! A44   A(21,22,23)           112.9899         estimate D2E/DX2                !
 ! A45   A(21,22,27)           126.8652         estimate D2E/DX2                !
 ! A46   A(23,22,27)           120.1449         estimate D2E/DX2                !
 ! A47   A(22,23,24)           128.1795         estimate D2E/DX2                !
 ! A48   A(8,24,23)            114.4017         estimate D2E/DX2                !
 ! A49   A(8,24,28)            122.4299         estimate D2E/DX2                !
 ! A50   A(23,24,28)           123.1674         estimate D2E/DX2                !
 ! D1    D(9,1,2,3)             36.6319         estimate D2E/DX2                !
 ! D2    D(9,1,2,4)            -77.7696         estimate D2E/DX2                !
 ! D3    D(9,1,2,5)            156.235          estimate D2E/DX2                !
 ! D4    D(10,1,2,3)           -80.0286         estimate D2E/DX2                !
 ! D5    D(10,1,2,4)           165.5698         estimate D2E/DX2                !
 ! D6    D(10,1,2,5)            39.5745         estimate D2E/DX2                !
 ! D7    D(11,1,2,3)           153.807          estimate D2E/DX2                !
 ! D8    D(11,1,2,4)            39.4054         estimate D2E/DX2                !
 ! D9    D(11,1,2,5)           -86.5899         estimate D2E/DX2                !
 ! D10   D(2,1,9,6)            -35.7417         estimate D2E/DX2                !
 ! D11   D(2,1,9,12)          -157.5984         estimate D2E/DX2                !
 ! D12   D(2,1,9,13)            81.0138         estimate D2E/DX2                !
 ! D13   D(10,1,9,6)            81.6179         estimate D2E/DX2                !
 ! D14   D(10,1,9,12)          -40.2388         estimate D2E/DX2                !
 ! D15   D(10,1,9,13)         -161.6266         estimate D2E/DX2                !
 ! D16   D(11,1,9,6)          -155.4426         estimate D2E/DX2                !
 ! D17   D(11,1,9,12)           82.7007         estimate D2E/DX2                !
 ! D18   D(11,1,9,13)          -38.6872         estimate D2E/DX2                !
 ! D19   D(2,1,11,17)           91.2159         estimate D2E/DX2                !
 ! D20   D(9,1,11,17)         -156.6661         estimate D2E/DX2                !
 ! D21   D(10,1,11,17)         -34.6393         estimate D2E/DX2                !
 ! D22   D(1,2,3,6)            -25.9289         estimate D2E/DX2                !
 ! D23   D(1,2,3,7)           -146.6654         estimate D2E/DX2                !
 ! D24   D(1,2,3,8)             93.9316         estimate D2E/DX2                !
 ! D25   D(4,2,3,6)             89.8858         estimate D2E/DX2                !
 ! D26   D(4,2,3,7)            -30.8507         estimate D2E/DX2                !
 ! D27   D(4,2,3,8)           -150.2537         estimate D2E/DX2                !
 ! D28   D(5,2,3,6)           -147.3664         estimate D2E/DX2                !
 ! D29   D(5,2,3,7)             91.8971         estimate D2E/DX2                !
 ! D30   D(5,2,3,8)            -27.5059         estimate D2E/DX2                !
 ! D31   D(1,2,4,18)           -36.0629         estimate D2E/DX2                !
 ! D32   D(3,2,4,18)          -146.1115         estimate D2E/DX2                !
 ! D33   D(5,2,4,18)            91.272          estimate D2E/DX2                !
 ! D34   D(2,3,6,9)              3.6666         estimate D2E/DX2                !
 ! D35   D(7,3,6,9)            123.9109         estimate D2E/DX2                !
 ! D36   D(8,3,6,9)           -118.1551         estimate D2E/DX2                !
 ! D37   D(2,3,8,20)           -95.7575         estimate D2E/DX2                !
 ! D38   D(2,3,8,24)            82.8905         estimate D2E/DX2                !
 ! D39   D(6,3,8,20)            22.7838         estimate D2E/DX2                !
 ! D40   D(6,3,8,24)          -158.5681         estimate D2E/DX2                !
 ! D41   D(7,3,8,20)           143.0813         estimate D2E/DX2                !
 ! D42   D(7,3,8,24)           -38.2707         estimate D2E/DX2                !
 ! D43   D(3,6,9,1)             20.5679         estimate D2E/DX2                !
 ! D44   D(3,6,9,12)           145.9139         estimate D2E/DX2                !
 ! D45   D(3,6,9,13)           -95.3529         estimate D2E/DX2                !
 ! D46   D(3,8,20,21)          179.2782         estimate D2E/DX2                !
 ! D47   D(3,8,20,25)           -1.0738         estimate D2E/DX2                !
 ! D48   D(24,8,20,21)           0.7065         estimate D2E/DX2                !
 ! D49   D(24,8,20,25)        -179.6456         estimate D2E/DX2                !
 ! D50   D(3,8,24,23)          179.7555         estimate D2E/DX2                !
 ! D51   D(3,8,24,28)           -0.5933         estimate D2E/DX2                !
 ! D52   D(20,8,24,23)          -1.5855         estimate D2E/DX2                !
 ! D53   D(20,8,24,28)         178.0657         estimate D2E/DX2                !
 ! D54   D(1,9,12,14)           51.368          estimate D2E/DX2                !
 ! D55   D(1,9,12,15)          -69.6223         estimate D2E/DX2                !
 ! D56   D(1,9,12,16)          172.8996         estimate D2E/DX2                !
 ! D57   D(6,9,12,14)          -67.4586         estimate D2E/DX2                !
 ! D58   D(6,9,12,15)          171.5511         estimate D2E/DX2                !
 ! D59   D(6,9,12,16)           54.073          estimate D2E/DX2                !
 ! D60   D(13,9,12,14)         172.905          estimate D2E/DX2                !
 ! D61   D(13,9,12,15)          51.9147         estimate D2E/DX2                !
 ! D62   D(13,9,12,16)         -65.5633         estimate D2E/DX2                !
 ! D63   D(9,12,14,19)         174.813          estimate D2E/DX2                !
 ! D64   D(15,12,14,19)        -66.3712         estimate D2E/DX2                !
 ! D65   D(16,12,14,19)         54.8916         estimate D2E/DX2                !
 ! D66   D(8,20,21,22)           0.2547         estimate D2E/DX2                !
 ! D67   D(8,20,21,26)         179.717          estimate D2E/DX2                !
 ! D68   D(25,20,21,22)       -179.3672         estimate D2E/DX2                !
 ! D69   D(25,20,21,26)          0.0952         estimate D2E/DX2                !
 ! D70   D(20,21,22,23)         -0.2022         estimate D2E/DX2                !
 ! D71   D(20,21,22,27)        179.9185         estimate D2E/DX2                !
 ! D72   D(26,21,22,23)       -179.6791         estimate D2E/DX2                !
 ! D73   D(26,21,22,27)          0.4416         estimate D2E/DX2                !
 ! D74   D(21,22,23,24)         -0.8733         estimate D2E/DX2                !
 ! D75   D(27,22,23,24)        179.015          estimate D2E/DX2                !
 ! D76   D(22,23,24,8)           1.7465         estimate D2E/DX2                !
 ! D77   D(22,23,24,28)       -177.9017         estimate D2E/DX2                !
 --------------------------------------------------------------------------------
 Trust Radius=3.00D-01 FncErr=1.00D-07 GrdErr=1.00D-06 EigMax=2.50D+02 EigMin=1.00D-04
 Number of steps in this run=    166 maximum allowed number of steps=    168.
 GradGradGradGradGradGradGradGradGradGradGradGradGradGradGradGradGradGrad

                          Input orientation:                          
 ---------------------------------------------------------------------
 Center     Atomic      Atomic             Coordinates (Angstroms)
 Number     Number       Type             X           Y           Z
 ---------------------------------------------------------------------
      1          6           0       -2.038404   -0.167034    0.819857
      2          6           0       -1.174217   -1.371677    0.430546
      3          6           0       -0.409147   -0.820276   -0.774917
      4          8           0       -1.989571   -2.427713   -0.013028
      5          1           0       -0.485461   -1.700386    1.223858
      6          8           0       -1.204100    0.196745   -1.336353
      7          1           0       -0.222661   -1.618057   -1.501529
      8          7           0        0.900479   -0.260547   -0.398208
      9          6           0       -2.377585    0.409797   -0.550580
     10          1           0       -1.456440    0.562403    1.400749
     11          8           0       -3.230430   -0.531830    1.490128
     12          6           0       -2.766545    1.866631   -0.571891
     13          1           0       -3.213614   -0.172053   -0.973166
     14          8           0       -1.783896    2.628206    0.113789
     15          1           0       -3.752188    1.956886   -0.085504
     16          1           0       -2.859946    2.189097   -1.620892
     17          1           0       -3.066866   -0.541544    2.437357
     18          1           0       -2.792317   -2.405393    0.524954
     19          1           0       -1.994752    3.561044    0.026654
     20          6           0        1.086608    1.076755   -0.159114
     21          6           0        2.283982    1.592561    0.200770
     22          6           0        3.436634    0.726757    0.342953
     23          7           0        3.146704   -0.618951    0.077502
     24          6           0        1.938199   -1.175602   -0.269612
     25          1           0        0.199227    1.694234   -0.286467
     26          1           0        2.408572    2.655939    0.380564
     27          8           0        4.566831    1.059094    0.658036
     28          8           0        1.780612   -2.371880   -0.445096
 ---------------------------------------------------------------------
                    Distance matrix (angstroms):
                    1          2          3          4          5
     1  C    0.000000
     2  C    1.532823   0.000000
     3  C    2.371604   1.530528   0.000000
     4  O    2.409720   1.405977   2.379510   0.000000
     5  H    2.219463   1.100808   2.185296   2.078759   0.000000
     6  O    2.340436   2.362789   1.407655   3.042357   3.266532
     7  H    3.285000   2.167735   1.095078   2.448091   2.739266
     8  N    3.182681   2.495157   1.473203   3.632817   2.573920
     9  C    1.525082   2.363123   2.331985   2.913929   3.343895
    10  H    1.099180   2.182111   2.782471   3.350192   2.468665
    11  O    1.415368   2.460908   3.629500   2.719114   2.995209
    12  C    2.569620   3.745267   3.580225   4.399705   4.599094
    13  H    2.143846   2.751117   2.885226   2.740100   3.821719
    14  O    2.894248   4.058461   3.817298   5.061690   4.653482
    15  H    2.875373   4.241648   4.400437   4.726180   5.075586
    16  H    3.490493   4.441755   3.972205   4.965653   5.372044
    17  H    1.953023   2.880717   4.178500   3.274536   3.078822
    18  H    2.380253   1.922428   3.143527   0.966604   2.511391
    19  H    3.811777   5.016786   4.727856   5.988891   5.603026
    20  C    3.503012   3.384353   2.493035   4.665353   3.478006
    21  C    4.707703   4.560553   3.745222   5.871249   4.422672
    22  C    5.567975   5.066660   4.293364   6.286581   4.695726
    23  N    5.257439   4.400181   3.662134   5.446204   3.959325
    24  C    4.244705   3.196217   2.427267   4.130496   2.894819
    25  H    3.113722   3.435152   2.632767   4.675046   3.778005
    26  H    5.285617   5.390785   4.621552   6.733654   5.297560
    27  O    6.720023   6.238592   5.508697   7.456176   5.784509
    28  O    4.587628   3.240088   2.703942   3.795271   2.893337
                    6          7          8          9         10
     6  O    0.000000
     7  H    2.069785   0.000000
     8  N    2.349146   2.078844   0.000000
     9  C    1.428250   3.108085   3.349370   0.000000
    10  H    2.772924   3.834036   3.077103   2.163211   0.000000
    11  O    3.553284   4.379107   4.550145   2.403850   2.086235
    12  C    2.411256   4.413459   4.242890   1.508015   2.703460
    13  H    2.075106   3.363911   4.155017   1.102757   3.043445
    14  O    2.889823   4.803900   3.976544   2.390647   2.455817
    15  H    3.339981   5.219474   5.163536   2.121159   3.069852
    16  H    2.606195   4.632919   4.651506   2.131701   3.707597
    17  H    4.272687   4.976264   4.884589   3.210596   2.210594
    18  H    3.571837   3.365957   4.369134   3.042050   3.370371
    19  H    3.715027   5.683198   4.813255   3.226471   3.342120
    20  C    2.721700   3.283028   1.371199   3.549466   3.027346
    21  C    4.059281   4.414652   2.388904   4.867614   4.061026
    22  C    4.963607   4.721303   2.820669   5.891011   5.008804
    23  N    4.646917   3.852814   2.323850   5.654253   4.933104
    24  C    3.591005   2.526401   1.389505   4.606346   4.163453
    25  H    2.305225   3.553257   2.079762   2.891279   2.620872
    26  H    4.695406   5.360289   3.374422   5.368378   4.512426
    27  O    6.166432   5.896617   4.037232   7.078648   6.089180
    28  O    4.037410   2.386923   2.287916   5.003944   4.742960
                   11         12         13         14         15
    11  O    0.000000
    12  C    3.196831   0.000000
    13  H    2.489486   2.125353   0.000000
    14  O    3.737994   1.419772   3.326712   0.000000
    15  H    2.991414   1.102819   2.368626   2.089153   0.000000
    16  H    4.149596   1.101413   2.473795   2.088018   1.790931
    17  H    0.961296   3.865886   3.433617   4.134283   3.616165
    18  H    2.152613   4.410660   2.722069   5.150057   4.508158
    19  H    4.518880   1.955749   4.052318   0.960333   2.382117
    20  C    4.893298   3.954880   4.551276   3.274335   4.918739
    21  C    6.048489   5.116634   5.891990   4.198542   6.053927
    22  C    6.881119   6.373043   6.838554   5.560752   7.305885
    23  N    6.532300   6.447197   6.461986   5.903911   7.365882
    24  C    5.497804   5.610808   5.295590   5.335723   6.498221
    25  H    4.458049   2.984458   3.949945   2.228292   3.965230
    26  H    6.572012   5.320903   6.437321   4.201039   6.217786
    27  O    8.001293   7.479521   8.044369   6.564301   8.400295
    28  O    5.678153   6.217531   5.482736   6.165949   7.034159
                   16         17         18         19         20
    16  H    0.000000
    17  H    4.895774   0.000000
    18  H    5.071348   2.684510   0.000000
    19  H    2.311970   4.877719   6.040098   0.000000
    20  C    4.353089   5.158672   5.257315   3.962446   0.000000
    21  C    5.489472   6.179668   6.469741   4.713046   1.352508
    22  C    6.755890   6.949146   6.974476   6.134589   2.428413
    23  N    6.844671   6.647056   6.218003   6.626425   2.678694
    24  C    6.014096   5.725416   4.951919   6.163740   2.410504
    25  H    3.374036   4.804715   5.139521   2.897683   1.088551
    26  H    5.655179   6.665937   7.258593   4.509294   2.129005
    27  O    7.850314   8.000085   8.134952   7.050728   3.574912
    28  O    6.612094   5.929309   4.674805   7.048085   3.529378
                   21         22         23         24         25
    21  C    0.000000
    22  C    1.448599   0.000000
    23  N    2.377030   1.401946   0.000000
    24  C    2.829055   2.497902   1.375076   0.000000
    25  H    2.143348   3.437002   3.764428   3.355632   0.000000
    26  H    1.085643   2.186337   3.370696   3.914676   2.500202
    27  O    2.388531   1.219455   2.273679   3.572689   4.513475
    28  O    4.048125   3.600692   2.282997   1.219307   4.365687
                   26         27         28
    26  H    0.000000
    27  O    2.699071   0.000000
    28  O    5.133713   4.555381   0.000000
 Stoichiometry    C9H11N2O6(1-)
 Framework group  C1[X(C9H11N2O6)]
 Deg. of freedom    78
 Full point group                 C1      NOp   1
 Largest Abelian subgroup         C1      NOp   1
 Largest concise Abelian subgroup C1      NOp   1
                         Standard orientation:                         
 ---------------------------------------------------------------------
 Center     Atomic      Atomic             Coordinates (Angstroms)
 Number     Number       Type             X           Y           Z
 ---------------------------------------------------------------------
      1          6           0       -2.010272   -0.153790    0.819324
      2          6           0       -1.159169   -1.368412    0.432199
      3          6           0       -0.386776   -0.826882   -0.773069
      4          8           0       -1.985790   -2.415778   -0.011076
      5          1           0       -0.474925   -1.703912    1.226573
      6          8           0       -1.169774    0.198323   -1.336417
      7          1           0       -0.208454   -1.627482   -1.498630
      8          7           0        0.928623   -0.281372   -0.395616
      9          6           0       -2.341610    0.425293   -0.552081
     10          1           0       -1.420805    0.569748    1.400029
     11          8           0       -3.206970   -0.504551    1.488761
     12          6           0       -2.714288    1.886347   -0.575361
     13          1           0       -3.183642   -0.147664   -0.974900
     14          8           0       -1.723910    2.637670    0.110509
     15          1           0       -3.699358    1.988109   -0.090085
     16          1           0       -2.803023    2.208692   -1.624804
     17          1           0       -3.044487   -0.515056    2.436168
     18          1           0       -2.788784   -2.383929    0.526056
     19          1           0       -1.924268    3.572705    0.022153
     20          6           0        1.129401    1.054032   -0.157770
     21          6           0        2.332083    1.556854    0.202789
     22          6           0        3.474869    0.678415    0.347090
     23          7           0        3.170230   -0.664267    0.082790
     24          6           0        1.955949   -1.207794   -0.264968
     25          1           0        0.249087    1.681222   -0.286701
     26          1           0        2.468333    2.618973    0.381567
     27          8           0        4.608379    0.998479    0.662977
     28          8           0        1.785219   -2.402432   -0.439326
 ---------------------------------------------------------------------
 Rotational constants (GHZ):           0.8020718           0.3339574           0.2656848
 Standard basis: Aug-CC-pVDZ (5D, 7F)
 There are   524 symmetry adapted cartesian basis functions of A   symmetry.
 There are   490 symmetry adapted basis functions of A   symmetry.
   490 basis functions,   852 primitive gaussians,   524 cartesian basis functions
    64 alpha electrons       64 beta electrons
       nuclear repulsion energy      1309.1977923650 Hartrees.
 NAtoms=   28 NActive=   28 NUniq=   28 SFac= 1.00D+00 NAtFMM=   60 NAOKFM=F Big=F
 Integral buffers will be    131072 words long.
 Raffenetti 2 integral format.
 Two-electron integral symmetry is turned on.
 Nuclear repulsion after empirical dispersion term =     1309.1780745031 Hartrees.
 One-electron integrals computed using PRISM.
 NBasis=   490 RedAO= T EigKep=  3.34D-06  NBF=   490
 NBsUse=   490 1.00D-06 EigRej= -1.00D+00 NBFU=   490
 ExpMin= 2.97D-02 ExpMax= 1.17D+04 ExpMxC= 4.01D+02 IAcc=3 IRadAn=         5 AccDes= 0.00D+00
 Harris functional with IExCor= 1009 and IRadAn=       5 diagonalized for initial guess.
 HarFok:  IExCor= 1009 AccDes= 0.00D+00 IRadAn=         5 IDoV= 1 UseB2=F ITyADJ=14
 ICtDFT=  3500011 ScaDFX=  1.000000  1.000000  1.000000  1.000000
 FoFCou: FMM=F IPFlag=           0 FMFlag=      100000 FMFlg1=           0
         NFxFlg=           0 DoJE=T BraDBF=F KetDBF=T FulRan=T
         wScrn=  0.000000 ICntrl=       500 IOpCl=  0 I1Cent=   200000004 NGrid=           0
         NMat0=    1 NMatS0=      1 NMatT0=    0 NMatD0=    1 NMtDS0=    0 NMtDT0=    0
 Petite list used in FoFCou.
 Requested convergence on RMS density matrix=1.00D-08 within 128 cycles.
 Requested convergence on MAX density matrix=1.00D-06.
 Requested convergence on             energy=1.00D-06.
 No special actions if energy rises.
 EnCoef did     3 forward-backward iterations
 SCF Done:  E(RPBE1PBE) =  -909.635650324     A.U. after   16 cycles
            NFock= 16  Conv=0.88D-08     -V/T= 2.0052

 **********************************************************************

            Population analysis using the SCF Density.

 **********************************************************************

 Orbital symmetries:
       Occupied  (A) (A) (A) (A) (A) (A) (A) (A) (A) (A) (A) (A)
                 (A) (A) (A) (A) (A) (A) (A) (A) (A) (A) (A) (A)
                 (A) (A) (A) (A) (A) (A) (A) (A) (A) (A) (A) (A)
                 (A) (A) (A) (A) (A) (A) (A) (A) (A) (A) (A) (A)
                 (A) (A) (A) (A) (A) (A) (A) (A) (A) (A) (A) (A)
                 (A) (A) (A) (A)
       Virtual   (A) (A) (A) (A) (A) (A) (A) (A) (A) (A) (A) (A)
                 (A) (A) (A) (A) (A) (A) (A) (A) (A) (A) (A) (A)
                 (A) (A) (A) (A) (A) (A) (A) (A) (A) (A) (A) (A)
                 (A) (A) (A) (A) (A) (A) (A) (A) (A) (A) (A) (A)
                 (A) (A) (A) (A) (A) (A) (A) (A) (A) (A) (A) (A)
                 (A) (A) (A) (A) (A) (A) (A) (A) (A) (A) (A) (A)
                 (A) (A) (A) (A) (A) (A) (A) (A) (A) (A) (A) (A)
                 (A) (A) (A) (A) (A) (A) (A) (A) (A) (A) (A) (A)
                 (A) (A) (A) (A) (A) (A) (A) (A) (A) (A) (A) (A)
                 (A) (A) (A) (A) (A) (A) (A) (A) (A) (A) (A) (A)
                 (A) (A) (A) (A) (A) (A) (A) (A) (A) (A) (A) (A)
                 (A) (A) (A) (A) (A) (A) (A) (A) (A) (A) (A) (A)
                 (A) (A) (A) (A) (A) (A) (A) (A) (A) (A) (A) (A)
                 (A) (A) (A) (A) (A) (A) (A) (A) (A) (A) (A) (A)
                 (A) (A) (A) (A) (A) (A) (A) (A) (A) (A) (A) (A)
                 (A) (A) (A) (A) (A) (A) (A) (A) (A) (A) (A) (A)
                 (A) (A) (A) (A) (A) (A) (A) (A) (A) (A) (A) (A)
                 (A) (A) (A) (A) (A) (A) (A) (A) (A) (A) (A) (A)
                 (A) (A) (A) (A) (A) (A) (A) (A) (A) (A) (A) (A)
                 (A) (A) (A) (A) (A) (A) (A) (A) (A) (A) (A) (A)
                 (A) (A) (A) (A) (A) (A) (A) (A) (A) (A) (A) (A)
                 (A) (A) (A) (A) (A) (A) (A) (A) (A) (A) (A) (A)
                 (A) (A) (A) (A) (A) (A) (A) (A) (A) (A) (A) (A)
                 (A) (A) (A) (A) (A) (A) (A) (A) (A) (A) (A) (A)
                 (A) (A) (A) (A) (A) (A) (A) (A) (A) (A) (A) (A)
                 (A) (A) (A) (A) (A) (A) (A) (A) (A) (A) (A) (A)
                 (A) (A) (A) (A) (A) (A) (A) (A) (A) (A) (A) (A)
                 (A) (A) (A) (A) (A) (A) (A) (A) (A) (A) (A) (A)
                 (A) (A) (A) (A) (A) (A) (A) (A) (A) (A) (A) (A)
                 (A) (A) (A) (A) (A) (A) (A) (A) (A) (A) (A) (A)
                 (A) (A) (A) (A) (A) (A) (A) (A) (A) (A) (A) (A)
                 (A) (A) (A) (A) (A) (A) (A) (A) (A) (A) (A) (A)
                 (A) (A) (A) (A) (A) (A) (A) (A) (A) (A) (A) (A)
                 (A) (A) (A) (A) (A) (A) (A) (A) (A) (A) (A) (A)
                 (A) (A) (A) (A) (A) (A) (A) (A) (A) (A) (A) (A)
                 (A) (A) (A) (A) (A) (A)
 The electronic state is 1-A.
 Alpha  occ. eigenvalues --  -19.17645 -19.16336 -19.14442 -19.13562 -19.01312
 Alpha  occ. eigenvalues --  -18.99998 -14.29890 -14.17545 -10.21280 -10.20797
 Alpha  occ. eigenvalues --  -10.20687 -10.20668 -10.18700 -10.17465 -10.14123
 Alpha  occ. eigenvalues --  -10.13570 -10.07721  -1.01942  -0.99935  -0.98908
 Alpha  occ. eigenvalues --   -0.96463  -0.91603  -0.87500  -0.83589  -0.72895
 Alpha  occ. eigenvalues --   -0.71674  -0.68387  -0.64629  -0.60730  -0.54551
 Alpha  occ. eigenvalues --   -0.53206  -0.50621  -0.49372  -0.47078  -0.45852
 Alpha  occ. eigenvalues --   -0.44295  -0.43440  -0.40734  -0.39703  -0.38428
 Alpha  occ. eigenvalues --   -0.37426  -0.36071  -0.34232  -0.33650  -0.32126
 Alpha  occ. eigenvalues --   -0.30307  -0.29630  -0.29196  -0.28814  -0.27714
 Alpha  occ. eigenvalues --   -0.27359  -0.25848  -0.24867  -0.23018  -0.22744
 Alpha  occ. eigenvalues --   -0.21649  -0.20450  -0.19503  -0.18781  -0.12222
 Alpha  occ. eigenvalues --   -0.08809  -0.08656  -0.06889  -0.06702
 Alpha virt. eigenvalues --    0.05208   0.06157   0.07665   0.09130   0.09790
 Alpha virt. eigenvalues --    0.10813   0.11705   0.12011   0.12476   0.13146
 Alpha virt. eigenvalues --    0.13597   0.13821   0.14242   0.14895   0.15176
 Alpha virt. eigenvalues --    0.16373   0.16687   0.16900   0.18064   0.18161
 Alpha virt. eigenvalues --    0.18436   0.18709   0.19336   0.19548   0.19828
 Alpha virt. eigenvalues --    0.19975   0.20391   0.20761   0.20944   0.21679
 Alpha virt. eigenvalues --    0.22030   0.22432   0.22828   0.22895   0.23275
 Alpha virt. eigenvalues --    0.23344   0.23912   0.24291   0.24663   0.25091
 Alpha virt. eigenvalues --    0.25713   0.26041   0.26589   0.27031   0.27512
 Alpha virt. eigenvalues --    0.27873   0.28315   0.28711   0.29167   0.29238
 Alpha virt. eigenvalues --    0.29656   0.29987   0.30677   0.31097   0.31579
 Alpha virt. eigenvalues --    0.31761   0.32271   0.32709   0.33264   0.33723
 Alpha virt. eigenvalues --    0.34074   0.34410   0.35456   0.35510   0.35894
 Alpha virt. eigenvalues --    0.36387   0.36605   0.37035   0.37243   0.37724
 Alpha virt. eigenvalues --    0.38083   0.38217   0.38317   0.39074   0.39350
 Alpha virt. eigenvalues --    0.39498   0.40000   0.40441   0.41005   0.41026
 Alpha virt. eigenvalues --    0.41654   0.41977   0.42382   0.42762   0.43125
 Alpha virt. eigenvalues --    0.43899   0.43932   0.44171   0.44583   0.45037
 Alpha virt. eigenvalues --    0.45535   0.45885   0.46264   0.46611   0.47058
 Alpha virt. eigenvalues --    0.47661   0.47912   0.48099   0.48485   0.48875
 Alpha virt. eigenvalues --    0.49889   0.50219   0.50815   0.51453   0.51617
 Alpha virt. eigenvalues --    0.52148   0.52346   0.52676   0.53173   0.54096
 Alpha virt. eigenvalues --    0.54529   0.54998   0.55241   0.56020   0.56412
 Alpha virt. eigenvalues --    0.56679   0.57695   0.58023   0.58709   0.59624
 Alpha virt. eigenvalues --    0.59802   0.60378   0.60982   0.61294   0.62096
 Alpha virt. eigenvalues --    0.62450   0.63184   0.63908   0.64720   0.64879
 Alpha virt. eigenvalues --    0.65420   0.65641   0.66692   0.66875   0.67828
 Alpha virt. eigenvalues --    0.68139   0.68362   0.69066   0.70102   0.70498
 Alpha virt. eigenvalues --    0.71020   0.71168   0.71479   0.72152   0.73630
 Alpha virt. eigenvalues --    0.73788   0.74520   0.74883   0.75132   0.76422
 Alpha virt. eigenvalues --    0.76671   0.77612   0.77978   0.79089   0.79353
 Alpha virt. eigenvalues --    0.80037   0.80464   0.80852   0.81108   0.81665
 Alpha virt. eigenvalues --    0.82293   0.82516   0.83285   0.83944   0.84248
 Alpha virt. eigenvalues --    0.85111   0.85949   0.86147   0.86486   0.86865
 Alpha virt. eigenvalues --    0.87516   0.87874   0.88490   0.89302   0.89741
 Alpha virt. eigenvalues --    0.90701   0.91273   0.92007   0.92507   0.92627
 Alpha virt. eigenvalues --    0.93489   0.94340   0.95043   0.95636   0.96370
 Alpha virt. eigenvalues --    0.97656   0.98306   0.98757   0.99074   1.00014
 Alpha virt. eigenvalues --    1.00201   1.02090   1.02742   1.03214   1.03748
 Alpha virt. eigenvalues --    1.04633   1.05192   1.06597   1.06913   1.07799
 Alpha virt. eigenvalues --    1.08230   1.08906   1.10736   1.11572   1.12269
 Alpha virt. eigenvalues --    1.13063   1.14260   1.14952   1.15714   1.16972
 Alpha virt. eigenvalues --    1.17251   1.18220   1.19220   1.20196   1.21489
 Alpha virt. eigenvalues --    1.21812   1.22903   1.23282   1.23749   1.25031
 Alpha virt. eigenvalues --    1.25624   1.26575   1.27151   1.28803   1.30019
 Alpha virt. eigenvalues --    1.30817   1.32090   1.32333   1.32822   1.33790
 Alpha virt. eigenvalues --    1.34266   1.35225   1.35564   1.37358   1.39081
 Alpha virt. eigenvalues --    1.39494   1.40183   1.40614   1.41446   1.43356
 Alpha virt. eigenvalues --    1.44085   1.45091   1.46314   1.46979   1.47128
 Alpha virt. eigenvalues --    1.48411   1.50420   1.50936   1.52314   1.53716
 Alpha virt. eigenvalues --    1.54982   1.55078   1.56450   1.56746   1.57881
 Alpha virt. eigenvalues --    1.58904   1.59677   1.60181   1.61211   1.62966
 Alpha virt. eigenvalues --    1.64107   1.65073   1.65613   1.66348   1.66602
 Alpha virt. eigenvalues --    1.67606   1.69452   1.70105   1.70516   1.71303
 Alpha virt. eigenvalues --    1.72520   1.72898   1.74766   1.75558   1.77075
 Alpha virt. eigenvalues --    1.77577   1.78723   1.79921   1.80612   1.82981
 Alpha virt. eigenvalues --    1.84367   1.84915   1.85854   1.86172   1.87266
 Alpha virt. eigenvalues --    1.87975   1.89261   1.90671   1.91534   1.92043
 Alpha virt. eigenvalues --    1.92304   1.93459   1.94249   1.94605   1.95951
 Alpha virt. eigenvalues --    1.96602   1.97849   1.99041   1.99992   2.00440
 Alpha virt. eigenvalues --    2.02034   2.03159   2.04394   2.04706   2.06622
 Alpha virt. eigenvalues --    2.07411   2.08139   2.09376   2.09912   2.10427
 Alpha virt. eigenvalues --    2.11398   2.12375   2.13622   2.15266   2.15983
 Alpha virt. eigenvalues --    2.17005   2.18082   2.19172   2.20118   2.22402
 Alpha virt. eigenvalues --    2.22780   2.23983   2.25013   2.25350   2.26832
 Alpha virt. eigenvalues --    2.28560   2.29235   2.30038   2.31163   2.32159
 Alpha virt. eigenvalues --    2.34792   2.35587   2.36306   2.38149   2.39241
 Alpha virt. eigenvalues --    2.39498   2.40726   2.42426   2.43691   2.45226
 Alpha virt. eigenvalues --    2.45877   2.48063   2.48158   2.49482   2.52599
 Alpha virt. eigenvalues --    2.52922   2.55659   2.56984   2.58378   2.58699
 Alpha virt. eigenvalues --    2.59580   2.62170   2.63829   2.64320   2.65928
 Alpha virt. eigenvalues --    2.67869   2.68682   2.70245   2.71104   2.73017
 Alpha virt. eigenvalues --    2.73803   2.76966   2.78153   2.78531   2.80444
 Alpha virt. eigenvalues --    2.83244   2.84887   2.85906   2.86692   2.88584
 Alpha virt. eigenvalues --    2.89750   2.91666   2.92595   2.94333   2.97497
 Alpha virt. eigenvalues --    2.98495   3.00956   3.06161   3.08303   3.09604
 Alpha virt. eigenvalues --    3.11011   3.17259   3.22813   3.26163   3.29977
 Alpha virt. eigenvalues --    3.31709   3.33128   3.40379   3.41304   3.46407
 Alpha virt. eigenvalues --    3.50843   3.53243   3.54977   3.57752   3.59021
 Alpha virt. eigenvalues --    3.59570   3.60502   3.61708   3.62654   3.63069
 Alpha virt. eigenvalues --    3.63891   3.65092   3.66083   3.66960   3.68268
 Alpha virt. eigenvalues --    3.69738   3.71464   3.71629   3.73726   3.76124
 Alpha virt. eigenvalues --    3.78734   3.82250   3.83047   3.83649   3.85283
 Alpha virt. eigenvalues --    3.91427   3.92557   4.00348   4.01927   4.03890
 Alpha virt. eigenvalues --    4.10841   4.12654   4.16672   4.26333   4.38925
 Alpha virt. eigenvalues --    4.69593
          Condensed to atoms (all electrons):
               1          2          3          4          5          6
     1  C   10.758461  -2.777538   0.317108   0.273862   0.302794  -0.212488
     2  C   -2.777538   9.667926  -2.236195  -0.627995  -1.013617   0.121317
     3  C    0.317108  -2.236195  11.158269   0.072626   0.217744  -0.171098
     4  O    0.273862  -0.627995   0.072626   8.761318  -0.079314   0.009303
     5  H    0.302794  -1.013617   0.217744  -0.079314   2.102932   0.042188
     6  O   -0.212488   0.121317  -0.171098   0.009303   0.042188   9.581552
     7  H    0.059288   0.281187  -0.661466  -0.064803   0.017581  -0.291279
     8  N    0.130797   0.309661  -0.769523   0.047802  -0.132597  -0.124120
     9  C   -2.450978   0.291913  -1.725589  -0.018275   0.219486  -0.220169
    10  H   -0.930526   0.547401  -0.103070  -0.009458  -0.134890   0.095871
    11  O   -0.746110   0.331852   0.095158  -0.040045  -0.054135   0.016310
    12  C    0.045789  -0.238289   0.092479   0.037097  -0.001589  -0.072914
    13  H    0.720336  -0.328691   0.250897   0.042302   0.010194  -0.050443
    14  O   -0.016433   0.005074  -0.016623   0.000871  -0.004150   0.018617
    15  H   -0.044332   0.073155  -0.008331  -0.001437   0.000698   0.078603
    16  H    0.003627   0.001415  -0.047588   0.000738   0.001196  -0.046927
    17  H    0.318251  -0.214269   0.001303   0.011413   0.020841  -0.008936
    18  H   -0.191616   0.115333  -0.025845   0.294207  -0.006491   0.008404
    19  H   -0.006837  -0.001310  -0.014790   0.000190  -0.000280  -0.009704
    20  C   -0.213075   0.555280  -1.490490  -0.004952  -0.079250   0.342155
    21  C   -0.012255  -0.021461   0.009188   0.003404   0.023584  -0.061361
    22  C   -0.004848   0.039679  -0.172747   0.000806  -0.018863   0.014749
    23  N   -0.028823   0.054345  -0.058207   0.000283  -0.002831   0.004168
    24  C    0.087475  -0.149785   0.195748  -0.008084   0.003884  -0.073885
    25  H    0.072990  -0.114489   0.168197  -0.001656  -0.009592  -0.196259
    26  H   -0.001480   0.008467   0.034514   0.000025  -0.000219   0.001412
    27  O    0.000434   0.000153  -0.002752  -0.000030   0.000685   0.000374
    28  O   -0.018571   0.027046   0.075688  -0.000245   0.019821   0.006847
               7          8          9         10         11         12
     1  C    0.059288   0.130797  -2.450978  -0.930526  -0.746110   0.045789
     2  C    0.281187   0.309661   0.291913   0.547401   0.331852  -0.238289
     3  C   -0.661466  -0.769523  -1.725589  -0.103070   0.095158   0.092479
     4  O   -0.064803   0.047802  -0.018275  -0.009458  -0.040045   0.037097
     5  H    0.017581  -0.132597   0.219486  -0.134890  -0.054135  -0.001589
     6  O   -0.291279  -0.124120  -0.220169   0.095871   0.016310  -0.072914
     7  H    1.980371  -0.087964   0.118553  -0.008513  -0.007203  -0.010541
     8  N   -0.087964   8.097970   0.092343  -0.007290  -0.018235   0.062958
     9  C    0.118553   0.092343  11.355211  -0.597944   0.176311  -0.454714
    10  H   -0.008513  -0.007290  -0.597944   2.555546  -0.059500  -0.077570
    11  O   -0.007203  -0.018235   0.176311  -0.059500   8.644097  -0.007229
    12  C   -0.010541   0.062958  -0.454714  -0.077570  -0.007229   5.330320
    13  H    0.009026  -0.001345  -1.635141   0.106107  -0.060239   0.054908
    14  O   -0.003251   0.017370  -0.188072   0.061665   0.006641   0.220144
    15  H   -0.002870  -0.003137   0.055106  -0.009751   0.015547   0.017024
    16  H    0.000820   0.005847   0.254104   0.017789   0.000730  -0.018870
    17  H    0.002030   0.003499  -0.005579  -0.146690   0.292095   0.007249
    18  H   -0.006543  -0.003546  -0.002177   0.025307   0.055379  -0.012111
    19  H   -0.000266  -0.000754   0.070713  -0.010461   0.000169  -0.093025
    20  C    0.044945   0.110059  -0.012242   0.179506  -0.006114  -0.034684
    21  C   -0.017406  -0.521059   0.101454  -0.048456   0.000935  -0.037736
    22  C    0.007252   0.015910   0.002735   0.022830  -0.000026  -0.004408
    23  N   -0.002790   0.041536   0.009561  -0.002061   0.000451  -0.001326
    24  C    0.072671  -0.184447  -0.121089  -0.006570   0.000030   0.005996
    25  H    0.013859   0.030875  -0.140078  -0.007239   0.001441   0.000527
    26  H   -0.001247   0.050726  -0.004867   0.000249   0.000319  -0.000575
    27  O   -0.000188  -0.021589   0.000935  -0.000598  -0.000018   0.000003
    28  O    0.006549  -0.138136   0.014520  -0.003209   0.000202   0.001409
              13         14         15         16         17         18
     1  C    0.720336  -0.016433  -0.044332   0.003627   0.318251  -0.191616
     2  C   -0.328691   0.005074   0.073155   0.001415  -0.214269   0.115333
     3  C    0.250897  -0.016623  -0.008331  -0.047588   0.001303  -0.025845
     4  O    0.042302   0.000871  -0.001437   0.000738   0.011413   0.294207
     5  H    0.010194  -0.004150   0.000698   0.001196   0.020841  -0.006491
     6  O   -0.050443   0.018617   0.078603  -0.046927  -0.008936   0.008404
     7  H    0.009026  -0.003251  -0.002870   0.000820   0.002030  -0.006543
     8  N   -0.001345   0.017370  -0.003137   0.005847   0.003499  -0.003546
     9  C   -1.635141  -0.188072   0.055106   0.254104  -0.005579  -0.002177
    10  H    0.106107   0.061665  -0.009751   0.017789  -0.146690   0.025307
    11  O   -0.060239   0.006641   0.015547   0.000730   0.292095   0.055379
    12  C    0.054908   0.220144   0.017024  -0.018870   0.007249  -0.012111
    13  H    2.547670   0.048543  -0.110455  -0.032452  -0.002391  -0.005140
    14  O    0.048543   8.315302  -0.134308  -0.036281  -0.004171   0.000865
    15  H   -0.110455  -0.134308   1.572870  -0.248386  -0.004212   0.001784
    16  H   -0.032452  -0.036281  -0.248386   1.357661  -0.000008  -0.000812
    17  H   -0.002391  -0.004171  -0.004212  -0.000008   0.613940  -0.010014
    18  H   -0.005140   0.000865   0.001784  -0.000812  -0.010014   0.602772
    19  H    0.003699   0.386149  -0.006445  -0.042119   0.000224  -0.000245
    20  C   -0.013319   0.005937  -0.004917   0.031065  -0.010990   0.010346
    21  C   -0.004288  -0.005605  -0.003675   0.006113   0.002765  -0.000891
    22  C   -0.000031   0.002018  -0.000049   0.001001  -0.000840   0.000263
    23  N   -0.000457   0.000490   0.000117  -0.000413  -0.000387   0.000979
    24  C    0.004926  -0.003488  -0.000729   0.001860   0.000995  -0.004147
    25  H    0.011980  -0.055955   0.002217  -0.006759   0.001615   0.001693
    26  H   -0.000480   0.002644   0.000067  -0.000044  -0.000071   0.000001
    27  O    0.000039   0.000079  -0.000000  -0.000003   0.000028  -0.000028
    28  O   -0.000099   0.000219   0.000149  -0.000068   0.000046   0.001419
              19         20         21         22         23         24
     1  C   -0.006837  -0.213075  -0.012255  -0.004848  -0.028823   0.087475
     2  C   -0.001310   0.555280  -0.021461   0.039679   0.054345  -0.149785
     3  C   -0.014790  -1.490490   0.009188  -0.172747  -0.058207   0.195748
     4  O    0.000190  -0.004952   0.003404   0.000806   0.000283  -0.008084
     5  H   -0.000280  -0.079250   0.023584  -0.018863  -0.002831   0.003884
     6  O   -0.009704   0.342155  -0.061361   0.014749   0.004168  -0.073885
     7  H   -0.000266   0.044945  -0.017406   0.007252  -0.002790   0.072671
     8  N   -0.000754   0.110059  -0.521059   0.015910   0.041536  -0.184447
     9  C    0.070713  -0.012242   0.101454   0.002735   0.009561  -0.121089
    10  H   -0.010461   0.179506  -0.048456   0.022830  -0.002061  -0.006570
    11  O    0.000169  -0.006114   0.000935  -0.000026   0.000451   0.000030
    12  C   -0.093025  -0.034684  -0.037736  -0.004408  -0.001326   0.005996
    13  H    0.003699  -0.013319  -0.004288  -0.000031  -0.000457   0.004926
    14  O    0.386149   0.005937  -0.005605   0.002018   0.000490  -0.003488
    15  H   -0.006445  -0.004917  -0.003675  -0.000049   0.000117  -0.000729
    16  H   -0.042119   0.031065   0.006113   0.001001  -0.000413   0.001860
    17  H    0.000224  -0.010990   0.002765  -0.000840  -0.000387   0.000995
    18  H   -0.000245   0.010346  -0.000891   0.000263   0.000979  -0.004147
    19  H    0.588010  -0.004161   0.001349   0.000583  -0.000165  -0.000096
    20  C   -0.004161   9.651043  -2.066595   0.006393  -0.009036  -1.120010
    21  C    0.001349  -2.066595  10.153828  -2.578167   0.500072   0.656820
    22  C    0.000583   0.006393  -2.578167   9.375954  -0.540333  -0.560446
    23  N   -0.000165  -0.009036   0.500072  -0.540333   8.155163  -0.156637
    24  C   -0.000096  -1.120010   0.656820  -0.560446  -0.156637   6.771957
    25  H   -0.005710  -1.252855  -0.049612  -0.326039   0.086079   0.073490
    26  H   -0.000736   0.577950  -0.947249   0.181475  -0.079078  -0.095230
    27  O   -0.000056   0.112726  -0.109068   0.058692  -0.118723   0.038267
    28  O   -0.000001  -0.028525   0.000790   0.022998  -0.201367   0.169620
              25         26         27         28
     1  C    0.072990  -0.001480   0.000434  -0.018571
     2  C   -0.114489   0.008467   0.000153   0.027046
     3  C    0.168197   0.034514  -0.002752   0.075688
     4  O   -0.001656   0.000025  -0.000030  -0.000245
     5  H   -0.009592  -0.000219   0.000685   0.019821
     6  O   -0.196259   0.001412   0.000374   0.006847
     7  H    0.013859  -0.001247  -0.000188   0.006549
     8  N    0.030875   0.050726  -0.021589  -0.138136
     9  C   -0.140078  -0.004867   0.000935   0.014520
    10  H   -0.007239   0.000249  -0.000598  -0.003209
    11  O    0.001441   0.000319  -0.000018   0.000202
    12  C    0.000527  -0.000575   0.000003   0.001409
    13  H    0.011980  -0.000480   0.000039  -0.000099
    14  O   -0.055955   0.002644   0.000079   0.000219
    15  H    0.002217   0.000067  -0.000000   0.000149
    16  H   -0.006759  -0.000044  -0.000003  -0.000068
    17  H    0.001615  -0.000071   0.000028   0.000046
    18  H    0.001693   0.000001  -0.000028   0.001419
    19  H   -0.005710  -0.000736  -0.000056  -0.000001
    20  C   -1.252855   0.577950   0.112726  -0.028525
    21  C   -0.049612  -0.947249  -0.109068   0.000790
    22  C   -0.326039   0.181475   0.058692   0.022998
    23  N    0.086079  -0.079078  -0.118723  -0.201367
    24  C    0.073490  -0.095230   0.038267   0.169620
    25  H    3.765954  -0.265602   0.006166   0.001701
    26  H   -0.265602   2.183543  -0.015636   0.002297
    27  O    0.006166  -0.015636   8.841151  -0.005790
    28  O    0.001701   0.002297  -0.005790   8.764607
 Mulliken charges:
               1
     1  C    0.564698
     2  C    1.292434
     3  C    0.815393
     4  O   -0.699952
     5  H   -0.445810
     6  O   -0.802284
     7  H   -0.447800
     8  N   -0.003610
     9  C    0.813968
    10  H   -0.448475
    11  O   -0.638811
    12  C    1.189678
    13  H   -0.565656
    14  O   -0.624292
    15  H   -0.234305
    16  H   -0.203238
    17  H    0.132265
    18  H    0.150854
    19  H    0.146075
    20  C    0.723811
    21  C    1.024582
    22  C    0.453461
    23  N   -0.650609
    24  C    0.400905
    25  H   -0.806939
    26  H   -0.631174
    27  O   -0.785253
    28  O   -0.719919
 Sum of Mulliken charges =  -1.00000
 Mulliken charges with hydrogens summed into heavy atoms:
               1
     1  C    0.116223
     2  C    0.846625
     3  C    0.367593
     4  O   -0.549097
     6  O   -0.802284
     8  N   -0.003610
     9  C    0.248313
    11  O   -0.506546
    12  C    0.752135
    14  O   -0.478217
    20  C   -0.083128
    21  C    0.393408
    22  C    0.453461
    23  N   -0.650609
    24  C    0.400905
    27  O   -0.785253
    28  O   -0.719919
 Electronic spatial extent (au):  <R**2>=           4113.7272
 Charge=             -1.0000 electrons
 Dipole moment (field-independent basis, Debye):
    X=            -18.3416    Y=              5.5038    Z=              1.2246  Tot=             19.1887
 Quadrupole moment (field-independent basis, Debye-Ang):
   XX=           -171.8629   YY=           -115.5078   ZZ=            -98.5729
   XY=             -2.9156   XZ=             -9.8137   YZ=             -6.8663
 Traceless Quadrupole moment (field-independent basis, Debye-Ang):
   XX=            -43.2150   YY=             13.1401   ZZ=             30.0750
   XY=             -2.9156   XZ=             -9.8137   YZ=             -6.8663
 Octapole moment (field-independent basis, Debye-Ang**2):
  XXX=           -347.4286  YYY=             83.6415  ZZZ=             21.8814  XYY=            -70.6612
  XXY=             -2.8806  XXZ=            -32.8997  XZZ=            -31.4163  YZZ=             -9.5726
  YYZ=              5.0665  XYZ=             -0.7314
 Hexadecapole moment (field-independent basis, Debye-Ang**3):
 XXXX=          -5052.7682 YYYY=          -1340.1965 ZZZZ=           -354.4934 XXXY=           -163.2067
 XXXZ=           -184.8738 YYYX=            -42.7300 YYYZ=            -39.9509 ZZZX=            -76.7027
 ZZZY=            -12.6073 XXYY=           -908.3006 XXZZ=           -658.3207 YYZZ=           -297.4286
 XXYZ=            -67.2072 YYXZ=             -6.6032 ZZXY=              1.3332
 N-N= 1.309178074503D+03 E-N=-4.767999738401D+03  KE= 9.049029755073D+02
 Calling FoFJK, ICntrl=      2127 FMM=F ISym2X=0 I1Cent= 0 IOpClX= 0 NMat=1 NMatS=1 NMatT=0.
 ***** Axes restored to original set *****
 -------------------------------------------------------------------
 Center     Atomic                   Forces (Hartrees/Bohr)
 Number     Number              X              Y              Z
 -------------------------------------------------------------------
      1        6           0.004298740   -0.000287952   -0.002651000
      2        6           0.003578651    0.003863156   -0.000710731
      3        6           0.018364336    0.004559609    0.007251226
      4        8          -0.006884291   -0.004252427    0.000198194
      5        1           0.000212660    0.000313507   -0.001606128
      6        8          -0.015514838    0.005887810   -0.001275336
      7        1          -0.000110130   -0.000949869    0.000742431
      8        7          -0.031216321   -0.000027226   -0.007451478
      9        6           0.007403944   -0.001230553   -0.003803766
     10        1           0.000278241   -0.000692022   -0.000636168
     11        8          -0.006325174   -0.000374022    0.003904053
     12        6           0.001494669    0.000265726    0.000970507
     13        1          -0.001798182   -0.000458243    0.000153812
     14        8          -0.003630163    0.001531857    0.000416495
     15        1          -0.001033541    0.000294599    0.000445796
     16        1           0.000227972    0.000130188   -0.000624305
     17        1           0.001233029   -0.000115189   -0.001147301
     18        1           0.001136086    0.000109639   -0.000156130
     19        1           0.000449238   -0.000584241   -0.000420231
     20        6          -0.004126909    0.000766419   -0.000130095
     21        6          -0.001569457    0.009930738    0.001508302
     22        6          -0.036050709   -0.059561283   -0.016933019
     23        7           0.001869289   -0.006293506    0.000256842
     24        6           0.066787979    0.049095468    0.021395181
     25        1           0.002132104   -0.000517103   -0.000075063
     26        1          -0.003520596    0.005148978   -0.000194781
     27        8           0.023110648    0.021411897    0.008358082
     28        8          -0.020797275   -0.027965957   -0.007785389
 -------------------------------------------------------------------
 Cartesian Forces:  Max     0.066787979 RMS     0.014228441

 GradGradGradGradGradGradGradGradGradGradGradGradGradGradGradGradGradGrad
 Berny optimization.
 FormGI is forming the generalized inverse of G from B-inverse, IUseBI=4.
 Internal  Forces:  Max     0.031245952 RMS     0.006892588
 Search for a local minimum.
 Step number   1 out of a maximum of  166
 All quantities printed in internal units (Hartrees-Bohrs-Radians)
 Mixed Optimization -- RFO/linear search
 Second derivative matrix not updated -- first step.
 ITU=  0
     Eigenvalues ---    0.00567   0.00660   0.00723   0.00943   0.01430
     Eigenvalues ---    0.01454   0.01488   0.01508   0.01613   0.01737
     Eigenvalues ---    0.01899   0.01921   0.02081   0.02258   0.02457
     Eigenvalues ---    0.03066   0.03920   0.04407   0.04921   0.05199
     Eigenvalues ---    0.05402   0.05538   0.05740   0.06031   0.06156
     Eigenvalues ---    0.06304   0.07176   0.07976   0.08196   0.09607
     Eigenvalues ---    0.11080   0.12736   0.13717   0.15964   0.15999
     Eigenvalues ---    0.16000   0.16000   0.16000   0.16000   0.16717
     Eigenvalues ---    0.18528   0.19898   0.22058   0.22445   0.24480
     Eigenvalues ---    0.24991   0.24997   0.25000   0.25000   0.26674
     Eigenvalues ---    0.28084   0.29081   0.31551   0.33372   0.33379
     Eigenvalues ---    0.33526   0.33593   0.33773   0.34232   0.34981
     Eigenvalues ---    0.35321   0.35360   0.37349   0.39162   0.42182
     Eigenvalues ---    0.42495   0.43166   0.43389   0.44644   0.45941
     Eigenvalues ---    0.48188   0.50078   0.53461   0.54077   0.55196
     Eigenvalues ---    0.55402   0.95625   0.95691
 RFO step:  Lambda=-2.03260967D-02 EMin= 5.66786243D-03
 Linear search not attempted -- first point.
 Iteration  1 RMS(Cart)=  0.08624749 RMS(Int)=  0.00216872
 Iteration  2 RMS(Cart)=  0.00315197 RMS(Int)=  0.00009043
 Iteration  3 RMS(Cart)=  0.00000572 RMS(Int)=  0.00009035
 Iteration  4 RMS(Cart)=  0.00000000 RMS(Int)=  0.00009035
 Variable       Old X    -DE/DX   Delta X   Delta X   Delta X     New X
                                 (Linear)    (Quad)   (Total)
    R1        2.89662  -0.00048   0.00000  -0.00333  -0.00337   2.89324
    R2        2.88199   0.00087   0.00000  -0.00056  -0.00060   2.88139
    R3        2.07715  -0.00065   0.00000  -0.00181  -0.00181   2.07534
    R4        2.67466   0.00572   0.00000   0.01266   0.01266   2.68731
    R5        2.89228  -0.00092   0.00000  -0.00077  -0.00074   2.89154
    R6        2.65691   0.00643   0.00000   0.01378   0.01378   2.67069
    R7        2.08023  -0.00112   0.00000  -0.00314  -0.00314   2.07709
    R8        2.66008   0.01198   0.00000   0.02801   0.02806   2.68814
    R9        2.06940   0.00018   0.00000   0.00050   0.00050   2.06990
   R10        2.78395  -0.00632   0.00000  -0.01690  -0.01690   2.76705
   R11        1.82662  -0.00103   0.00000  -0.00183  -0.00183   1.82479
   R12        2.69900  -0.00424   0.00000  -0.00985  -0.00985   2.68915
   R13        2.59119  -0.00876   0.00000  -0.01502  -0.01501   2.57618
   R14        2.62578   0.02447   0.00000   0.05004   0.05010   2.67589
   R15        2.84974   0.00221   0.00000   0.00659   0.00659   2.85633
   R16        2.08391   0.00155   0.00000   0.00437   0.00437   2.08827
   R17        1.81659  -0.00092   0.00000  -0.00161  -0.00161   1.81498
   R18        2.68298  -0.00170   0.00000  -0.00381  -0.00381   2.67917
   R19        2.08403   0.00114   0.00000   0.00323   0.00323   2.08726
   R20        2.08137   0.00061   0.00000   0.00172   0.00172   2.08309
   R21        1.81477  -0.00063   0.00000  -0.00109  -0.00109   1.81367
   R22        2.55587  -0.00540   0.00000  -0.00847  -0.00852   2.54735
   R23        2.05706  -0.00202   0.00000  -0.00546  -0.00546   2.05160
   R24        2.73746   0.01615   0.00000   0.03943   0.03936   2.77682
   R25        2.05157   0.00461   0.00000   0.01233   0.01233   2.06390
   R26        2.64929  -0.01851   0.00000  -0.04090  -0.04090   2.60839
   R27        2.30444   0.02941   0.00000   0.03012   0.03012   2.33456
   R28        2.59852  -0.02229   0.00000  -0.04405  -0.04399   2.55453
   R29        2.30416   0.03125   0.00000   0.03197   0.03197   2.33613
    A1        1.76645   0.00077   0.00000  -0.00525  -0.00533   1.76112
    A2        1.93613   0.00025   0.00000   0.00195   0.00193   1.93806
    A3        1.97419  -0.00058   0.00000   0.00119   0.00125   1.97545
    A4        1.91946   0.00022   0.00000   0.00406   0.00411   1.92357
    A5        1.91317  -0.00046   0.00000   0.00099   0.00098   1.91415
    A6        1.94623  -0.00013   0.00000  -0.00286  -0.00287   1.94336
    A7        1.77086   0.00164   0.00000   0.00330   0.00329   1.77414
    A8        1.92141  -0.00374   0.00000  -0.01720  -0.01722   1.90418
    A9        1.98711   0.00145   0.00000   0.00697   0.00697   1.99408
   A10        1.88809   0.00311   0.00000   0.02215   0.02227   1.91037
   A11        1.94166  -0.00272   0.00000  -0.01494  -0.01495   1.92671
   A12        1.94542   0.00042   0.00000   0.00072   0.00075   1.94617
   A13        1.86725  -0.00428   0.00000  -0.01518  -0.01528   1.85197
   A14        1.92332   0.00046   0.00000  -0.01410  -0.01432   1.90900
   A15        1.96043  -0.00169   0.00000  -0.00624  -0.00636   1.95407
   A16        1.93679  -0.00009   0.00000  -0.00236  -0.00262   1.93417
   A17        1.90658   0.00731   0.00000   0.05092   0.05093   1.95752
   A18        1.87033  -0.00156   0.00000  -0.01211  -0.01236   1.85797
   A19        1.86364  -0.00075   0.00000  -0.00418  -0.00418   1.85946
   A20        1.93087   0.00114   0.00000   0.00148   0.00151   1.93238
   A21        2.13626   0.00298   0.00000   0.00848   0.00842   2.14468
   A22        2.02346   0.00196   0.00000   0.00469   0.00462   2.02807
   A23        2.12322  -0.00495   0.00000  -0.01349  -0.01344   2.10979
   A24        1.82888  -0.00030   0.00000  -0.00252  -0.00267   1.82621
   A25        2.02134   0.00085   0.00000   0.00737   0.00729   2.02863
   A26        1.88956  -0.00004   0.00000  -0.00333  -0.00333   1.88623
   A27        1.92650   0.00091   0.00000   0.01529   0.01531   1.94181
   A28        1.91066   0.00035   0.00000   0.00127   0.00130   1.91196
   A29        1.88469  -0.00172   0.00000  -0.01777  -0.01773   1.86696
   A30        1.90280  -0.00241   0.00000  -0.01335  -0.01335   1.88946
   A31        1.91013   0.00462   0.00000   0.02018   0.02018   1.93031
   A32        1.87901  -0.00075   0.00000  -0.00285  -0.00283   1.87618
   A33        1.89460  -0.00145   0.00000  -0.00488  -0.00492   1.88967
   A34        1.94086  -0.00202   0.00000  -0.01090  -0.01090   1.92997
   A35        1.94080  -0.00088   0.00000  -0.00002  -0.00006   1.94074
   A36        1.89684   0.00045   0.00000  -0.00167  -0.00170   1.89514
   A37        1.90209  -0.00000   0.00000  -0.00002  -0.00002   1.90207
   A38        2.13947  -0.00975   0.00000  -0.03363  -0.03368   2.10579
   A39        2.00663   0.00559   0.00000   0.02074   0.02076   2.02740
   A40        2.13707   0.00417   0.00000   0.01286   0.01288   2.14995
   A41        2.09741  -0.00046   0.00000   0.00085   0.00073   2.09814
   A42        2.11673  -0.00409   0.00000  -0.02437  -0.02432   2.09241
   A43        2.06901   0.00455   0.00000   0.02352   0.02357   2.09258
   A44        1.97204   0.01779   0.00000   0.06263   0.06256   2.03460
   A45        2.21422  -0.02508   0.00000  -0.09117  -0.09114   2.12308
   A46        2.09692   0.00729   0.00000   0.02854   0.02858   2.12550
   A47        2.23715  -0.02322   0.00000  -0.09206  -0.09199   2.14516
   A48        1.99669   0.02059   0.00000   0.07578   0.07589   2.07258
   A49        2.13681  -0.03021   0.00000  -0.11159  -0.11167   2.02514
   A50        2.14968   0.00962   0.00000   0.03576   0.03567   2.18535
    D1        0.63935   0.00224   0.00000   0.02344   0.02349   0.66284
    D2       -1.35734  -0.00063   0.00000   0.00339   0.00342  -1.35391
    D3        2.72682   0.00072   0.00000   0.01101   0.01102   2.73784
    D4       -1.39676   0.00148   0.00000   0.02075   0.02079  -1.37597
    D5        2.88974  -0.00140   0.00000   0.00069   0.00073   2.89046
    D6        0.69070  -0.00005   0.00000   0.00832   0.00832   0.69903
    D7        2.68444   0.00190   0.00000   0.02207   0.02210   2.70654
    D8        0.68775  -0.00098   0.00000   0.00202   0.00203   0.68979
    D9       -1.51128   0.00037   0.00000   0.00964   0.00963  -1.50165
   D10       -0.62381  -0.00099   0.00000  -0.02089  -0.02081  -0.64462
   D11       -2.75061  -0.00245   0.00000  -0.04293  -0.04288  -2.79349
   D12        1.41396  -0.00076   0.00000  -0.02224  -0.02219   1.39177
   D13        1.42450  -0.00022   0.00000  -0.01969  -0.01966   1.40484
   D14       -0.70230  -0.00167   0.00000  -0.04173  -0.04173  -0.74403
   D15       -2.82092   0.00002   0.00000  -0.02104  -0.02103  -2.84195
   D16       -2.71299  -0.00054   0.00000  -0.01993  -0.01989  -2.73288
   D17        1.44340  -0.00199   0.00000  -0.04197  -0.04196   1.40144
   D18       -0.67522  -0.00030   0.00000  -0.02128  -0.02126  -0.69648
   D19        1.59202  -0.00048   0.00000  -0.00599  -0.00596   1.58605
   D20       -2.73434  -0.00013   0.00000  -0.01114  -0.01118  -2.74552
   D21       -0.60457  -0.00025   0.00000  -0.00724  -0.00723  -0.61180
   D22       -0.45254  -0.00100   0.00000  -0.01391  -0.01384  -0.46638
   D23       -2.55979   0.00146   0.00000   0.00629   0.00621  -2.55358
   D24        1.63942   0.00422   0.00000   0.03523   0.03512   1.67454
   D25        1.56880  -0.00323   0.00000  -0.02315  -0.02299   1.54581
   D26       -0.53845  -0.00078   0.00000  -0.00295  -0.00294  -0.54139
   D27       -2.62242   0.00198   0.00000   0.02600   0.02597  -2.59645
   D28       -2.57203  -0.00236   0.00000  -0.01690  -0.01680  -2.58883
   D29        1.60391   0.00010   0.00000   0.00330   0.00325   1.60716
   D30       -0.48007   0.00286   0.00000   0.03224   0.03216  -0.44791
   D31       -0.62942   0.00060   0.00000  -0.00160  -0.00171  -0.63113
   D32       -2.55013  -0.00109   0.00000  -0.00843  -0.00829  -2.55842
   D33        1.59300  -0.00006   0.00000  -0.00519  -0.00521   1.58779
   D34        0.06399   0.00052   0.00000   0.00039   0.00031   0.06431
   D35        2.16265  -0.00164   0.00000  -0.02757  -0.02769   2.13497
   D36       -2.06219   0.00092   0.00000  -0.01231  -0.01224  -2.07443
   D37       -1.67128  -0.00001   0.00000  -0.01798  -0.01798  -1.68927
   D38        1.44671  -0.00059   0.00000  -0.03283  -0.03289   1.41382
   D39        0.39765  -0.00160   0.00000  -0.00731  -0.00720   0.39046
   D40       -2.76754  -0.00218   0.00000  -0.02215  -0.02210  -2.78964
   D41        2.49724   0.00148   0.00000   0.01139   0.01137   2.50861
   D42       -0.66795   0.00091   0.00000  -0.00346  -0.00354  -0.67149
   D43        0.35898  -0.00014   0.00000   0.01244   0.01243   0.37141
   D44        2.54668   0.00124   0.00000   0.02877   0.02877   2.57545
   D45       -1.66422  -0.00011   0.00000   0.01702   0.01707  -1.64715
   D46        3.12899  -0.00069   0.00000  -0.01404  -0.01384   3.11516
   D47       -0.01874  -0.00079   0.00000  -0.01803  -0.01794  -0.03668
   D48        0.01233  -0.00018   0.00000   0.00139   0.00149   0.01382
   D49       -3.13541  -0.00028   0.00000  -0.00260  -0.00261  -3.13801
   D50        3.13733   0.00028   0.00000   0.01457   0.01454  -3.13132
   D51       -0.01036   0.00007   0.00000   0.00465   0.00491  -0.00545
   D52       -0.02767  -0.00017   0.00000   0.00016   0.00027  -0.02740
   D53        3.10783  -0.00039   0.00000  -0.00976  -0.00937   3.09847
   D54        0.89654  -0.00027   0.00000  -0.01320  -0.01316   0.88338
   D55       -1.21514  -0.00008   0.00000  -0.01007  -0.01003  -1.22517
   D56        3.01767   0.00058   0.00000  -0.00394  -0.00390   3.01376
   D57       -1.17737  -0.00116   0.00000  -0.02656  -0.02663  -1.20401
   D58        2.99413  -0.00096   0.00000  -0.02343  -0.02350   2.97063
   D59        0.94375  -0.00031   0.00000  -0.01730  -0.01737   0.92638
   D60        3.01776  -0.00106   0.00000  -0.02617  -0.02613   2.99163
   D61        0.90608  -0.00086   0.00000  -0.02303  -0.02300   0.88308
   D62       -1.14430  -0.00021   0.00000  -0.01690  -0.01687  -1.16117
   D63        3.05106  -0.00037   0.00000  -0.00794  -0.00789   3.04317
   D64       -1.15840   0.00041   0.00000  -0.00533  -0.00537  -1.16377
   D65        0.95804  -0.00102   0.00000  -0.01499  -0.01500   0.94304
   D66        0.00444  -0.00018   0.00000  -0.00258  -0.00264   0.00181
   D67        3.13665  -0.00013   0.00000  -0.00400  -0.00408   3.13258
   D68       -3.13055  -0.00008   0.00000   0.00170   0.00175  -3.12880
   D69        0.00166  -0.00002   0.00000   0.00028   0.00031   0.00197
   D70       -0.00353   0.00009   0.00000  -0.00020  -0.00038  -0.00391
   D71        3.14017  -0.00006   0.00000  -0.00347  -0.00345   3.13672
   D72       -3.13599   0.00008   0.00000   0.00144   0.00131  -3.13468
   D73        0.00771  -0.00007   0.00000  -0.00183  -0.00175   0.00595
   D74       -0.01524   0.00025   0.00000   0.00480   0.00485  -0.01039
   D75        3.12440   0.00035   0.00000   0.00766   0.00777   3.13217
   D76        0.03048  -0.00026   0.00000  -0.00486  -0.00485   0.02564
   D77       -3.10497   0.00011   0.00000   0.00572   0.00631  -3.09867
         Item               Value     Threshold  Converged?
 Maximum Force            0.031246     0.000450     NO 
 RMS     Force            0.006893     0.000300     NO 
 Maximum Displacement     0.486010     0.001800     NO 
 RMS     Displacement     0.086356     0.001200     NO 
 Predicted change in Energy=-1.101958D-02
 GradGradGradGradGradGradGradGradGradGradGradGradGradGradGradGradGradGrad

                          Input orientation:                          
 ---------------------------------------------------------------------
 Center     Atomic      Atomic             Coordinates (Angstroms)
 Number     Number       Type             X           Y           Z
 ---------------------------------------------------------------------
      1          6           0       -2.020455   -0.140649    0.814848
      2          6           0       -1.135615   -1.325068    0.416999
      3          6           0       -0.378750   -0.755436   -0.784667
      4          8           0       -1.956988   -2.393898   -0.007592
      5          1           0       -0.430557   -1.644124    1.197525
      6          8           0       -1.221225    0.245272   -1.343537
      7          1           0       -0.191507   -1.555634   -1.508820
      8          7           0        0.932032   -0.224782   -0.404779
      9          6           0       -2.394276    0.413314   -0.555662
     10          1           0       -1.448672    0.605524    1.382635
     11          8           0       -3.197633   -0.530238    1.511082
     12          6           0       -2.876031    1.845608   -0.588617
     13          1           0       -3.208481   -0.210367   -0.967083
     14          8           0       -1.972228    2.691869    0.102047
     15          1           0       -3.872730    1.871754   -0.113333
     16          1           0       -2.981351    2.150619   -1.642656
     17          1           0       -3.004139   -0.532019    2.451834
     18          1           0       -2.745012   -2.373338    0.550124
     19          1           0       -2.251937    3.603346   -0.007962
     20          6           0        1.150633    1.097019   -0.152742
     21          6           0        2.369623    1.532499    0.223451
     22          6           0        3.482720    0.583673    0.364747
     23          7           0        3.202034   -0.741445    0.099205
     24          6           0        1.973226   -1.173797   -0.261981
     25          1           0        0.298180    1.756545   -0.283154
     26          1           0        2.532877    2.595451    0.414024
     27          8           0        4.611560    0.954566    0.702914
     28          8           0        1.664410   -2.353059   -0.467486
 ---------------------------------------------------------------------
                    Distance matrix (angstroms):
                    1          2          3          4          5
     1  C    0.000000
     2  C    1.531037   0.000000
     3  C    2.373101   1.530139   0.000000
     4  O    2.399493   1.413269   2.404004   0.000000
     5  H    2.221409   1.099148   2.172909   2.084336   0.000000
     6  O    2.333738   2.360674   1.422504   3.048167   3.263736
     7  H    3.278211   2.157146   1.095342   2.464406   2.718323
     8  N    3.195583   2.482158   1.464260   3.634454   2.537431
     9  C    1.524767   2.356325   2.341104   2.893448   3.341094
    10  H    1.098222   2.181202   2.773832   3.344794   2.476236
    11  O    1.422065   2.465905   3.642427   2.705328   2.999295
    12  C    2.578166   3.754130   3.611133   4.376716   4.620485
    13  H    2.142789   2.730387   2.887516   2.693449   3.802374
    14  O    2.921227   4.115203   3.899917   5.086972   4.730504
    15  H    2.888288   4.241782   4.422749   4.677290   5.091985
    16  H    3.494646   4.441769   3.994350   4.937144   5.382681
    17  H    1.949494   2.874172   4.173430   3.257590   3.071384
    18  H    2.362195   1.925292   3.162035   0.965635   2.511490
    19  H    3.840325   5.071097   4.807398   6.004492   5.683887
    20  C    3.538906   3.379059   2.483935   4.675989   3.440530
    21  C    4.735183   4.526571   3.715441   5.847182   4.345200
    22  C    5.568858   4.997504   4.245624   6.212487   4.579338
    23  N    5.305422   4.388258   3.688285   5.418258   3.900878
    24  C    4.263385   3.185717   2.445408   4.123098   2.851234
    25  H    3.190771   3.470204   2.649490   4.731584   3.779949
    26  H    5.327263   5.369200   4.598138   6.725343   5.231616
    27  O    6.722771   6.189386   5.480894   7.406946   5.693924
    28  O    4.485240   3.111145   2.612950   3.650712   2.768345
                    6          7          8          9         10
     6  O    0.000000
     7  H    2.081081   0.000000
     8  N    2.395565   2.062138   0.000000
     9  C    1.423038   3.104426   3.390318   0.000000
    10  H    2.759263   3.822510   3.090632   2.165204   0.000000
    11  O    3.557591   4.382697   4.562669   2.409793   2.089334
    12  C    2.422677   4.429660   4.338393   1.511502   2.731482
    13  H    2.073285   3.347439   4.178545   1.105068   3.046929
    14  O    2.939312   4.879257   4.147102   2.408842   2.503368
    15  H    3.345045   5.219748   5.250346   2.123329   3.117261
    16  H    2.611104   4.640846   4.742303   2.131769   3.726769
    17  H    4.264716   4.964420   4.873199   3.211015   2.203784
    18  H    3.572814   3.380573   4.364491   3.018478   3.353683
    19  H    3.758029   5.754391   4.994966   3.239836   3.400872
    20  C    2.787324   3.267546   1.363256   3.632654   3.058650
    21  C    4.123905   4.369979   2.355712   4.955232   4.096629
    22  C    5.015959   4.646164   2.784202   5.951073   5.035396
    23  N    4.756084   3.842496   2.381985   5.751609   5.009051
    24  C    3.658967   2.527148   1.416018   4.656205   4.192867
    25  H    2.391014   3.565470   2.083798   3.021233   2.674172
    26  H    4.765043   5.324575   3.344676   5.475294   4.555299
    27  O    6.221932   5.853403   4.019549   7.138537   6.108213
    28  O    3.980663   2.272596   2.251638   4.912589   4.676264
                   11         12         13         14         15
    11  O    0.000000
    12  C    3.186975   0.000000
    13  H    2.498747   2.116789   0.000000
    14  O    3.724107   1.417757   3.330816   0.000000
    15  H    2.977255   1.104530   2.346347   2.081078   0.000000
    16  H    4.144856   1.102326   2.466220   2.086929   1.791968
    17  H    0.960446   3.861847   3.440089   4.120654   3.621140
    18  H    2.127281   4.371888   2.682380   5.143374   4.442154
    19  H    4.504259   1.953534   4.047134   0.959754   2.374127
    20  C    4.931905   4.118785   4.623233   3.515782   5.082907
    21  C    6.075131   5.317365   5.964075   4.495614   6.260630
    22  C    6.868915   6.552488   6.868511   5.854055   7.482671
    23  N    6.556961   6.641447   6.520254   6.209722   7.544950
    24  C    5.504153   5.721782   5.317467   5.535567   6.593382
    25  H    4.546357   3.190118   4.078378   2.485551   4.175955
    26  H    6.619079   5.551921   6.537832   4.516923   6.467893
    27  O    7.990073   7.650230   8.080779   6.835608   8.572670
    28  O    5.556696   6.185393   5.346568   6.245062   6.973836
                   16         17         18         19         20
    16  H    0.000000
    17  H    4.895090   0.000000
    18  H    5.032924   2.659719   0.000000
    19  H    2.305360   4.870076   6.022900   0.000000
    20  C    4.516991   5.167176   5.264356   4.228489   0.000000
    21  C    5.700645   6.172944   6.443739   5.069593   1.347999
    22  C    6.947604   6.905074   6.896588   6.491813   2.443348
    23  N    7.045024   6.640430   6.183345   6.973843   2.766166
[...]
   A39        2.03506  -0.00002   0.00014  -0.00013   0.00001   2.03506
   A40        2.13267  -0.00006  -0.00042  -0.00004  -0.00046   2.13221
   A41        2.07938  -0.00001  -0.00024  -0.00013  -0.00037   2.07901
   A42        2.12135   0.00000   0.00039   0.00002   0.00040   2.12175
   A43        2.08245   0.00001  -0.00014   0.00011  -0.00003   2.08242
   A44        2.06388   0.00002   0.00014   0.00010   0.00023   2.06411
   A45        2.08098  -0.00002  -0.00027  -0.00006  -0.00033   2.08065
   A46        2.13833  -0.00000   0.00013  -0.00004   0.00009   2.13843
   A47        2.14557   0.00005   0.00023   0.00005   0.00028   2.14584
   A48        2.06911  -0.00010  -0.00039  -0.00012  -0.00051   2.06860
   A49        2.02320   0.00041   0.00041   0.00029   0.00070   2.02390
   A50        2.19083  -0.00031  -0.00003  -0.00017  -0.00020   2.19063
    D1        0.56961  -0.00005  -0.00610  -0.00243  -0.00853   0.56108
    D2       -1.46052  -0.00004  -0.00646  -0.00262  -0.00908  -1.46960
    D3        2.66012  -0.00002  -0.00542  -0.00210  -0.00752   2.65260
    D4       -1.46184  -0.00002  -0.00674  -0.00177  -0.00851  -1.47035
    D5        2.79123  -0.00002  -0.00710  -0.00197  -0.00907   2.78216
    D6        0.62868   0.00001  -0.00606  -0.00145  -0.00751   0.62117
    D7        2.63470  -0.00003  -0.00551  -0.00185  -0.00736   2.62733
    D8        0.60457  -0.00002  -0.00587  -0.00205  -0.00792   0.59666
    D9       -1.55797   0.00000  -0.00483  -0.00153  -0.00636  -1.56433
   D10       -0.63612   0.00005   0.00589   0.00016   0.00605  -0.63008
   D11       -2.69478   0.00011   0.00754   0.00135   0.00890  -2.68588
   D12        1.44669   0.00007   0.00732   0.00069   0.00801   1.45470
   D13        1.41885   0.00002   0.00654   0.00022   0.00676   1.42561
   D14       -0.63980   0.00008   0.00819   0.00141   0.00961  -0.63020
   D15       -2.78152   0.00004   0.00797   0.00075   0.00872  -2.77280
   D16       -2.74202  -0.00002   0.00556  -0.00035   0.00521  -2.73681
   D17        1.48251   0.00003   0.00721   0.00085   0.00806   1.49057
   D18       -0.65921  -0.00001   0.00699   0.00019   0.00717  -0.65203
   D19        1.54921   0.00000   0.00757  -0.00343   0.00413   1.55334
   D20       -2.75286  -0.00002   0.00903  -0.00267   0.00636  -2.74650
   D21       -0.64339  -0.00003   0.00841  -0.00366   0.00475  -0.63864
   D22       -0.31476   0.00004   0.00439   0.00395   0.00834  -0.30642
   D23       -2.37636  -0.00007   0.00550   0.00423   0.00973  -2.36663
   D24        1.81371   0.00011   0.00559   0.00403   0.00962   1.82334
   D25        1.71774   0.00001   0.00500   0.00434   0.00934   1.72707
   D26       -0.34386  -0.00010   0.00611   0.00461   0.01072  -0.33314
   D27       -2.43697   0.00008   0.00620   0.00442   0.01062  -2.42636
   D28       -2.43846   0.00002   0.00447   0.00399   0.00846  -2.43000
   D29        1.78313  -0.00009   0.00558   0.00427   0.00985   1.79297
   D30       -0.30998   0.00009   0.00567   0.00407   0.00974  -0.30024
   D31       -0.51451   0.00009   0.00521   0.00231   0.00752  -0.50699
   D32       -2.47989  -0.00006   0.00356   0.00164   0.00520  -2.47469
   D33        1.67641   0.00000   0.00384   0.00174   0.00558   1.68199
   D34       -0.08918  -0.00002  -0.00080  -0.00412  -0.00492  -0.09410
   D35        1.97957   0.00005   0.00002  -0.00415  -0.00413   1.97544
   D36       -2.27899  -0.00035  -0.00288  -0.00483  -0.00772  -2.28671
   D37       -0.99669   0.00014   0.02058   0.00678   0.02737  -0.96933
   D38        2.19724   0.00016   0.03472   0.01081   0.04553   2.24278
   D39        1.08592   0.00009   0.02160   0.00692   0.02852   1.11443
   D40       -2.00333   0.00011   0.03573   0.01095   0.04668  -1.95665
   D41       -3.13134   0.00005   0.01901   0.00635   0.02536  -3.10598
   D42        0.06260   0.00008   0.03315   0.01038   0.04353   0.10612
   D43        0.46132   0.00001  -0.00320   0.00250  -0.00070   0.46062
   D44        2.60054  -0.00012  -0.00547   0.00130  -0.00417   2.59637
   D45       -1.58493  -0.00005  -0.00454   0.00183  -0.00271  -1.58764
   D46       -3.11201  -0.00001   0.00664   0.00279   0.00943  -3.10258
   D47        0.01732  -0.00005   0.00640   0.00309   0.00949   0.02681
   D48       -0.02324  -0.00001  -0.00756  -0.00125  -0.00882  -0.03205
   D49        3.10609  -0.00006  -0.00780  -0.00095  -0.00875   3.09734
   D50        3.11960  -0.00003  -0.00319  -0.00243  -0.00562   3.11398
   D51       -0.03203   0.00005  -0.00396  -0.00218  -0.00614  -0.03817
   D52        0.02973   0.00001   0.01084   0.00157   0.01241   0.04214
   D53       -3.12190   0.00009   0.01006   0.00182   0.01189  -3.11001
   D54        1.06002  -0.00001  -0.00147  -0.00183  -0.00329   1.05673
   D55       -1.01474   0.00002  -0.00126  -0.00181  -0.00308  -1.01782
   D56       -3.07577  -0.00002  -0.00183  -0.00218  -0.00401  -3.07978
   D57       -0.96931  -0.00004  -0.00109  -0.00074  -0.00184  -0.97115
   D58       -3.04407  -0.00001  -0.00089  -0.00073  -0.00162  -3.04569
   D59        1.17808  -0.00005  -0.00146  -0.00110  -0.00255   1.17553
   D60       -3.09041  -0.00002  -0.00169  -0.00116  -0.00286  -3.09327
   D61        1.11801   0.00001  -0.00149  -0.00115  -0.00264   1.11537
   D62       -0.94302  -0.00003  -0.00205  -0.00152  -0.00357  -0.94659
   D63        0.86499  -0.00006  -0.00430  -0.00311  -0.00741   0.85758
   D64        2.95865  -0.00006  -0.00427  -0.00292  -0.00718   2.95146
   D65       -1.26193   0.00000  -0.00380  -0.00276  -0.00656  -1.26849
   D66        0.00076  -0.00000  -0.00042   0.00005  -0.00037   0.00039
   D67        3.13945  -0.00001   0.00103   0.00076   0.00179   3.14124
   D68       -3.12788   0.00004  -0.00017  -0.00027  -0.00044  -3.12832
   D69        0.01081   0.00004   0.00128   0.00044   0.00172   0.01253
   D70        0.01581   0.00002   0.00536   0.00087   0.00623   0.02203
   D71       -3.12673  -0.00001   0.00486   0.00070   0.00556  -3.12117
   D72       -3.12295   0.00002   0.00394   0.00017   0.00411  -3.11883
   D73        0.01770  -0.00000   0.00344   0.00001   0.00345   0.02115
   D74       -0.00899  -0.00001  -0.00192  -0.00053  -0.00245  -0.01144
   D75        3.13358   0.00001  -0.00140  -0.00036  -0.00176   3.13182
   D76       -0.01310  -0.00000  -0.00594  -0.00066  -0.00659  -0.01969
   D77        3.13958  -0.00009  -0.00508  -0.00093  -0.00602   3.13356
         Item               Value     Threshold  Converged?
 Maximum Force            0.000538     0.000450     NO 
 RMS     Force            0.000119     0.000300     YES
 Maximum Displacement     0.097470     0.001800     NO 
 RMS     Displacement     0.022391     0.001200     NO 
 Predicted change in Energy=-2.168849D-05
 GradGradGradGradGradGradGradGradGradGradGradGradGradGradGradGradGradGrad

                          Input orientation:                          
 ---------------------------------------------------------------------
 Center     Atomic      Atomic             Coordinates (Angstroms)
 Number     Number       Type             X           Y           Z
 ---------------------------------------------------------------------
      1          6           0       -2.212313   -0.027306    0.835211
      2          6           0       -1.197491   -1.166701    0.700242
      3          6           0       -0.378909   -0.776577   -0.543518
      4          8           0       -1.882303   -2.379258    0.445149
      5          1           0       -0.541003   -1.271240    1.578337
      6          8           0       -1.186069    0.213807   -1.239210
      7          1           0       -0.231974   -1.648249   -1.190379
      8          7           0        0.922963   -0.260743   -0.292933
      9          6           0       -2.443654    0.366984   -0.617876
     10          1           0       -1.781891    0.825490    1.377880
     11          8           0       -3.440422   -0.431418    1.434478
     12          6           0       -2.883741    1.804799   -0.817951
     13          1           0       -3.198996   -0.315146   -1.051760
     14          8           0       -1.919988    2.717115   -0.335462
     15          1           0       -3.814625    1.982047   -0.260960
     16          1           0       -3.085432    1.972187   -1.890280
     17          1           0       -3.357333   -0.329758    2.386357
     18          1           0       -2.748355   -2.289591    0.864989
     19          1           0       -1.073467    2.431820   -0.706883
     20          6           0        1.105794    0.821944    0.527635
     21          6           0        2.329809    1.342511    0.733803
     22          6           0        3.491564    0.732534    0.061156
     23          7           0        3.273895   -0.327075   -0.770028
     24          6           0        2.059460   -0.841554   -0.989656
     25          1           0        0.211086    1.240973    0.990036
     26          1           0        2.481254    2.202181    1.383886
     27          8           0        4.625015    1.197957    0.267403
     28          8           0        1.806834   -1.794528   -1.738304
 ---------------------------------------------------------------------
                    Distance matrix (angstroms):
                    1          2          3          4          5
     1  C    0.000000
     2  C    1.531764   0.000000
     3  C    2.413228   1.539224   0.000000
     4  O    2.406810   1.415745   2.409615   0.000000
     5  H    2.211986   1.101343   2.184773   2.076272   0.000000
     6  O    2.326915   2.380631   1.454770   3.169510   3.249622
     7  H    3.263773   2.176824   1.095369   2.435757   2.811303
     8  N    3.340234   2.510674   1.422585   3.591990   2.581850
     9  C    1.523301   2.375404   2.361448   2.997829   3.335747
    10  H    1.098642   2.183927   2.868231   3.339233   2.444639
    11  O    1.425019   2.471939   3.661211   2.683391   3.022023
    12  C    2.557414   3.738737   3.607353   4.483819   4.548915
    13  H    2.148732   2.792968   2.902433   2.869664   3.859591
    14  O    2.997962   4.083957   3.824146   5.155947   4.633702
    15  H    2.794010   4.205699   4.415200   4.822182   4.968247
    16  H    3.491219   4.486395   4.085920   5.082994   5.387508
    17  H    1.951563   2.865026   4.201764   3.185036   3.077498
    18  H    2.325115   1.921770   3.144420   0.966619   2.533437
    19  H    3.118064   3.865842   3.286778   5.012770   4.383879
    20  C    3.438846   3.047888   2.430428   4.379866   2.863099
    21  C    4.745267   4.328870   3.668683   5.628212   3.973222
    22  C    5.806095   5.099290   4.198048   6.221667   4.751689
    23  N    5.724084   4.781209   3.687321   5.681064   4.578178
    24  C    4.716056   3.683640   2.479698   4.467739   3.679895
    25  H    2.739593   2.804454   2.601997   4.217256   2.687554
    26  H    5.225059   5.034869   4.557238   6.396206   4.608308
    27  O    6.969414   6.299249   5.440187   7.427870   5.873944
    28  O    5.089164   3.920031   2.690949   4.326558   4.097105
                    6          7          8          9         10
     6  O    0.000000
     7  H    2.092830   0.000000
     8  N    2.359800   2.016052   0.000000
     9  C    1.411042   3.046384   3.440021   0.000000
    10  H    2.752875   3.888134   3.359725   2.152023   0.000000
    11  O    3.556266   4.320265   4.695978   2.417261   2.081765
    12  C    2.364487   4.369681   4.362695   1.516911   2.644767
    13  H    2.089689   3.255702   4.191578   1.106389   3.035191
    14  O    2.760787   4.757802   4.117259   2.424273   2.555945
    15  H    3.315562   5.184425   5.241743   2.148343   2.855771
    16  H    2.668965   4.662579   4.858470   2.146525   3.700677
    17  H    4.260819   4.929435   5.050177   3.216469   2.198553
    18  H    3.624278   3.311802   4.351504   3.057633   3.301642
    19  H    2.283776   4.193906   3.377422   2.479695   2.725509
    20  C    2.957061   3.292880   1.370755   3.757362   3.010258
    21  C    4.186664   4.382905   2.367240   5.056149   4.193832
    22  C    4.882651   4.593387   2.776632   5.985109   5.436151
    23  N    4.517075   3.770056   2.399771   5.761531   5.612744
    24  C    3.421918   2.437564   1.454094   4.677267   4.810430
    25  H    2.824296   3.646659   2.099507   3.224420   2.072440
    26  H    4.927832   5.367893   3.362438   5.624031   4.479925
    27  O    6.083349   5.815184   4.018329   7.172191   6.513090
    28  O    3.638677   2.116213   2.285349   4.898381   5.427157
                   11         12         13         14         15
    11  O    0.000000
    12  C    3.222421   0.000000
    13  H    2.500637   2.155972   0.000000
    14  O    3.918886   1.412068   3.368018   0.000000
    15  H    2.973104   1.099183   2.506284   2.033599   0.000000
    16  H    4.117931   1.103897   2.438833   2.081018   1.785079
    17  H    0.960891   3.879202   3.441791   4.331014   3.544268
    18  H    2.063027   4.428842   2.788447   5.214823   4.544401
    19  H    4.287894   1.919006   3.490363   0.967442   2.813378
    20  C    4.802225   4.323539   4.724264   3.673141   5.116468
    21  C    6.077281   5.459190   6.041833   4.592782   6.257207
    22  C    7.161929   6.524346   6.862930   5.777609   7.419262
    23  N    7.067729   6.516415   6.479030   6.035923   7.472504
    24  C    6.024395   5.609625   5.285103   5.378485   6.558094
    25  H    4.040784   3.628315   4.268383   2.911600   4.280249
    26  H    6.481100   5.812846   6.673421   4.753131   6.510920
    27  O    8.310728   7.611023   8.077426   6.745988   8.492438
    28  O    6.281585   5.983618   5.264811   6.017648   6.931512
                   16         17         18         19         20
    16  H    0.000000
    17  H    4.864412   0.000000
    18  H    5.086048   2.554674   0.000000
    19  H    2.379012   4.733971   5.250500   0.000000
    20  C    4.973505   4.969986   4.964869   2.977400   0.000000
    21  C    6.050384   6.153942   6.244768   3.852851   1.345997
    22  C    6.971493   7.310431   6.979683   4.931223   2.432591
    23  N    6.854386   7.344110   6.541578   5.149276   2.775759
    24  C    5.932805   6.403205   5.352719   4.539842   2.445174
    25  H    4.438235   4.141318   4.608558   2.438796   1.090826
    26  H    6.462280   6.442419   6.913326   4.130386   2.128406
    27  O    8.044006   8.398914   8.178428   5.911375   3.548806
    28  O    6.176204   6.769563   5.269911   5.217468   3.531553
                   21         22         23         24         25
    21  C    0.000000
    22  C    1.474517   0.000000
    23  N    2.437277   1.364191   0.000000
    24  C    2.795270   2.373369   1.337078   0.000000
    25  H    2.136575   3.447153   3.864893   3.416516   0.000000
    26  H    1.088383   2.220407   3.415372   3.882774   2.496538
    27  O    2.346571   1.242525   2.286375   3.510253   4.472898
    28  O    4.028129   3.530214   2.289814   1.237923   4.382296
                   26         27         28
    26  H    0.000000
    27  O    2.617387   0.000000
    28  O    5.116307   4.573836   0.000000
 Stoichiometry    C9H11N2O6(1-)
 Framework group  C1[X(C9H11N2O6)]
 Deg. of freedom    78
 Full point group                 C1      NOp   1
 Largest Abelian subgroup         C1      NOp   1
 Largest concise Abelian subgroup C1      NOp   1
                         Standard orientation:                         
 ---------------------------------------------------------------------
 Center     Atomic      Atomic             Coordinates (Angstroms)
 Number     Number       Type             X           Y           Z
 ---------------------------------------------------------------------
      1          6           0       -2.245678   -0.009665    0.774755
      2          6           0       -1.252076   -1.175405    0.785099
      3          6           0       -0.329850   -0.875267   -0.410153
      4          8           0       -1.944922   -2.386599    0.545704
      5          1           0       -0.668630   -1.241855    1.716834
      6          8           0       -1.055621    0.089045   -1.222381
      7          1           0       -0.154797   -1.786014   -0.993017
      8          7           0        0.961027   -0.372282   -0.087055
      9          6           0       -2.353499    0.303776   -0.712045
     10          1           0       -1.837670    0.864414    1.300617
     11          8           0       -3.526317   -0.353045    1.296993
     12          6           0       -2.740820    1.736119   -1.027310
     13          1           0       -3.089554   -0.387004   -1.164971
     14          8           0       -1.795104    2.655241   -0.522562
     15          1           0       -3.707487    1.964473   -0.556553
     16          1           0       -2.854327    1.844710   -2.119973
     17          1           0       -3.514965   -0.197717    2.245179
     18          1           0       -2.838489   -2.254981    0.890039
     19          1           0       -0.929629    2.331593   -0.809180
     20          6           0        1.106383    0.752504    0.682814
     21          6           0        2.323233    1.259204    0.955284
     22          6           0        3.518231    0.587501    0.412151
     23          7           0        3.339552   -0.514161   -0.372343
     24          6           0        2.133448   -1.015766   -0.657797
     25          1           0        0.189135    1.215920    1.048606
     26          1           0        2.445015    2.152089    1.565615
     27          8           0        4.643442    1.041011    0.680664
     28          8           0        1.916163   -2.005469   -1.368942
 ---------------------------------------------------------------------
 Rotational constants (GHZ):           0.8300299           0.3037763           0.2643628
 Standard basis: Aug-CC-pVDZ (5D, 7F)
 There are   524 symmetry adapted cartesian basis functions of A   symmetry.
 There are   490 symmetry adapted basis functions of A   symmetry.
   490 basis functions,   852 primitive gaussians,   524 cartesian basis functions
    64 alpha electrons       64 beta electrons
       nuclear repulsion energy      1299.4570909308 Hartrees.
 NAtoms=   28 NActive=   28 NUniq=   28 SFac= 1.00D+00 NAtFMM=   60 NAOKFM=F Big=F
 Integral buffers will be    131072 words long.
 Raffenetti 2 integral format.
 Two-electron integral symmetry is turned on.
 Nuclear repulsion after empirical dispersion term =     1299.4376460857 Hartrees.
 One-electron integrals computed using PRISM.
 NBasis=   490 RedAO= T EigKep=  3.14D-06  NBF=   490
 NBsUse=   490 1.00D-06 EigRej= -1.00D+00 NBFU=   490
 Initial guess from the checkpoint file:  "/scr/Gau-76525.chk"
 B after Tr=    -0.000000    0.000000    0.000000
         Rot=    0.999998   -0.001023    0.000901    0.001362 Ang=  -0.22 deg.
 ExpMin= 2.97D-02 ExpMax= 1.17D+04 ExpMxC= 4.01D+02 IAcc=3 IRadAn=         5 AccDes= 0.00D+00
 Harris functional with IExCor= 1009 and IRadAn=       5 diagonalized for initial guess.
 HarFok:  IExCor= 1009 AccDes= 0.00D+00 IRadAn=         5 IDoV= 1 UseB2=F ITyADJ=14
 ICtDFT=  3500011 ScaDFX=  1.000000  1.000000  1.000000  1.000000
 FoFCou: FMM=F IPFlag=           0 FMFlag=      100000 FMFlg1=           0
         NFxFlg=           0 DoJE=T BraDBF=F KetDBF=T FulRan=T
         wScrn=  0.000000 ICntrl=       500 IOpCl=  0 I1Cent=   200000004 NGrid=           0
         NMat0=    1 NMatS0=      1 NMatT0=    0 NMatD0=    1 NMtDS0=    0 NMtDT0=    0
 Petite list used in FoFCou.
 Requested convergence on RMS density matrix=1.00D-08 within 128 cycles.
 Requested convergence on MAX density matrix=1.00D-06.
 Requested convergence on             energy=1.00D-06.
 No special actions if energy rises.
 SCF Done:  E(RPBE1PBE) =  -909.656688193     A.U. after   11 cycles
            NFock= 11  Conv=0.88D-08     -V/T= 2.0054
 Calling FoFJK, ICntrl=      2127 FMM=F ISym2X=0 I1Cent= 0 IOpClX= 0 NMat=1 NMatS=1 NMatT=0.
