 Entering Gaussian System, Link 0=g16
 Input=PseudoUridineAnSallgPBE0aVDZ.gjf
 Output=PseudoUridineAnSallgPBE0aVDZ.log
 Initial command:
 /sw/contrib/chem-src/g16/c01/g16/l1.exe "/scr/Gau-19758.inp" -scrdir="/scr/"
 Entering Link 1 = /sw/contrib/chem-src/g16/c01/g16/l1.exe PID=     19759.
  
 Copyright (c) 1988-2019, Gaussian, Inc.  All Rights Reserved.
  
 This is part of the Gaussian(R) 16 program.  It is based on
 the Gaussian(R) 09 system (copyright 2009, Gaussian, Inc.),
 the Gaussian(R) 03 system (copyright 2003, Gaussian, Inc.),
 the Gaussian(R) 98 system (copyright 1998, Gaussian, Inc.),
 the Gaussian(R) 94 system (copyright 1995, Gaussian, Inc.),
 the Gaussian 92(TM) system (copyright 1992, Gaussian, Inc.),
 the Gaussian 90(TM) system (copyright 1990, Gaussian, Inc.),
 the Gaussian 88(TM) system (copyright 1988, Gaussian, Inc.),
 the Gaussian 86(TM) system (copyright 1986, Carnegie Mellon
 University), and the Gaussian 82(TM) system (copyright 1983,
 Carnegie Mellon University). Gaussian is a federally registered
 trademark of Gaussian, Inc.
  
 This software contains proprietary and confidential information,
 including trade secrets, belonging to Gaussian, Inc.
  
 This software is provided under written license and may be
 used, copied, transmitted, or stored only in accord with that
 written license.
  
 The following legend is applicable only to US Government
 contracts under FAR:
  
                    RESTRICTED RIGHTS LEGEND
  
 Use, reproduction and disclosure by the US Government is
 subject to restrictions as set forth in subparagraphs (a)
 and (c) of the Commercial Computer Software - Restricted
 Rights clause in FAR 52.227-19.
  
 Gaussian, Inc.
 340 Quinnipiac St., Bldg. 40, Wallingford CT 06492
  
  
 ---------------------------------------------------------------
 Warning -- This program may not be used in any manner that
 competes with the business of Gaussian, Inc. or will provide
 assistance to any competitor of Gaussian, Inc.  The licensee
 of this program is prohibited from giving any competitor of
 Gaussian, Inc. access to this program.  By using this program,
 the user acknowledges that Gaussian, Inc. is engaged in the
 business of creating and licensing software in the field of
 computational chemistry and represents and warrants to the
 licensee that it is not a competitor of Gaussian, Inc. and that
 it will not use this program in any manner prohibited above.
 ---------------------------------------------------------------
  

 Cite this work as:
 Gaussian 16, Revision C.01,
 M. J. Frisch, G. W. Trucks, H. B. Schlegel, G. E. Scuseria, 
 M. A. Robb, J. R. Cheeseman, G. Scalmani, V. Barone, 
 G. A. Petersson, H. Nakatsuji, X. Li, M. Caricato, A. V. Marenich, 
 J. Bloino, B. G. Janesko, R. Gomperts, B. Mennucci, H. P. Hratchian, 
 J. V. Ortiz, A. F. Izmaylov, J. L. Sonnenberg, D. Williams-Young, 
 F. Ding, F. Lipparini, F. Egidi, J. Goings, B. Peng, A. Petrone, 
 T. Henderson, D. Ranasinghe, V. G. Zakrzewski, J. Gao, N. Rega, 
 G. Zheng, W. Liang, M. Hada, M. Ehara, K. Toyota, R. Fukuda, 
 J. Hasegawa, M. Ishida, T. Nakajima, Y. Honda, O. Kitao, H. Nakai, 
 T. Vreven, K. Throssell, J. A. Montgomery, Jr., J. E. Peralta, 
 F. Ogliaro, M. J. Bearpark, J. J. Heyd, E. N. Brothers, K. N. Kudin, 
 V. N. Staroverov, T. A. Keith, R. Kobayashi, J. Normand, 
 K. Raghavachari, A. P. Rendell, J. C. Burant, S. S. Iyengar, 
 J. Tomasi, M. Cossi, J. M. Millam, M. Klene, C. Adamo, R. Cammi, 
 J. W. Ochterski, R. L. Martin, K. Morokuma, O. Farkas, 
 J. B. Foresman, and D. J. Fox, Gaussian, Inc., Wallingford CT, 2019.
 
 ******************************************
 Gaussian 16:  EM64L-G16RevC.01  3-Jul-2019
                27-Oct-2024 
 ******************************************
 %nprocshared=40
 Will use up to   40 processors via shared memory.
 %mem=50gb
 ------------------------------------------------------
 # PBE1PBE/aug-cc-pVDZ opt freq EmpiricalDispersion=GD3
 ------------------------------------------------------
 1/18=20,19=15,26=3,38=1/1,3;
 2/9=110,12=2,17=6,18=5,40=1/2;
 3/5=16,7=10,11=2,25=1,30=1,71=1,74=-13,124=31/1,2,3;
 4//1;
 5/5=2,38=5/2;
 6/7=2,8=2,9=2,10=2,28=1/1;
 7//1,2,3,16;
 1/18=20,19=15,26=3/3(2);
 2/9=110/2;
 99//99;
 2/9=110/2;
 3/5=16,7=10,11=2,25=1,30=1,71=1,74=-13,124=31/1,2,3;
 4/5=5,16=3,69=1/1;
 5/5=2,38=5/2;
 7//1,2,3,16;
 1/18=20,19=15,26=3/3(-5);
 2/9=110/2;
 6/7=2,8=2,9=2,10=2,19=2,28=1/1;
 99/9=1/99;
 ----
 blah
 ----
 Symbolic Z-matrix:
 Charge = -1 Multiplicity = 1
 C                    -2.77535  -0.5377    0.26376 
 C                    -1.36281  -0.76298   0.81606 
 C                    -0.53507  -0.7358   -0.47106 
 O                    -1.21083  -2.02031   1.45506 
 H                    -1.08084   0.06662   1.47469 
 O                    -1.14739   0.24652  -1.28268 
 H                    -0.63061  -1.73669  -0.93206 
 C                     0.91929  -0.43122  -0.30727 
 C                    -2.52917   0.41536  -0.90233 
 H                    -3.44468  -0.09215   1.01623 
 O                    -3.30105  -1.7533   -0.23254 
 C                    -2.76024   1.87657  -0.56616 
 H                    -3.16432   0.11954  -1.75112 
 O                    -2.11829   2.27269   0.62187 
 H                    -3.83808   2.04176  -0.42261 
 H                    -2.43764   2.48592  -1.42821 
 H                    -2.99638  -2.44798   0.36653 
 H                    -1.34346  -1.9032    2.39938 
 H                    -1.15949   2.15389   0.51199 
 C                     1.86404  -1.31785  -0.70059 
 N                     3.20363  -1.08976  -0.55793 
 C                     3.72597   0.0708   -0.01634 
 N                     2.7513    0.96692   0.36876 
 C                     1.36704   0.82591   0.28221 
 H                     1.59424  -2.2712   -1.15322 
 H                     3.88644  -1.77037  -0.85805 
 O                     4.91753   0.2701    0.10362 
 O                     0.65509   1.72959   0.70184 
 

 GradGradGradGradGradGradGradGradGradGradGradGradGradGradGradGradGradGrad
 Berny optimization.
 Initialization pass.
                           ----------------------------
                           !    Initial Parameters    !
                           ! (Angstroms and Degrees)  !
 --------------------------                            --------------------------
 ! Name  Definition              Value          Derivative Info.                !
 --------------------------------------------------------------------------------
 ! R1    R(1,2)                  1.5333         estimate D2E/DX2                !
 ! R2    R(1,9)                  1.526          estimate D2E/DX2                !
 ! R3    R(1,10)                 1.1012         estimate D2E/DX2                !
 ! R4    R(1,11)                 1.4143         estimate D2E/DX2                !
 ! R5    R(2,3)                  1.5305         estimate D2E/DX2                !
 ! R6    R(2,4)                  1.4186         estimate D2E/DX2                !
 ! R7    R(2,5)                  1.0962         estimate D2E/DX2                !
 ! R8    R(3,6)                  1.4137         estimate D2E/DX2                !
 ! R9    R(3,7)                  1.1061         estimate D2E/DX2                !
 ! R10   R(3,8)                  1.4949         estimate D2E/DX2                !
 ! R11   R(4,18)                 0.9608         estimate D2E/DX2                !
 ! R12   R(6,9)                  1.4431         estimate D2E/DX2                !
 ! R13   R(8,20)                 1.354          estimate D2E/DX2                !
 ! R14   R(8,24)                 1.4589         estimate D2E/DX2                !
 ! R15   R(9,12)                 1.5171         estimate D2E/DX2                !
 ! R16   R(9,13)                 1.1006         estimate D2E/DX2                !
 ! R17   R(11,17)                0.9666         estimate D2E/DX2                !
 ! R18   R(12,14)                1.4073         estimate D2E/DX2                !
 ! R19   R(12,15)                1.0998         estimate D2E/DX2                !
 ! R20   R(12,16)                1.1039         estimate D2E/DX2                !
 ! R21   R(14,19)                0.9724         estimate D2E/DX2                !
 ! R22   R(20,21)                1.3663         estimate D2E/DX2                !
 ! R23   R(20,25)                1.0893         estimate D2E/DX2                !
 ! R24   R(21,22)                1.3831         estimate D2E/DX2                !
 ! R25   R(21,26)                1.0097         estimate D2E/DX2                !
 ! R26   R(22,23)                1.3789         estimate D2E/DX2                !
 ! R27   R(22,27)                1.2141         estimate D2E/DX2                !
 ! R28   R(23,24)                1.3941         estimate D2E/DX2                !
 ! R29   R(24,28)                1.2246         estimate D2E/DX2                !
 ! A1    A(2,1,9)              102.6145         estimate D2E/DX2                !
 ! A2    A(2,1,10)             111.916          estimate D2E/DX2                !
 ! A3    A(2,1,11)             110.0309         estimate D2E/DX2                !
 ! A4    A(9,1,10)             111.5621         estimate D2E/DX2                !
 ! A5    A(9,1,11)             109.1845         estimate D2E/DX2                !
 ! A6    A(10,1,11)            111.1977         estimate D2E/DX2                !
 ! A7    A(1,2,3)              101.1104         estimate D2E/DX2                !
 ! A8    A(1,2,4)              113.0283         estimate D2E/DX2                !
 ! A9    A(1,2,5)              110.0115         estimate D2E/DX2                !
 ! A10   A(3,2,4)              109.6705         estimate D2E/DX2                !
 ! A11   A(3,2,5)              110.6543         estimate D2E/DX2                !
 ! A12   A(4,2,5)              111.8756         estimate D2E/DX2                !
 ! A13   A(2,3,6)              105.1227         estimate D2E/DX2                !
 ! A14   A(2,3,7)              106.7207         estimate D2E/DX2                !
 ! A15   A(2,3,8)              115.9523         estimate D2E/DX2                !
 ! A16   A(6,3,7)              110.6139         estimate D2E/DX2                !
 ! A17   A(6,3,8)              110.0422         estimate D2E/DX2                !
 ! A18   A(7,3,8)              108.3049         estimate D2E/DX2                !
 ! A19   A(2,4,18)             108.6585         estimate D2E/DX2                !
 ! A20   A(3,6,9)              110.1642         estimate D2E/DX2                !
 ! A21   A(3,8,20)             120.9017         estimate D2E/DX2                !
 ! A22   A(3,8,24)             121.2273         estimate D2E/DX2                !
 ! A23   A(20,8,24)            117.871          estimate D2E/DX2                !
 ! A24   A(1,9,6)              106.4276         estimate D2E/DX2                !
 ! A25   A(1,9,12)             114.0571         estimate D2E/DX2                !
 ! A26   A(1,9,13)             109.1677         estimate D2E/DX2                !
 ! A27   A(6,9,12)             108.4782         estimate D2E/DX2                !
 ! A28   A(6,9,13)             108.5335         estimate D2E/DX2                !
 ! A29   A(12,9,13)            109.9908         estimate D2E/DX2                !
 ! A30   A(1,11,17)            106.4433         estimate D2E/DX2                !
 ! A31   A(9,12,14)            112.8737         estimate D2E/DX2                !
 ! A32   A(9,12,15)            108.8355         estimate D2E/DX2                !
 ! A33   A(9,12,16)            108.3084         estimate D2E/DX2                !
 ! A34   A(14,12,15)           107.1321         estimate D2E/DX2                !
 ! A35   A(14,12,16)           111.751          estimate D2E/DX2                !
 ! A36   A(15,12,16)           107.7839         estimate D2E/DX2                !
 ! A37   A(12,14,19)           108.6639         estimate D2E/DX2                !
 ! A38   A(8,20,21)            122.9867         estimate D2E/DX2                !
 ! A39   A(8,20,25)            121.3983         estimate D2E/DX2                !
 ! A40   A(21,20,25)           115.6147         estimate D2E/DX2                !
 ! A41   A(20,21,22)           123.4498         estimate D2E/DX2                !
 ! A42   A(20,21,26)           121.2951         estimate D2E/DX2                !
 ! A43   A(22,21,26)           115.2518         estimate D2E/DX2                !
 ! A44   A(21,22,23)           112.813          estimate D2E/DX2                !
 ! A45   A(21,22,27)           123.1674         estimate D2E/DX2                !
 ! A46   A(23,22,27)           124.0196         estimate D2E/DX2                !
 ! A47   A(22,23,24)           128.2279         estimate D2E/DX2                !
 ! A48   A(8,24,23)            114.6445         estimate D2E/DX2                !
 ! A49   A(8,24,28)            126.5786         estimate D2E/DX2                !
 ! A50   A(23,24,28)           118.7742         estimate D2E/DX2                !
 ! D1    D(9,1,2,3)            -35.1421         estimate D2E/DX2                !
 ! D2    D(9,1,2,4)           -152.2854         estimate D2E/DX2                !
 ! D3    D(9,1,2,5)             81.8639         estimate D2E/DX2                !
 ! D4    D(10,1,2,3)          -154.876          estimate D2E/DX2                !
 ! D5    D(10,1,2,4)            87.9807         estimate D2E/DX2                !
 ! D6    D(10,1,2,5)           -37.87           estimate D2E/DX2                !
 ! D7    D(11,1,2,3)            80.9625         estimate D2E/DX2                !
 ! D8    D(11,1,2,4)           -36.1808         estimate D2E/DX2                !
 ! D9    D(11,1,2,5)          -162.0315         estimate D2E/DX2                !
 ! D10   D(2,1,9,6)             22.2853         estimate D2E/DX2                !
 ! D11   D(2,1,9,12)           -97.2848         estimate D2E/DX2                !
 ! D12   D(2,1,9,13)           139.2424         estimate D2E/DX2                !
 ! D13   D(10,1,9,6)           142.265          estimate D2E/DX2                !
 ! D14   D(10,1,9,12)           22.6949         estimate D2E/DX2                !
 ! D15   D(10,1,9,13)         -100.7779         estimate D2E/DX2                !
 ! D16   D(11,1,9,6)           -94.4265         estimate D2E/DX2                !
 ! D17   D(11,1,9,12)          146.0034         estimate D2E/DX2                !
 ! D18   D(11,1,9,13)           22.5306         estimate D2E/DX2                !
 ! D19   D(2,1,11,17)           37.3641         estimate D2E/DX2                !
 ! D20   D(9,1,11,17)          149.263          estimate D2E/DX2                !
 ! D21   D(10,1,11,17)         -87.2123         estimate D2E/DX2                !
 ! D22   D(1,2,3,6)             36.8348         estimate D2E/DX2                !
 ! D23   D(1,2,3,7)            -80.6804         estimate D2E/DX2                !
 ! D24   D(1,2,3,8)            158.5939         estimate D2E/DX2                !
 ! D25   D(4,2,3,6)            156.4099         estimate D2E/DX2                !
 ! D26   D(4,2,3,7)             38.8948         estimate D2E/DX2                !
 ! D27   D(4,2,3,8)            -81.8309         estimate D2E/DX2                !
 ! D28   D(5,2,3,6)            -79.6991         estimate D2E/DX2                !
 ! D29   D(5,2,3,7)            162.7857         estimate D2E/DX2                !
 ! D30   D(5,2,3,8)             42.06           estimate D2E/DX2                !
 ! D31   D(1,2,4,18)           -95.5154         estimate D2E/DX2                !
 ! D32   D(3,2,4,18)           152.503          estimate D2E/DX2                !
 ! D33   D(5,2,4,18)            29.3294         estimate D2E/DX2                !
 ! D34   D(2,3,6,9)            -24.0788         estimate D2E/DX2                !
 ! D35   D(7,3,6,9)             90.7601         estimate D2E/DX2                !
 ! D36   D(8,3,6,9)           -149.609          estimate D2E/DX2                !
 ! D37   D(2,3,8,20)           119.9566         estimate D2E/DX2                !
 ! D38   D(2,3,8,24)           -59.9191         estimate D2E/DX2                !
 ! D39   D(6,3,8,20)          -120.9391         estimate D2E/DX2                !
 ! D40   D(6,3,8,24)            59.1852         estimate D2E/DX2                !
 ! D41   D(7,3,8,20)             0.0865         estimate D2E/DX2                !
 ! D42   D(7,3,8,24)          -179.7892         estimate D2E/DX2                !
 ! D43   D(3,6,9,1)              0.934          estimate D2E/DX2                !
 ! D44   D(3,6,9,12)           124.0698         estimate D2E/DX2                !
 ! D45   D(3,6,9,13)          -116.445          estimate D2E/DX2                !
 ! D46   D(3,8,20,21)         -179.2756         estimate D2E/DX2                !
 ! D47   D(3,8,20,25)            0.5027         estimate D2E/DX2                !
 ! D48   D(24,8,20,21)           0.6042         estimate D2E/DX2                !
 ! D49   D(24,8,20,25)        -179.6175         estimate D2E/DX2                !
 ! D50   D(3,8,24,23)         -179.9853         estimate D2E/DX2                !
 ! D51   D(3,8,24,28)            0.6348         estimate D2E/DX2                !
 ! D52   D(20,8,24,23)           0.1353         estimate D2E/DX2                !
 ! D53   D(20,8,24,28)        -179.2446         estimate D2E/DX2                !
 ! D54   D(1,9,12,14)           48.8017         estimate D2E/DX2                !
 ! D55   D(1,9,12,15)          -69.9958         estimate D2E/DX2                !
 ! D56   D(1,9,12,16)          173.0817         estimate D2E/DX2                !
 ! D57   D(6,9,12,14)          -69.6046         estimate D2E/DX2                !
 ! D58   D(6,9,12,15)          171.5978         estimate D2E/DX2                !
 ! D59   D(6,9,12,16)           54.6753         estimate D2E/DX2                !
 ! D60   D(13,9,12,14)         171.828          estimate D2E/DX2                !
 ! D61   D(13,9,12,15)          53.0304         estimate D2E/DX2                !
 ! D62   D(13,9,12,16)         -63.8921         estimate D2E/DX2                !
 ! D63   D(9,12,14,19)          61.4419         estimate D2E/DX2                !
 ! D64   D(15,12,14,19)       -178.7748         estimate D2E/DX2                !
 ! D65   D(16,12,14,19)        -60.9289         estimate D2E/DX2                !
 ! D66   D(8,20,21,22)          -0.8681         estimate D2E/DX2                !
 ! D67   D(8,20,21,26)         179.8241         estimate D2E/DX2                !
 ! D68   D(25,20,21,22)        179.3418         estimate D2E/DX2                !
 ! D69   D(25,20,21,26)          0.034          estimate D2E/DX2                !
 ! D70   D(20,21,22,23)          0.2976         estimate D2E/DX2                !
 ! D71   D(20,21,22,27)       -179.7277         estimate D2E/DX2                !
 ! D72   D(26,21,22,23)        179.6436         estimate D2E/DX2                !
 ! D73   D(26,21,22,27)         -0.3817         estimate D2E/DX2                !
 ! D74   D(21,22,23,24)          0.522          estimate D2E/DX2                !
 ! D75   D(27,22,23,24)       -179.4524         estimate D2E/DX2                !
 ! D76   D(22,23,24,8)          -0.7332         estimate D2E/DX2                !
 ! D77   D(22,23,24,28)        178.6987         estimate D2E/DX2                !
 --------------------------------------------------------------------------------
 Trust Radius=3.00D-01 FncErr=1.00D-07 GrdErr=1.00D-06 EigMax=2.50D+02 EigMin=1.00D-04
 Number of steps in this run=    166 maximum allowed number of steps=    168.
 GradGradGradGradGradGradGradGradGradGradGradGradGradGradGradGradGradGrad

                          Input orientation:                          
 ---------------------------------------------------------------------
 Center     Atomic      Atomic             Coordinates (Angstroms)
 Number     Number       Type             X           Y           Z
 ---------------------------------------------------------------------
      1          6           0       -2.775348   -0.537695    0.263759
      2          6           0       -1.362814   -0.762981    0.816055
      3          6           0       -0.535066   -0.735799   -0.471061
      4          8           0       -1.210827   -2.020310    1.455056
      5          1           0       -1.080836    0.066623    1.474685
      6          8           0       -1.147392    0.246516   -1.282683
      7          1           0       -0.630610   -1.736686   -0.932056
      8          6           0        0.919285   -0.431215   -0.307265
      9          6           0       -2.529166    0.415363   -0.902328
     10          1           0       -3.444684   -0.092150    1.016235
     11          8           0       -3.301051   -1.753304   -0.232537
     12          6           0       -2.760238    1.876567   -0.566163
     13          1           0       -3.164322    0.119536   -1.751115
     14          8           0       -2.118285    2.272692    0.621873
     15          1           0       -3.838081    2.041755   -0.422606
     16          1           0       -2.437637    2.485920   -1.428207
     17          1           0       -2.996379   -2.447979    0.366526
     18          1           0       -1.343457   -1.903202    2.399383
     19          1           0       -1.159486    2.153894    0.511994
     20          6           0        1.864038   -1.317845   -0.700586
     21          7           0        3.203633   -1.089759   -0.557934
     22          6           0        3.725969    0.070795   -0.016342
     23          7           0        2.751298    0.966915    0.368757
     24          6           0        1.367038    0.825912    0.282207
     25          1           0        1.594242   -2.271197   -1.153215
     26          1           0        3.886439   -1.770370   -0.858045
     27          8           0        4.917534    0.270097    0.103618
     28          8           0        0.655093    1.729591    0.701842
 ---------------------------------------------------------------------
                    Distance matrix (angstroms):
                    1          2          3          4          5
     1  C    0.000000
     2  C    1.533309   0.000000
     3  C    2.366024   1.530547   0.000000
     4  O    2.462735   1.418555   2.411752   0.000000
     5  H    2.168620   1.096151   2.174321   2.091070   0.000000
     6  O    2.378384   2.338844   1.413724   3.554960   2.764031
     7  H    2.732664   2.130755   1.106083   2.472933   3.040893
     8  C    3.740016   2.565130   1.494904   3.188789   2.724642
     9  C    1.526003   2.387826   2.342563   3.637002   2.805258
    10  H    1.101245   2.196422   3.330497   2.983368   2.413123
    11  O    1.414347   2.415998   2.956837   2.699685   3.340074
    12  C    2.552971   3.290978   3.432913   4.655282   3.203334
    13  H    2.154755   3.258010   3.046822   4.321414   3.840508
    14  O    2.908307   3.134287   3.571009   4.466267   2.582698
    15  H    2.872988   3.940529   4.315908   5.189263   3.886291
    16  H    3.481242   4.092348   3.862043   5.488568   4.015058
    17  H    1.925773   2.389525   3.113065   2.134478   3.349708
    18  H    2.911325   1.951258   3.202464   0.960759   2.191859
    19  H    3.149172   2.939720   3.115545   4.279717   2.299926
    20  C    4.802343   3.608413   2.479347   3.820346   3.914184
    21  N    6.060377   4.779861   3.756422   4.940193   4.881130
    22  C    6.535736   5.223388   4.360480   5.559648   5.032748
    23  N    5.728760   4.485369   3.795355   5.079566   4.088869
    24  C    4.361092   3.203384   2.573782   4.015214   2.826767
    25  H    4.909803   3.859653   2.712330   3.838546   4.418971
    26  H    6.867120   5.601080   4.557390   5.603127   5.787054
    27  O    7.736834   6.404497   5.574310   6.680506   6.156433
    28  O    4.135266   3.209035   2.978310   4.255672   2.525114
                    6          7          8          9         10
     6  O    0.000000
     7  H    2.079205   0.000000
     8  C    2.383676   2.120564   0.000000
     9  C    1.443080   2.869968   3.600362   0.000000
    10  H    3.267609   3.797282   4.572837   2.185550   0.000000
    11  O    3.120951   2.760590   4.423205   2.397403   2.083145
    12  C    2.402444   4.210082   4.351066   1.517076   2.616925
    13  H    2.074502   3.245938   4.366220   1.100625   2.789559
    14  O    2.945396   4.550053   4.171480   2.437557   2.739951
    15  H    3.347002   4.982372   5.362967   2.142088   2.603570
    16  H    2.588598   4.619731   4.586405   2.138255   3.692680
    17  H    3.660457   2.790899   4.455755   3.166545   2.484558
    18  H    4.268177   3.410918   3.822655   4.205109   3.099704
    19  H    2.618989   4.183492   3.416908   2.626560   3.243625
    20  C    3.443076   2.540133   1.354021   4.727045   5.712472
    21  N    4.608938   3.906392   2.390557   5.937085   6.904589
    22  C    5.038268   4.804716   2.866030   6.326959   7.246450
    23  N    4.294882   4.520937   2.401675   5.459228   6.319101
    24  C    3.017770   3.468709   1.458879   4.092930   4.953211
    25  H    3.724540   2.298821   2.134650   4.927783   5.903011
    26  H    5.439449   4.517781   3.301620   6.777859   7.750788
    27  O    6.221392   5.990134   4.080032   7.515742   8.419666
    28  O    3.063789   4.041996   2.399412   3.800008   4.497305
                   11         12         13         14         15
    11  O    0.000000
    12  C    3.685071   0.000000
    13  H    2.415016   2.157441   0.000000
    14  O    4.282242   1.407284   3.370660   0.000000
    15  H    3.837577   1.099837   2.431833   2.025331   0.000000
    16  H    4.488444   1.103858   2.496420   2.085732   1.780382
    17  H    0.966579   4.430279   3.332378   4.808429   4.635612
    18  H    3.283542   5.008831   4.963230   4.604128   5.454306
    19  H    4.517391   1.949805   3.644124   0.972359   2.839177
    20  C    5.204502   5.621945   5.334237   5.522658   6.624073
    21  N    6.546533   6.660849   6.590670   6.404751   7.707816
    22  C    7.263132   6.755294   7.105485   6.277816   7.827170
    23  N    6.662738   5.663795   6.340857   5.047966   6.723203
    24  C    5.358019   4.342582   5.016631   3.788934   5.391503
    25  H    5.007969   6.042357   5.358826   6.130312   6.974631
    26  H    7.214677   7.587072   7.354084   7.388722   8.624970
    27  O    8.470672   7.872581   8.293317   7.333602   8.948546
    28  O    5.353008   3.646083   4.816348   2.827186   4.642245
                   16         17         18         19         20
    16  H    0.000000
    17  H    5.279831   0.000000
    18  H    5.925544   2.676087   0.000000
    19  H    2.346975   4.957073   4.478405   0.000000
    20  C    5.788132   5.102900   4.498942   4.760779   0.000000
    21  N    6.735487   6.414011   5.484837   5.541014   1.366341
    22  C    6.768769   7.188934   5.952434   5.337238   2.421425
    23  N    5.697500   6.685604   5.397039   4.089458   2.674108
    24  C    4.489621   5.455720   4.390590   2.863505   2.410101
    25  H    6.241941   4.838870   4.624548   5.471505   1.089286
    26  H    7.644281   7.023668   6.162815   6.537447   2.078384
    27  O    7.832937   8.371802   7.013827   6.375393   3.534422
    28  O    3.830682   5.558577   4.480294   1.873172   3.565841
                   21         22         23         24         25
    21  N    0.000000
    22  C    1.383128   0.000000
    23  N    2.300711   1.378882   0.000000
    24  C    2.783651   2.494772   1.394112   0.000000
    25  H    2.083337   3.364768   3.760392   3.421132   0.000000
    26  H    1.009714   2.030789   3.207229   3.793183   2.364766
    27  O    2.285676   1.214059   2.290946   3.598173   4.368303
    28  O    4.003851   3.563379   2.255370   1.224579   4.508829
                   26         27         28
    26  H    0.000000
    27  O    2.480213   0.000000
    28  O    5.012442   4.544931   0.000000
 Stoichiometry    C9H11N2O6(1-)
 Framework group  C1[X(C9H11N2O6)]
 Deg. of freedom    78
 Full point group                 C1      NOp   1
 Largest Abelian subgroup         C1      NOp   1
 Largest concise Abelian subgroup C1      NOp   1
                         Standard orientation:                         
 ---------------------------------------------------------------------
 Center     Atomic      Atomic             Coordinates (Angstroms)
 Number     Number       Type             X           Y           Z
 ---------------------------------------------------------------------
      1          6           0       -2.746669   -0.552660    0.255345
      2          6           0       -1.333823   -0.769692    0.810143
      3          6           0       -0.502162   -0.721629   -0.473837
      4          8           0       -1.171669   -2.031791    1.437128
      5          1           0       -1.062117    0.056008    1.477932
      6          8           0       -1.121380    0.262726   -1.277721
      7          1           0       -0.586421   -1.718752   -0.945075
      8          6           0        0.948602   -0.404562   -0.302111
      9          6           0       -2.505977    0.414325   -0.900376
     10          1           0       -3.422786   -0.121171    1.009947
     11          8           0       -3.258852   -1.768317   -0.254779
     12          6           0       -2.752400    1.869788   -0.550489
     13          1           0       -3.135428    0.120811   -1.754201
     14          8           0       -2.118244    2.260275    0.643586
     15          1           0       -3.832269    2.023045   -0.408939
     16          1           0       -2.432935    2.490814   -1.405341
     17          1           0       -2.949382   -2.465933    0.338377
     18          1           0       -1.308533   -1.925399    2.382118
     19          1           0       -1.157976    2.151910    0.535770
     20          6           0        1.903248   -1.277995   -0.701031
     21          7           0        3.240078   -1.038324   -0.551596
     22          6           0        3.749283    0.121798    0.003263
     23          7           0        2.764655    1.004512    0.393954
     24          6           0        1.382128    0.850922    0.301332
     25          1           0        1.644256   -2.229367   -1.164019
     26          1           0        3.930475   -1.709236   -0.856148
     27          8           0        4.938447    0.331475    0.129221
     28          8           0        0.660025    1.743405    0.727520
 ---------------------------------------------------------------------
 Rotational constants (GHZ):           0.9394960           0.3030413           0.2603808
 Standard basis: Aug-CC-pVDZ (5D, 7F)
 There are   524 symmetry adapted cartesian basis functions of A   symmetry.
 There are   490 symmetry adapted basis functions of A   symmetry.
   490 basis functions,   852 primitive gaussians,   524 cartesian basis functions
    64 alpha electrons       64 beta electrons
       nuclear repulsion energy      1305.7356978974 Hartrees.
 NAtoms=   28 NActive=   28 NUniq=   28 SFac= 1.00D+00 NAtFMM=   60 NAOKFM=F Big=F
 Integral buffers will be    131072 words long.
 Raffenetti 2 integral format.
 Two-electron integral symmetry is turned on.
 Nuclear repulsion after empirical dispersion term =     1305.7160393622 Hartrees.
 One-electron integrals computed using PRISM.
 NBasis=   490 RedAO= T EigKep=  2.09D-06  NBF=   490
 NBsUse=   490 1.00D-06 EigRej= -1.00D+00 NBFU=   490
 ExpMin= 2.97D-02 ExpMax= 1.17D+04 ExpMxC= 4.01D+02 IAcc=3 IRadAn=         5 AccDes= 0.00D+00
 Harris functional with IExCor= 1009 and IRadAn=       5 diagonalized for initial guess.
 HarFok:  IExCor= 1009 AccDes= 0.00D+00 IRadAn=         5 IDoV= 1 UseB2=F ITyADJ=14
 ICtDFT=  3500011 ScaDFX=  1.000000  1.000000  1.000000  1.000000
 FoFCou: FMM=F IPFlag=           0 FMFlag=      100000 FMFlg1=           0
         NFxFlg=           0 DoJE=T BraDBF=F KetDBF=T FulRan=T
         wScrn=  0.000000 ICntrl=       500 IOpCl=  0 I1Cent=   200000004 NGrid=           0
         NMat0=    1 NMatS0=      1 NMatT0=    0 NMatD0=    1 NMtDS0=    0 NMtDT0=    0
 Petite list used in FoFCou.
 Requested convergence on RMS density matrix=1.00D-08 within 128 cycles.
 Requested convergence on MAX density matrix=1.00D-06.
 Requested convergence on             energy=1.00D-06.
 No special actions if energy rises.
 EnCoef did     1 forward-backward iterations
 SCF Done:  E(RPBE1PBE) =  -909.670311101     A.U. after   15 cycles
            NFock= 15  Conv=0.92D-08     -V/T= 2.0053

 **********************************************************************

            Population analysis using the SCF Density.

 **********************************************************************

 Orbital symmetries:
       Occupied  (A) (A) (A) (A) (A) (A) (A) (A) (A) (A) (A) (A)
                 (A) (A) (A) (A) (A) (A) (A) (A) (A) (A) (A) (A)
                 (A) (A) (A) (A) (A) (A) (A) (A) (A) (A) (A) (A)
                 (A) (A) (A) (A) (A) (A) (A) (A) (A) (A) (A) (A)
                 (A) (A) (A) (A) (A) (A) (A) (A) (A) (A) (A) (A)
                 (A) (A) (A) (A)
       Virtual   (A) (A) (A) (A) (A) (A) (A) (A) (A) (A) (A) (A)
                 (A) (A) (A) (A) (A) (A) (A) (A) (A) (A) (A) (A)
                 (A) (A) (A) (A) (A) (A) (A) (A) (A) (A) (A) (A)
                 (A) (A) (A) (A) (A) (A) (A) (A) (A) (A) (A) (A)
                 (A) (A) (A) (A) (A) (A) (A) (A) (A) (A) (A) (A)
                 (A) (A) (A) (A) (A) (A) (A) (A) (A) (A) (A) (A)
                 (A) (A) (A) (A) (A) (A) (A) (A) (A) (A) (A) (A)
                 (A) (A) (A) (A) (A) (A) (A) (A) (A) (A) (A) (A)
                 (A) (A) (A) (A) (A) (A) (A) (A) (A) (A) (A) (A)
                 (A) (A) (A) (A) (A) (A) (A) (A) (A) (A) (A) (A)
                 (A) (A) (A) (A) (A) (A) (A) (A) (A) (A) (A) (A)
                 (A) (A) (A) (A) (A) (A) (A) (A) (A) (A) (A) (A)
                 (A) (A) (A) (A) (A) (A) (A) (A) (A) (A) (A) (A)
                 (A) (A) (A) (A) (A) (A) (A) (A) (A) (A) (A) (A)
                 (A) (A) (A) (A) (A) (A) (A) (A) (A) (A) (A) (A)
                 (A) (A) (A) (A) (A) (A) (A) (A) (A) (A) (A) (A)
                 (A) (A) (A) (A) (A) (A) (A) (A) (A) (A) (A) (A)
                 (A) (A) (A) (A) (A) (A) (A) (A) (A) (A) (A) (A)
                 (A) (A) (A) (A) (A) (A) (A) (A) (A) (A) (A) (A)
                 (A) (A) (A) (A) (A) (A) (A) (A) (A) (A) (A) (A)
                 (A) (A) (A) (A) (A) (A) (A) (A) (A) (A) (A) (A)
                 (A) (A) (A) (A) (A) (A) (A) (A) (A) (A) (A) (A)
                 (A) (A) (A) (A) (A) (A) (A) (A) (A) (A) (A) (A)
                 (A) (A) (A) (A) (A) (A) (A) (A) (A) (A) (A) (A)
                 (A) (A) (A) (A) (A) (A) (A) (A) (A) (A) (A) (A)
                 (A) (A) (A) (A) (A) (A) (A) (A) (A) (A) (A) (A)
                 (A) (A) (A) (A) (A) (A) (A) (A) (A) (A) (A) (A)
                 (A) (A) (A) (A) (A) (A) (A) (A) (A) (A) (A) (A)
                 (A) (A) (A) (A) (A) (A) (A) (A) (A) (A) (A) (A)
                 (A) (A) (A) (A) (A) (A) (A) (A) (A) (A) (A) (A)
                 (A) (A) (A) (A) (A) (A) (A) (A) (A) (A) (A) (A)
                 (A) (A) (A) (A) (A) (A) (A) (A) (A) (A) (A) (A)
                 (A) (A) (A) (A) (A) (A) (A) (A) (A) (A) (A) (A)
                 (A) (A) (A) (A) (A) (A) (A) (A) (A) (A) (A) (A)
                 (A) (A) (A) (A) (A) (A) (A) (A) (A) (A) (A) (A)
                 (A) (A) (A) (A) (A) (A)
 The electronic state is 1-A.
 Alpha  occ. eigenvalues --  -19.15252 -19.13171 -19.11845 -19.09504 -19.03253
 Alpha  occ. eigenvalues --  -19.02853 -14.31139 -14.19716 -10.19342 -10.18297
 Alpha  occ. eigenvalues --  -10.18050 -10.17623 -10.17324 -10.17019 -10.16878
 Alpha  occ. eigenvalues --  -10.16493 -10.10612  -0.99428  -0.96693  -0.95428
 Alpha  occ. eigenvalues --   -0.93123  -0.92791  -0.90535  -0.84884  -0.72559
 Alpha  occ. eigenvalues --   -0.70711  -0.69447  -0.65353  -0.58385  -0.54155
 Alpha  occ. eigenvalues --   -0.51484  -0.50581  -0.49212  -0.46142  -0.44100
 Alpha  occ. eigenvalues --   -0.43222  -0.41276  -0.40108  -0.39584  -0.37732
 Alpha  occ. eigenvalues --   -0.36347  -0.34369  -0.33625  -0.32197  -0.31941
 Alpha  occ. eigenvalues --   -0.31008  -0.29497  -0.28953  -0.28630  -0.27527
 Alpha  occ. eigenvalues --   -0.26621  -0.25276  -0.24192  -0.23367  -0.21631
 Alpha  occ. eigenvalues --   -0.20589  -0.19287  -0.17902  -0.15859  -0.14149
 Alpha  occ. eigenvalues --   -0.11284  -0.11059  -0.09175  -0.08936
 Alpha virt. eigenvalues --    0.06964   0.08457   0.08581   0.09782   0.10483
 Alpha virt. eigenvalues --    0.11352   0.11636   0.11843   0.12347   0.13452
 Alpha virt. eigenvalues --    0.14404   0.14837   0.15338   0.15649   0.16360
 Alpha virt. eigenvalues --    0.16503   0.16688   0.17091   0.17484   0.17800
 Alpha virt. eigenvalues --    0.18255   0.18679   0.19048   0.19188   0.19638
 Alpha virt. eigenvalues --    0.20006   0.20391   0.20519   0.21402   0.21845
 Alpha virt. eigenvalues --    0.22021   0.22269   0.22644   0.23399   0.23460
 Alpha virt. eigenvalues --    0.24338   0.24562   0.25032   0.25442   0.25623
 Alpha virt. eigenvalues --    0.26107   0.26700   0.26957   0.27668   0.28220
 Alpha virt. eigenvalues --    0.28434   0.29172   0.29636   0.29841   0.30076
 Alpha virt. eigenvalues --    0.30428   0.30855   0.31326   0.31718   0.32066
 Alpha virt. eigenvalues --    0.32882   0.33290   0.33345   0.33823   0.34393
 Alpha virt. eigenvalues --    0.34611   0.35215   0.35650   0.36096   0.36167
 Alpha virt. eigenvalues --    0.36412   0.36905   0.36970   0.37295   0.37578
 Alpha virt. eigenvalues --    0.38052   0.38331   0.38621   0.38831   0.39392
 Alpha virt. eigenvalues --    0.39450   0.39887   0.40397   0.40816   0.41072
 Alpha virt. eigenvalues --    0.41758   0.41864   0.42232   0.42491   0.42761
 Alpha virt. eigenvalues --    0.43661   0.43893   0.44451   0.44645   0.45030
 Alpha virt. eigenvalues --    0.45615   0.46214   0.46615   0.46833   0.47676
 Alpha virt. eigenvalues --    0.47862   0.48662   0.49101   0.49690   0.49863
 Alpha virt. eigenvalues --    0.49942   0.50579   0.50998   0.51456   0.52235
 Alpha virt. eigenvalues --    0.52917   0.53306   0.53730   0.54540   0.54966
 Alpha virt. eigenvalues --    0.55598   0.56139   0.56608   0.57161   0.57498
 Alpha virt. eigenvalues --    0.57939   0.58383   0.58621   0.59474   0.60351
 Alpha virt. eigenvalues --    0.60634   0.61259   0.61646   0.61963   0.62576
 Alpha virt. eigenvalues --    0.63038   0.63795   0.64200   0.64968   0.65281
 Alpha virt. eigenvalues --    0.65829   0.66631   0.67086   0.67785   0.68088
 Alpha virt. eigenvalues --    0.68846   0.69057   0.69591   0.70875   0.71317
 Alpha virt. eigenvalues --    0.72288   0.72649   0.73558   0.73729   0.74403
 Alpha virt. eigenvalues --    0.74862   0.74940   0.75978   0.76250   0.76680
 Alpha virt. eigenvalues --    0.77074   0.77359   0.77996   0.78451   0.79280
 Alpha virt. eigenvalues --    0.79585   0.79762   0.79998   0.81009   0.81880
 Alpha virt. eigenvalues --    0.82195   0.82581   0.83393   0.83628   0.83716
 Alpha virt. eigenvalues --    0.84761   0.85368   0.85750   0.86846   0.87101
 Alpha virt. eigenvalues --    0.87449   0.87971   0.88844   0.90203   0.90810
 Alpha virt. eigenvalues --    0.91339   0.91467   0.92613   0.93776   0.94468
 Alpha virt. eigenvalues --    0.94626   0.95304   0.95567   0.95997   0.96844
 Alpha virt. eigenvalues --    0.97186   0.97790   0.98787   0.99422   1.00555
 Alpha virt. eigenvalues --    1.01020   1.02231   1.02888   1.03750   1.04625
 Alpha virt. eigenvalues --    1.05081   1.06110   1.07032   1.07839   1.08913
 Alpha virt. eigenvalues --    1.09285   1.10589   1.11525   1.12050   1.13411
 Alpha virt. eigenvalues --    1.14040   1.14770   1.15411   1.16892   1.17361
 Alpha virt. eigenvalues --    1.17660   1.18344   1.18947   1.21003   1.21683
 Alpha virt. eigenvalues --    1.22478   1.23264   1.24374   1.25402   1.26240
 Alpha virt. eigenvalues --    1.26680   1.27131   1.27600   1.28811   1.30692
 Alpha virt. eigenvalues --    1.31220   1.31541   1.32026   1.32560   1.33499
 Alpha virt. eigenvalues --    1.34070   1.35253   1.35650   1.37359   1.39215
 Alpha virt. eigenvalues --    1.39434   1.40030   1.41922   1.42338   1.43799
 Alpha virt. eigenvalues --    1.44568   1.45371   1.47124   1.47676   1.48356
 Alpha virt. eigenvalues --    1.49304   1.50230   1.52030   1.52195   1.53288
 Alpha virt. eigenvalues --    1.54397   1.54524   1.55881   1.57665   1.58138
 Alpha virt. eigenvalues --    1.58727   1.59763   1.61413   1.61714   1.62682
 Alpha virt. eigenvalues --    1.64715   1.65791   1.66779   1.67387   1.67844
 Alpha virt. eigenvalues --    1.69301   1.70143   1.70625   1.72247   1.72415
 Alpha virt. eigenvalues --    1.73223   1.74333   1.75625   1.76534   1.77826
 Alpha virt. eigenvalues --    1.78667   1.79767   1.80744   1.81695   1.83585
 Alpha virt. eigenvalues --    1.84921   1.85505   1.86281   1.87530   1.88456
 Alpha virt. eigenvalues --    1.89441   1.90527   1.91156   1.92140   1.93013
 Alpha virt. eigenvalues --    1.94026   1.94146   1.94788   1.96732   1.97297
 Alpha virt. eigenvalues --    1.98544   1.99006   1.99762   2.01808   2.02373
 Alpha virt. eigenvalues --    2.03098   2.03947   2.04865   2.06030   2.07455
 Alpha virt. eigenvalues --    2.07976   2.09152   2.10412   2.12183   2.12834
 Alpha virt. eigenvalues --    2.13625   2.14664   2.15382   2.15870   2.17677
 Alpha virt. eigenvalues --    2.18698   2.19460   2.21124   2.22256   2.22933
 Alpha virt. eigenvalues --    2.23689   2.24571   2.26071   2.26349   2.27396
 Alpha virt. eigenvalues --    2.27912   2.29185   2.30417   2.31999   2.33214
 Alpha virt. eigenvalues --    2.35156   2.36601   2.37657   2.38701   2.39794
 Alpha virt. eigenvalues --    2.41459   2.42006   2.43248   2.44943   2.46216
 Alpha virt. eigenvalues --    2.47967   2.49590   2.50006   2.52028   2.52620
 Alpha virt. eigenvalues --    2.53402   2.55635   2.57332   2.57466   2.58817
 Alpha virt. eigenvalues --    2.61050   2.61707   2.63245   2.64917   2.66410
 Alpha virt. eigenvalues --    2.66844   2.67666   2.69578   2.69931   2.71120
 Alpha virt. eigenvalues --    2.71763   2.74082   2.76825   2.77342   2.79069
 Alpha virt. eigenvalues --    2.82107   2.82331   2.84816   2.85440   2.88713
 Alpha virt. eigenvalues --    2.91157   2.93731   2.94670   2.98588   3.00590
 Alpha virt. eigenvalues --    3.02713   3.04247   3.04858   3.07756   3.09756
 Alpha virt. eigenvalues --    3.11469   3.16033   3.18153   3.26532   3.29395
 Alpha virt. eigenvalues --    3.31637   3.33883   3.40931   3.44606   3.46947
 Alpha virt. eigenvalues --    3.50687   3.53653   3.54175   3.56116   3.58185
 Alpha virt. eigenvalues --    3.60206   3.60637   3.60988   3.61739   3.62992
 Alpha virt. eigenvalues --    3.64037   3.66895   3.67929   3.70626   3.71817
 Alpha virt. eigenvalues --    3.72393   3.73273   3.75570   3.77063   3.78668
 Alpha virt. eigenvalues --    3.80202   3.84460   3.86261   3.87170   3.91690
 Alpha virt. eigenvalues --    3.93060   3.97817   4.00640   4.02021   4.07843
 Alpha virt. eigenvalues --    4.14213   4.16769   4.27180   4.35427   4.43111
 Alpha virt. eigenvalues --    4.75107
          Condensed to atoms (all electrons):
               1          2          3          4          5          6
     1  C    9.510631  -3.013408   0.963309   0.297020   0.288100   0.193988
     2  C   -3.013408  11.197835  -4.279764  -0.735829  -0.545997  -0.048931
     3  C    0.963309  -4.279764  25.779344   0.150184  -1.325807  -1.383965
     4  O    0.297020  -0.735829   0.150184   8.657849  -0.052110   0.027318
     5  H    0.288100  -0.545997  -1.325807  -0.052110   2.751516   0.154648
     6  O    0.193988  -0.048931  -1.383965   0.027318   0.154648   9.598817
     7  H   -0.380119   0.977132  -2.302329  -0.061555   0.121997   0.095916
     8  C    0.286796   0.212189  -5.534937   0.001452   0.332016   0.304169
     9  C   -2.055226   1.435995  -5.066013   0.113664   0.138293   0.123546
    10  H   -0.887481   0.392278   0.517484  -0.053150  -0.161636  -0.019249
    11  O   -0.573757   0.126070  -0.134597  -0.017588   0.002821   0.026879
    12  C   -0.049109  -0.110005   0.565570  -0.025268   0.005327  -0.014202
    13  H    0.187178   0.099555   0.642416  -0.009428  -0.002666  -0.287315
    14  O    0.006389  -0.063874  -0.089956  -0.001142   0.015327  -0.022052
    15  H    0.104128  -0.038988  -0.029663  -0.000226   0.017375   0.120638
    16  H    0.006725  -0.012769   0.009483  -0.000767  -0.002961  -0.036215
    17  H    0.166130  -0.175625  -0.015468   0.044935   0.036170   0.011786
    18  H   -0.166293   0.244610   0.043745   0.302662  -0.158620  -0.009332
    19  H    0.026605  -0.028766   0.053051   0.003294  -0.011643   0.014215
    20  C   -0.081696  -0.028688  -2.559280   0.041713   0.076686   0.120197
    21  N    0.017621  -0.040965   0.275274  -0.004474  -0.005201  -0.027325
    22  C    0.009116   0.010602  -0.568979   0.003693   0.006132   0.003124
    23  N    0.013823  -0.011558   0.579009  -0.000569   0.026061  -0.006138
    24  C   -0.057312  -0.100111  -1.612716  -0.006001  -0.212754  -0.044003
    25  H   -0.019634   0.138261   0.083531   0.006056   0.027372   0.043457
    26  H   -0.000338  -0.004956  -0.047931  -0.000882  -0.001056  -0.001338
    27  O   -0.000569  -0.000697   0.034611  -0.000065   0.000343   0.000022
    28  O    0.059111  -0.035158   0.053599  -0.003390   0.076238  -0.007776
               7          8          9         10         11         12
     1  C   -0.380119   0.286796  -2.055226  -0.887481  -0.573757  -0.049109
     2  C    0.977132   0.212189   1.435995   0.392278   0.126070  -0.110005
     3  C   -2.302329  -5.534937  -5.066013   0.517484  -0.134597   0.565570
     4  O   -0.061555   0.001452   0.113664  -0.053150  -0.017588  -0.025268
     5  H    0.121997   0.332016   0.138293  -0.161636   0.002821   0.005327
     6  O    0.095916   0.304169   0.123546  -0.019249   0.026879  -0.014202
     7  H    2.751187   0.112086   0.341206   0.009129   0.029221  -0.014015
     8  C    0.112086  15.040416   0.733534  -0.142600   0.045870  -0.134161
     9  C    0.341206   0.733534  11.146271  -0.328322   0.329231  -0.496602
    10  H    0.009129  -0.142600  -0.328322   2.145444  -0.121431  -0.043333
    11  O    0.029221   0.045870   0.329231  -0.121431   8.823674  -0.018473
    12  C   -0.014015  -0.134161  -0.496602  -0.043333  -0.018473   5.064078
    13  H    0.020655  -0.179930  -1.042117   0.075693  -0.081771  -0.039128
    14  O    0.002913   0.061536   0.072013   0.044565   0.002066   0.034839
    15  H   -0.007689   0.021250  -0.272827  -0.047199   0.007589   0.279920
    16  H    0.005388  -0.005839   0.179084   0.030325  -0.001746   0.043741
    17  H   -0.006685   0.013194  -0.087778  -0.020333   0.280183   0.009586
    18  H   -0.000258  -0.037969   0.008000   0.022577   0.006437  -0.000607
    19  H   -0.003654   0.002701  -0.063294  -0.012395  -0.000576  -0.007270
    20  C    0.254944  -4.162054   0.142934   0.002325  -0.006375  -0.064692
    21  N   -0.011120   0.266938  -0.038087   0.000522   0.000249   0.007039
    22  C   -0.003256   0.528361   0.004066   0.000646  -0.000125  -0.006440
    23  N    0.018189   0.339841   0.040908  -0.000159  -0.000810  -0.014609
    24  C   -0.170811  -3.672279  -0.274022   0.025957   0.002355   0.028280
    25  H   -0.053751   0.395750   0.028474  -0.002013   0.000800  -0.000023
    26  H   -0.001880  -0.003339  -0.001602   0.000101  -0.000061  -0.000081
    27  O    0.001655   0.052296   0.000294  -0.000058   0.000001   0.000179
    28  O    0.005093  -0.004216  -0.023468  -0.005538  -0.001035  -0.000351
              13         14         15         16         17         18
     1  C    0.187178   0.006389   0.104128   0.006725   0.166130  -0.166293
     2  C    0.099555  -0.063874  -0.038988  -0.012769  -0.175625   0.244610
     3  C    0.642416  -0.089956  -0.029663   0.009483  -0.015468   0.043745
     4  O   -0.009428  -0.001142  -0.000226  -0.000767   0.044935   0.302662
     5  H   -0.002666   0.015327   0.017375  -0.002961   0.036170  -0.158620
     6  O   -0.287315  -0.022052   0.120638  -0.036215   0.011786  -0.009332
     7  H    0.020655   0.002913  -0.007689   0.005388  -0.006685  -0.000258
     8  C   -0.179930   0.061536   0.021250  -0.005839   0.013194  -0.037969
     9  C   -1.042117   0.072013  -0.272827   0.179084  -0.087778   0.008000
    10  H    0.075693   0.044565  -0.047199   0.030325  -0.020333   0.022577
    11  O   -0.081771   0.002066   0.007589  -0.001746   0.280183   0.006437
    12  C   -0.039128   0.034839   0.279920   0.043741   0.009586  -0.000607
    13  H    2.162846   0.028071  -0.129904   0.010221  -0.009628   0.000093
    14  O    0.028071   8.521064  -0.188905  -0.051602  -0.000481  -0.001285
    15  H   -0.129904  -0.188905   1.847597  -0.391137   0.004296  -0.001504
    16  H    0.010221  -0.051602  -0.391137   1.512121  -0.000504   0.000043
    17  H   -0.009628  -0.000481   0.004296  -0.000504   0.618670  -0.014391
    18  H    0.000093  -0.001285  -0.001504   0.000043  -0.014391   0.605150
    19  H    0.006311   0.176778   0.025045  -0.055699   0.000067  -0.000739
    20  C    0.021330   0.005805  -0.007870  -0.001685   0.000540  -0.004648
    21  N   -0.002207  -0.000082   0.000261   0.000625   0.000019  -0.000448
    22  C    0.000502   0.001328  -0.000748   0.000861   0.000384  -0.000904
    23  N    0.000521  -0.009142  -0.000470  -0.000245  -0.000288  -0.000988
    24  C    0.007608   0.025557  -0.013079   0.022048  -0.000142   0.013054
    25  H   -0.000385   0.000385   0.000652  -0.000293   0.000829  -0.003884
    26  H    0.000102   0.000068  -0.000080   0.000125  -0.000010   0.000080
    27  O   -0.000019  -0.000035   0.000020   0.000007  -0.000013  -0.000015
    28  O   -0.000788  -0.047730   0.002477   0.001010   0.000558  -0.001556
              19         20         21         22         23         24
     1  C    0.026605  -0.081696   0.017621   0.009116   0.013823  -0.057312
     2  C   -0.028766  -0.028688  -0.040965   0.010602  -0.011558  -0.100111
     3  C    0.053051  -2.559280   0.275274  -0.568979   0.579009  -1.612716
     4  O    0.003294   0.041713  -0.004474   0.003693  -0.000569  -0.006001
     5  H   -0.011643   0.076686  -0.005201   0.006132   0.026061  -0.212754
     6  O    0.014215   0.120197  -0.027325   0.003124  -0.006138  -0.044003
     7  H   -0.003654   0.254944  -0.011120  -0.003256   0.018189  -0.170811
     8  C    0.002701  -4.162054   0.266938   0.528361   0.339841  -3.672279
     9  C   -0.063294   0.142934  -0.038087   0.004066   0.040908  -0.274022
    10  H   -0.012395   0.002325   0.000522   0.000646  -0.000159   0.025957
    11  O   -0.000576  -0.006375   0.000249  -0.000125  -0.000810   0.002355
    12  C   -0.007270  -0.064692   0.007039  -0.006440  -0.014609   0.028280
    13  H    0.006311   0.021330  -0.002207   0.000502   0.000521   0.007608
    14  O    0.176778   0.005805  -0.000082   0.001328  -0.009142   0.025557
    15  H    0.025045  -0.007870   0.000261  -0.000748  -0.000470  -0.013079
    16  H   -0.055699  -0.001685   0.000625   0.000861  -0.000245   0.022048
    17  H    0.000067   0.000540   0.000019   0.000384  -0.000288  -0.000142
    18  H   -0.000739  -0.004648  -0.000448  -0.000904  -0.000988   0.013054
    19  H    0.586336   0.024509  -0.002042  -0.000658   0.003792  -0.047823
    20  C    0.024509  15.303205  -0.976227  -0.454802   0.034803  -1.226396
    21  N   -0.002042  -0.976227   7.418856  -0.078743   0.049574   0.146107
    22  C   -0.000658  -0.454802  -0.078743   6.367353  -0.089581  -0.324413
    23  N    0.003792   0.034803   0.049574  -0.089581   8.687575  -1.516611
    24  C   -0.047823  -1.226396   0.146107  -0.324413  -1.516611  14.641759
    25  H   -0.002129  -1.189529   0.184246   0.019308  -0.002640  -0.089404
    26  H   -0.000182  -0.191429   0.414962  -0.196723   0.007210   0.032581
    27  O    0.000167  -0.004105  -0.089452   0.085873  -0.120609   0.048141
    28  O    0.064672  -0.122297   0.005000   0.049018  -0.259773   0.070641
              25         26         27         28
     1  C   -0.019634  -0.000338  -0.000569   0.059111
     2  C    0.138261  -0.004956  -0.000697  -0.035158
     3  C    0.083531  -0.047931   0.034611   0.053599
     4  O    0.006056  -0.000882  -0.000065  -0.003390
     5  H    0.027372  -0.001056   0.000343   0.076238
     6  O    0.043457  -0.001338   0.000022  -0.007776
     7  H   -0.053751  -0.001880   0.001655   0.005093
     8  C    0.395750  -0.003339   0.052296  -0.004216
     9  C    0.028474  -0.001602   0.000294  -0.023468
    10  H   -0.002013   0.000101  -0.000058  -0.005538
    11  O    0.000800  -0.000061   0.000001  -0.001035
    12  C   -0.000023  -0.000081   0.000179  -0.000351
    13  H   -0.000385   0.000102  -0.000019  -0.000788
    14  O    0.000385   0.000068  -0.000035  -0.047730
    15  H    0.000652  -0.000080   0.000020   0.002477
    16  H   -0.000293   0.000125   0.000007   0.001010
    17  H    0.000829  -0.000010  -0.000013   0.000558
    18  H   -0.003884   0.000080  -0.000015  -0.001556
    19  H   -0.002129  -0.000182   0.000167   0.064672
    20  C   -1.189529  -0.191429  -0.004105  -0.122297
    21  N    0.184246   0.414962  -0.089452   0.005000
    22  C    0.019308  -0.196723   0.085873   0.049018
    23  N   -0.002640   0.007210  -0.120609  -0.259773
    24  C   -0.089404   0.032581   0.048141   0.070641
    25  H    2.271868  -0.064387  -0.000258  -0.000908
    26  H   -0.064387   1.189375  -0.011500   0.001868
    27  O   -0.000258  -0.011500   8.709689  -0.010834
    28  O   -0.000908   0.001868  -0.010834   9.000442
 Mulliken charges:
               1
     1  C    1.148270
     2  C    0.441562
     3  C    1.200795
     4  O   -0.677397
     5  H   -0.595972
     6  O   -0.930878
     7  H   -0.729591
     8  C    1.126928
     9  C    0.911842
    10  H   -0.422149
    11  O   -0.725100
    12  C    0.999809
    13  H   -0.477818
    14  O   -0.522419
    15  H   -0.300960
    16  H   -0.260344
    17  H    0.143998
    18  H    0.156990
    19  H    0.249329
    20  C    1.052779
    21  N   -0.510920
    22  C    0.635008
    23  N   -0.767117
    24  C    0.303787
    25  H   -0.771749
    26  H   -0.118702
    27  O   -0.695072
    28  O   -0.864909
 Sum of Mulliken charges =  -1.00000
 Mulliken charges with hydrogens summed into heavy atoms:
               1
     1  C    0.726122
     2  C   -0.154410
     3  C    0.471203
     4  O   -0.520407
     6  O   -0.930878
     8  C    1.126928
     9  C    0.434025
    11  O   -0.581101
    12  C    0.438505
    14  O   -0.273090
    20  C    0.281030
    21  N   -0.629622
    22  C    0.635008
    23  N   -0.767117
    24  C    0.303787
    27  O   -0.695072
    28  O   -0.864909
 Electronic spatial extent (au):  <R**2>=           4210.2385
 Charge=             -1.0000 electrons
 Dipole moment (field-independent basis, Debye):
    X=             -9.1223    Y=             -7.3509    Z=             -1.1235  Tot=             11.7692
 Quadrupole moment (field-independent basis, Debye-Ang):
   XX=           -163.7733   YY=           -115.2857   ZZ=           -100.2891
   XY=            -16.5744   XZ=            -10.4904   YZ=             -8.0227
 Traceless Quadrupole moment (field-independent basis, Debye-Ang):
   XX=            -37.3240   YY=             11.1637   ZZ=             26.1603
   XY=            -16.5744   XZ=            -10.4904   YZ=             -8.0227
 Octapole moment (field-independent basis, Debye-Ang**2):
  XXX=           -251.3375  YYY=            -40.2252  ZZZ=             24.5178  XYY=              5.4589
  XXY=            -52.0405  XXZ=            -20.1439  XZZ=            -11.8176  YZZ=            -17.2229
  YYZ=            -16.2277  XYZ=             17.3364
 Hexadecapole moment (field-independent basis, Debye-Ang**3):
 XXXX=          -5457.3257 YYYY=          -1166.1014 ZZZZ=           -400.2145 XXXY=           -285.0963
 XXXZ=           -132.7601 YYYX=              3.1279 YYYZ=            -35.8221 ZZZX=            -33.8261
 ZZZY=            -41.3166 XXYY=           -894.0801 XXZZ=           -725.1735 YYZZ=           -252.5493
 XXYZ=            -47.6775 YYXZ=            -28.3205 ZZXY=             10.0352
 N-N= 1.305716039362D+03 E-N=-4.761737551442D+03  KE= 9.049168951420D+02
 Calling FoFJK, ICntrl=      2127 FMM=F ISym2X=0 I1Cent= 0 IOpClX= 0 NMat=1 NMatS=1 NMatT=0.
 ***** Axes restored to original set *****
 -------------------------------------------------------------------
 Center     Atomic                   Forces (Hartrees/Bohr)
 Number     Number              X              Y              Z
 -------------------------------------------------------------------
      1        6           0.002056225    0.001582544    0.001812923
      2        6           0.000129481    0.003912942   -0.003609605
      3        6           0.010671647   -0.004679414    0.002332423
      4        8          -0.003145005   -0.004119505    0.001898957
      5        1           0.001674071    0.000254349   -0.000869456
      6        8          -0.010729836    0.002479275   -0.001729047
      7        1          -0.002094471   -0.001284952   -0.000894927
      8        6          -0.012624802   -0.002934610   -0.001004632
      9        6           0.007126384   -0.001215583   -0.001341116
     10        1          -0.001220032    0.000102089    0.000149465
     11        8          -0.004848223   -0.003058156   -0.000787296
     12        6           0.002336175    0.000542119    0.004026139
     13        1          -0.001534738   -0.000204614   -0.000758825
     14        8          -0.009550261    0.001469075   -0.002313991
     15        1          -0.001589831    0.000155402   -0.000026663
     16        1           0.000534827    0.000012478   -0.000749676
     17        1           0.002240039    0.001065757   -0.000021898
     18        1           0.001192085    0.001224763   -0.000942284
     19        1           0.012949603   -0.003298644    0.000824571
     20        6           0.004764030   -0.001476071   -0.000518758
     21        7           0.002333399   -0.022072333   -0.010199374
     22        6          -0.068747544    0.039718542    0.016517857
     23        7          -0.000840710    0.005178713    0.003057097
     24        6           0.075400734   -0.017678920   -0.007163868
     25        1          -0.000330571   -0.001258623   -0.000564522
     26        1          -0.002418177   -0.003477384   -0.001636658
     27        8           0.031890058   -0.009160199   -0.003448041
     28        8          -0.035624554    0.018220961    0.007961206
 -------------------------------------------------------------------
 Cartesian Forces:  Max     0.075400734 RMS     0.014227517

 GradGradGradGradGradGradGradGradGradGradGradGradGradGradGradGradGradGrad
 Berny optimization.
 FormGI is forming the generalized inverse of G from B-inverse, IUseBI=4.
 Internal  Forces:  Max     0.036885616 RMS     0.007356872
 Search for a local minimum.
 Step number   1 out of a maximum of  166
 All quantities printed in internal units (Hartrees-Bohrs-Radians)
 Mixed Optimization -- RFO/linear search
 Second derivative matrix not updated -- first step.
 ITU=  0
     Eigenvalues ---    0.00537   0.00540   0.00833   0.00896   0.01429
     Eigenvalues ---    0.01446   0.01502   0.01512   0.01595   0.01692
     Eigenvalues ---    0.01933   0.01947   0.02043   0.02283   0.02463
     Eigenvalues ---    0.03114   0.03861   0.04368   0.04914   0.04934
     Eigenvalues ---    0.05246   0.05445   0.05713   0.05954   0.06089
     Eigenvalues ---    0.06144   0.06917   0.07725   0.08419   0.09751
     Eigenvalues ---    0.11644   0.12891   0.14009   0.15940   0.15999
     Eigenvalues ---    0.16000   0.16000   0.16000   0.16000   0.16809
     Eigenvalues ---    0.18178   0.20156   0.22074   0.22441   0.24449
     Eigenvalues ---    0.24999   0.24999   0.25000   0.25000   0.26668
     Eigenvalues ---    0.28062   0.29074   0.30650   0.32918   0.33018
     Eigenvalues ---    0.33259   0.33545   0.33613   0.33700   0.34111
     Eigenvalues ---    0.34895   0.36163   0.37410   0.41223   0.42679
     Eigenvalues ---    0.43323   0.44266   0.44434   0.46020   0.46732
     Eigenvalues ---    0.48268   0.50743   0.52898   0.53202   0.54082
     Eigenvalues ---    0.55310   0.93383   0.98065
 RFO step:  Lambda=-2.58305130D-02 EMin= 5.37226067D-03
 Linear search not attempted -- first point.
 Iteration  1 RMS(Cart)=  0.15095931 RMS(Int)=  0.00585032
 Iteration  2 RMS(Cart)=  0.01254271 RMS(Int)=  0.00021625
 Iteration  3 RMS(Cart)=  0.00007595 RMS(Int)=  0.00021394
 Iteration  4 RMS(Cart)=  0.00000001 RMS(Int)=  0.00021394
 Variable       Old X    -DE/DX   Delta X   Delta X   Delta X     New X
                                 (Linear)    (Quad)   (Total)
    R1        2.89753  -0.00076   0.00000  -0.00414  -0.00411   2.89342
    R2        2.88373   0.00062   0.00000  -0.00208  -0.00221   2.88152
    R3        2.08105   0.00089   0.00000   0.00245   0.00245   2.08350
    R4        2.67273   0.00297   0.00000   0.00646   0.00646   2.67919
    R5        2.89231  -0.00268   0.00000  -0.00433  -0.00421   2.88810
    R6        2.68068   0.00279   0.00000   0.00616   0.00616   2.68684
    R7        2.07143   0.00010   0.00000   0.00028   0.00028   2.07170
    R8        2.67155   0.00220   0.00000   0.00698   0.00705   2.67860
    R9        2.09019   0.00172   0.00000   0.00482   0.00482   2.09502
   R10        2.82496  -0.00467   0.00000  -0.01316  -0.01316   2.81180
   R11        1.81557  -0.00094   0.00000  -0.00163  -0.00163   1.81395
   R12        2.72703  -0.00786   0.00000  -0.01979  -0.01987   2.70715
   R13        2.55873  -0.00617   0.00000  -0.00995  -0.01000   2.54873
   R14        2.75688   0.01340   0.00000   0.03268   0.03264   2.78952
   R15        2.86686  -0.00140   0.00000  -0.00422  -0.00422   2.86264
   R16        2.07988   0.00153   0.00000   0.00422   0.00422   2.08410
   R17        1.82657  -0.00007   0.00000  -0.00013  -0.00013   1.82644
   R18        2.65938  -0.00022   0.00000  -0.00047  -0.00047   2.65891
   R19        2.07839   0.00158   0.00000   0.00435   0.00435   2.08274
   R20        2.08599   0.00075   0.00000   0.00209   0.00209   2.08808
   R21        1.83749   0.01308   0.00000   0.02357   0.02357   1.86107
   R22        2.58201  -0.01264   0.00000  -0.02160  -0.02161   2.56040
   R23        2.05845   0.00142   0.00000   0.00378   0.00378   2.06223
   R24        2.61373   0.02360   0.00000   0.04712   0.04716   2.66089
   R25        1.90808   0.00120   0.00000   0.00246   0.00246   1.91054
   R26        2.60571  -0.01825   0.00000  -0.03619  -0.03613   2.56958
   R27        2.29424   0.02945   0.00000   0.02927   0.02927   2.32350
   R28        2.63449  -0.02320   0.00000  -0.04903  -0.04901   2.58548
   R29        2.31412   0.03689   0.00000   0.03844   0.03844   2.35256
    A1        1.79096  -0.00321   0.00000  -0.01324  -0.01319   1.77777
    A2        1.95330  -0.00035   0.00000  -0.00829  -0.00834   1.94496
    A3        1.92040   0.00243   0.00000   0.01426   0.01425   1.93465
    A4        1.94713   0.00110   0.00000   0.00072   0.00064   1.94776
    A5        1.90563   0.00126   0.00000   0.01078   0.01071   1.91634
    A6        1.94077  -0.00123   0.00000  -0.00399  -0.00395   1.93682
    A7        1.76471   0.00193   0.00000   0.02308   0.02318   1.78789
    A8        1.97272  -0.00077   0.00000  -0.00004  -0.00056   1.97216
    A9        1.92006  -0.00086   0.00000  -0.01324  -0.01305   1.90702
   A10        1.91411   0.00169   0.00000   0.01306   0.01291   1.92703
   A11        1.93128  -0.00273   0.00000  -0.02511  -0.02511   1.90617
   A12        1.95260   0.00074   0.00000   0.00307   0.00316   1.95576
   A13        1.83474  -0.00055   0.00000  -0.00713  -0.00828   1.82646
   A14        1.86263   0.00081   0.00000   0.01053   0.01111   1.87373
   A15        2.02375  -0.00618   0.00000  -0.04332  -0.04389   1.97986
   A16        1.93058  -0.00041   0.00000   0.00327   0.00348   1.93406
   A17        1.92060   0.00018   0.00000  -0.02120  -0.02250   1.89810
   A18        1.89028   0.00600   0.00000   0.05751   0.05795   1.94823
   A19        1.89645  -0.00207   0.00000  -0.01116  -0.01116   1.88529
   A20        1.92273  -0.00086   0.00000   0.01137   0.01151   1.93424
   A21        2.11013   0.00478   0.00000   0.01653   0.01658   2.12671
   A22        2.11581  -0.00849   0.00000  -0.03157  -0.03152   2.08429
   A23        2.05724   0.00370   0.00000   0.01503   0.01492   2.07216
   A24        1.85751   0.00373   0.00000   0.00974   0.00905   1.86656
   A25        1.99067  -0.00054   0.00000  -0.00762  -0.00773   1.98294
   A26        1.90534  -0.00128   0.00000   0.00203   0.00183   1.90717
   A27        1.89330  -0.00646   0.00000  -0.04548  -0.04546   1.84784
   A28        1.89427   0.00129   0.00000   0.01490   0.01518   1.90945
   A29        1.91970   0.00329   0.00000   0.02649   0.02665   1.94635
   A30        1.85779  -0.00328   0.00000  -0.01763  -0.01763   1.84015
   A31        1.97002  -0.00488   0.00000  -0.02107  -0.02116   1.94885
   A32        1.89954   0.00212   0.00000   0.01441   0.01451   1.91404
   A33        1.89034  -0.00021   0.00000  -0.00851  -0.00869   1.88165
   A34        1.86981   0.00202   0.00000   0.01463   0.01473   1.88454
   A35        1.95042   0.00145   0.00000  -0.00107  -0.00137   1.94905
   A36        1.88118  -0.00025   0.00000   0.00348   0.00350   1.88468
   A37        1.89654   0.00289   0.00000   0.01554   0.01554   1.91208
   A38        2.14652  -0.01190   0.00000  -0.04134  -0.04142   2.10511
   A39        2.11880   0.00597   0.00000   0.02079   0.02083   2.13963
   A40        2.01786   0.00592   0.00000   0.02055   0.02058   2.03844
   A41        2.15461  -0.00546   0.00000  -0.01532  -0.01530   2.13931
   A42        2.11700  -0.00145   0.00000  -0.01482  -0.01483   2.10217
   A43        2.01152   0.00691   0.00000   0.03016   0.03016   2.04168
   A44        1.96896   0.02167   0.00000   0.07981   0.07990   2.04885
   A45        2.14968  -0.02880   0.00000  -0.10502  -0.10507   2.04461
   A46        2.16455   0.00713   0.00000   0.02522   0.02517   2.18972
   A47        2.23800  -0.02456   0.00000  -0.09427  -0.09417   2.14383
   A48        2.00092   0.01654   0.00000   0.05615   0.05612   2.05705
   A49        2.20921  -0.02844   0.00000  -0.10120  -0.10118   2.10803
   A50        2.07300   0.01190   0.00000   0.04504   0.04506   2.11806
    D1       -0.61335   0.00148   0.00000   0.01225   0.01246  -0.60089
    D2       -2.65788  -0.00128   0.00000  -0.01637  -0.01625  -2.67413
    D3        1.42880  -0.00099   0.00000  -0.00998  -0.00983   1.41896
    D4       -2.70310   0.00224   0.00000   0.02327   0.02328  -2.67981
    D5        1.53555  -0.00052   0.00000  -0.00535  -0.00542   1.53013
    D6       -0.66096  -0.00023   0.00000   0.00104   0.00100  -0.65996
    D7        1.41306   0.00231   0.00000   0.02389   0.02395   1.43701
    D8       -0.63147  -0.00045   0.00000  -0.00474  -0.00475  -0.63623
    D9       -2.82798  -0.00016   0.00000   0.00165   0.00166  -2.82632
   D10        0.38895  -0.00074   0.00000   0.01481   0.01468   0.40363
   D11       -1.69794   0.00508   0.00000   0.06933   0.06930  -1.62864
   D12        2.43024   0.00215   0.00000   0.03860   0.03853   2.46877
   D13        2.48299  -0.00249   0.00000  -0.00238  -0.00243   2.48057
   D14        0.39610   0.00333   0.00000   0.05214   0.05219   0.44829
   D15       -1.75891   0.00040   0.00000   0.02141   0.02143  -1.73748
   D16       -1.64805  -0.00243   0.00000   0.00061   0.00056  -1.64750
   D17        2.54824   0.00339   0.00000   0.05512   0.05518   2.60342
   D18        0.39323   0.00045   0.00000   0.02439   0.02441   0.41764
   D19        0.65213  -0.00023   0.00000  -0.02470  -0.02478   0.62735
   D20        2.60513  -0.00210   0.00000  -0.02722  -0.02712   2.57801
   D21       -1.52214  -0.00066   0.00000  -0.02150  -0.02151  -1.54365
   D22        0.64289  -0.00099   0.00000  -0.04021  -0.04034   0.60255
   D23       -1.40814  -0.00064   0.00000  -0.04538  -0.04542  -1.45356
   D24        2.76799  -0.00499   0.00000  -0.09930  -0.09913   2.66886
   D25        2.72987  -0.00014   0.00000  -0.02261  -0.02257   2.70729
   D26        0.67884   0.00022   0.00000  -0.02777  -0.02765   0.65119
   D27       -1.42822  -0.00414   0.00000  -0.08170  -0.08136  -1.50958
   D28       -1.39101   0.00010   0.00000  -0.02682  -0.02690  -1.41792
   D29        2.84115   0.00046   0.00000  -0.03199  -0.03199   2.80916
   D30        0.73409  -0.00390   0.00000  -0.08591  -0.08569   0.64840
   D31       -1.66706   0.00064   0.00000  -0.00099  -0.00093  -1.66799
   D32        2.66168  -0.00230   0.00000  -0.03702  -0.03709   2.62459
   D33        0.51189  -0.00053   0.00000  -0.01632  -0.01632   0.49558
   D34       -0.42025   0.00136   0.00000   0.05692   0.05686  -0.36340
   D35        1.58406   0.00182   0.00000   0.06691   0.06699   1.65105
   D36       -2.61117   0.00913   0.00000   0.12684   0.12672  -2.48445
   D37        2.09364   0.00209   0.00000   0.02790   0.02735   2.12099
   D38       -1.04579   0.00230   0.00000   0.03329   0.03269  -1.01310
   D39       -2.11079  -0.00274   0.00000  -0.02737  -0.02695  -2.13773
   D40        1.03298  -0.00253   0.00000  -0.02199  -0.02161   1.01137
   D41        0.00151   0.00062   0.00000  -0.00028  -0.00008   0.00143
   D42       -3.13791   0.00083   0.00000   0.00510   0.00525  -3.13266
   D43        0.01630  -0.00070   0.00000  -0.04507  -0.04532  -0.02902
   D44        2.16543  -0.00283   0.00000  -0.07438  -0.07445   2.09098
   D45       -2.03235  -0.00184   0.00000  -0.06014  -0.06032  -2.09267
   D46       -3.12895   0.00025   0.00000   0.00513   0.00508  -3.12387
   D47        0.00877   0.00020   0.00000   0.00420   0.00421   0.01299
   D48        0.01054   0.00004   0.00000  -0.00013  -0.00028   0.01027
   D49       -3.13492  -0.00001   0.00000  -0.00106  -0.00115  -3.13606
   D50       -3.14134  -0.00027   0.00000  -0.00833  -0.00841   3.13344
   D51        0.01108  -0.00036   0.00000  -0.00811  -0.00813   0.00294
   D52        0.00236  -0.00007   0.00000  -0.00311  -0.00325  -0.00088
   D53       -3.12841  -0.00016   0.00000  -0.00288  -0.00297  -3.13138
   D54        0.85175   0.00092   0.00000   0.00632   0.00638   0.85813
   D55       -1.22166   0.00000   0.00000  -0.00853  -0.00837  -1.23002
   D56        3.02085  -0.00074   0.00000  -0.01582  -0.01558   3.00526
   D57       -1.21483   0.00100   0.00000   0.03010   0.02975  -1.18508
   D58        2.99495   0.00009   0.00000   0.01525   0.01501   3.00996
   D59        0.95426  -0.00065   0.00000   0.00796   0.00780   0.96206
   D60        2.99896   0.00138   0.00000   0.02384   0.02384   3.02280
   D61        0.92556   0.00046   0.00000   0.00899   0.00910   0.93465
   D62       -1.11513  -0.00028   0.00000   0.00170   0.00188  -1.11324
   D63        1.07236  -0.00267   0.00000  -0.04740  -0.04734   1.02502
   D64       -3.12021  -0.00162   0.00000  -0.03244  -0.03248   3.13050
   D65       -1.06341   0.00013   0.00000  -0.01983  -0.01985  -1.08326
   D66       -0.01515   0.00018   0.00000   0.00333   0.00332  -0.01183
   D67        3.13852   0.00001   0.00000   0.00010   0.00016   3.13868
   D68        3.13010   0.00023   0.00000   0.00420   0.00412   3.13423
   D69        0.00059   0.00005   0.00000   0.00097   0.00097   0.00156
   D70        0.00519  -0.00008   0.00000  -0.00191  -0.00186   0.00334
   D71       -3.13684  -0.00009   0.00000  -0.00178  -0.00175  -3.13859
   D72        3.13537   0.00004   0.00000   0.00088   0.00092   3.13629
   D73       -0.00666   0.00004   0.00000   0.00101   0.00103  -0.00563
   D74        0.00911  -0.00016   0.00000  -0.00263  -0.00260   0.00651
   D75       -3.13204  -0.00014   0.00000  -0.00272  -0.00268  -3.13472
   D76       -0.01280   0.00027   0.00000   0.00522   0.00517  -0.00763
   D77        3.11888   0.00008   0.00000   0.00403   0.00392   3.12280
         Item               Value     Threshold  Converged?
 Maximum Force            0.036886     0.000450     NO 
 RMS     Force            0.007357     0.000300     NO 
 Maximum Displacement     0.681403     0.001800     NO 
 RMS     Displacement     0.158753     0.001200     NO 
 Predicted change in Energy=-1.502742D-02
 GradGradGradGradGradGradGradGradGradGradGradGradGradGradGradGradGradGrad

                          Input orientation:                          
 ---------------------------------------------------------------------
 Center     Atomic      Atomic             Coordinates (Angstroms)
 Number     Number       Type             X           Y           Z
 ---------------------------------------------------------------------
      1          6           0       -2.783398   -0.519730    0.287583
      2          6           0       -1.363152   -0.822533    0.772948
      3          6           0       -0.566872   -0.843012   -0.531380
      4          8           0       -1.258488   -2.075112    1.437510
      5          1           0       -1.010247    0.005975    1.398168
      6          8           0       -1.185786    0.139179   -1.344660
      7          1           0       -0.684098   -1.852398   -0.974627
      8          6           0        0.866466   -0.484465   -0.355431
      9          6           0       -2.519673    0.405703   -0.895273
     10          1           0       -3.378396   -0.019504    1.069471
     11          8           0       -3.425940   -1.701240   -0.161009
     12          6           0       -2.548882    1.876397   -0.533397
     13          1           0       -3.232123    0.174042   -1.704619
     14          8           0       -1.757702    2.148716    0.597805
     15          1           0       -3.583207    2.182118   -0.306651
     16          1           0       -2.209740    2.448396   -1.415863
     17          1           0       -3.115241   -2.402238    0.427388
     18          1           0       -1.334529   -1.917750    2.381365
     19          1           0       -0.828068    1.874196    0.423685
     20          6           0        1.859310   -1.324908   -0.711778
     21          7           0        3.155972   -0.981075   -0.521481
     22          6           0        3.538816    0.254387    0.035080
     23          7           0        2.547424    1.114826    0.389679
     24          6           0        1.220083    0.822096    0.233534
     25          1           0        1.670001   -2.303134   -1.156915
     26          1           0        3.898141   -1.614091   -0.787241
     27          8           0        4.743892    0.464137    0.159893
     28          8           0        0.334325    1.622707    0.586063
 ---------------------------------------------------------------------
                    Distance matrix (angstroms):
                    1          2          3          4          5
     1  C    0.000000
     2  C    1.531133   0.000000
     3  C    2.384995   1.528317   0.000000
     4  O    2.463108   1.421813   2.423413   0.000000
     5  H    2.157274   1.096297   2.154185   2.096210   0.000000
     6  O    2.377129   2.332512   1.417455   3.556521   2.751665
     7  H    2.788591   2.139102   1.108635   2.489565   3.031515
     8  C    3.706241   2.521652   1.487942   3.203159   2.614898
     9  C    1.524836   2.372565   2.346303   3.631378   2.774531
    10  H    1.102542   2.189518   3.338497   2.975733   2.390988
    11  O    1.417766   2.428887   3.007989   2.718987   3.343828
    12  C    2.543704   3.224394   3.365049   4.600437   3.097874
    13  H    2.156743   3.259533   3.084550   4.338999   3.819983
    14  O    2.875568   3.002443   3.412267   4.335325   2.406368
    15  H    2.879720   3.888715   4.277872   5.154651   3.776524
    16  H    3.469954   4.025740   3.783476   5.432195   3.914457
    17  H    1.916638   2.384259   3.137611   2.138899   3.342589
    18  H    2.904756   1.946104   3.198193   0.959899   2.184617
    19  H    3.093981   2.771398   2.891987   4.100017   2.114960
    20  C    4.816822   3.583442   2.480146   3.860428   3.802299
    21  N    6.011950   4.703527   3.725417   4.951972   4.692196
    22  C    6.374434   5.072819   4.287404   5.514299   4.755385
    23  N    5.576726   4.380966   3.792140   5.075296   3.860521
    24  C    4.222710   3.109482   2.559470   3.998336   2.645146
    25  H    5.009977   3.888003   2.743511   3.919066   4.363961
    26  H    6.855351   5.544543   4.538322   5.634969   5.611853
    27  O    7.592390   6.271152   5.512777   6.641434   5.903672
    28  O    3.794644   2.982542   2.853175   4.115323   2.254154
                    6          7          8          9         10
     6  O    0.000000
     7  H    2.086863   0.000000
     8  C    2.362043   2.158447   0.000000
     9  C    1.432563   2.911126   3.542565   0.000000
    10  H    3.265080   3.846698   4.501710   2.185961   0.000000
    11  O    3.131526   2.864004   4.465769   2.408250   2.084365
    12  C    2.352467   4.192376   4.155712   1.514843   2.617580
    13  H    2.078047   3.336432   4.364902   1.102857   2.784678
    14  O    2.852805   4.431036   3.837780   2.418259   2.747781
    15  H    3.316427   5.012819   5.187739   2.152495   2.604381
    16  H    2.527060   4.584660   4.380551   2.130650   3.692313
    17  H    3.649896   2.859795   4.488279   3.160484   2.481721
    18  H    4.258678   3.419066   3.793249   4.188001   3.082498
    19  H    2.503056   3.982902   3.006950   2.599548   3.241499
    20  C    3.437543   2.610796   1.348727   4.712130   5.684232
    21  N    4.558888   3.963671   2.348623   5.854556   6.793653
    22  C    4.923294   4.826080   2.799974   6.131373   6.999486
    23  N    4.230447   4.594398   2.436912   5.275361   6.071588
    24  C    2.957242   3.498354   1.476153   3.928532   4.749010
    25  H    3.762401   2.403783   2.143735   4.995960   5.971438
    26  H    5.406569   4.592256   3.263980   6.729009   7.677114
    27  O    6.126203   6.009704   4.024901   7.340038   8.187356
    28  O    2.870416   3.943260   2.368494   3.438133   4.088379
                   11         12         13         14         15
    11  O    0.000000
    12  C    3.702349   0.000000
    13  H    2.436592   2.176371   0.000000
    14  O    4.263915   1.407033   3.372596   0.000000
    15  H    3.889269   1.102138   2.471830   2.037554   0.000000
    16  H    4.502585   1.104964   2.510245   2.085427   1.785404
    17  H    0.966510   4.421604   3.346092   4.752171   4.666275
    18  H    3.299173   4.936197   4.967064   4.460527   5.393598
    19  H    4.458087   1.969064   3.633136   0.984834   2.866879
    20  C    5.327179   5.450902   5.399562   5.183034   6.487245
    21  N    6.630999   6.380490   6.598626   5.932334   7.447716
    22  C    7.236763   6.325674   6.991324   5.653162   7.386213
    23  N    6.626806   5.234921   6.218868   4.432421   6.261679
    24  C    5.301737   3.988087   4.898831   3.280216   5.021261
    25  H    5.227114   5.971283   5.519710   5.886183   6.959643
    26  H    7.351320   7.335669   7.408080   6.932937   8.403138
    27  O    8.458013   7.460541   8.196180   6.730549   8.515262
    28  O    5.074084   3.103294   4.479442   2.157174   4.056715
                   16         17         18         19         20
    16  H    0.000000
    17  H    5.267461   0.000000
    18  H    5.852193   2.687692   0.000000
    19  H    2.371215   4.849644   4.297425   0.000000
    20  C    5.593811   5.215792   4.485487   4.329612   0.000000
    21  N    6.430556   6.499859   5.428487   4.991842   1.354905
    22  C    6.321772   7.175516   5.828612   4.673807   2.423368
[...]
 ,0.00023774,-0.00054211,-0.00113878,0.00004296,-0.00011898,-0.02479610
 ,-0.04644000,-0.06493342,-0.01137995,0.24226382,0.16789361,-0.00062472
 ,-0.00036593,-0.00043371,0.00020069,-0.00117541,0.00103819,-0.00327060
 ,0.00138222,-0.00061948,0.00074615,0.00131717,-0.00099584,-0.00070886,
 -0.00024128,0.00040360,0.00275949,-0.00055486,0.00065295,0.00078068,0.
 00081938,0.00039349,0.00183252,0.00502714,0.00250531,-0.00179496,0.000
 33330,0.00037892,0.00031980,-0.00003552,-0.00003746,0.00124913,0.00086
 122,0.00018629,-0.00078072,-0.00021608,-0.00141343,0.00047321,0.000058
 51,0.00021971,0.00361546,-0.00067397,0.00070536,0.00052143,-0.00005338
 ,0.00006142,-0.00014707,-0.00002873,0.00031202,-0.00052944,-0.00031604
 ,0.00006681,-0.00043623,-0.00065138,0.00088860,-0.00546512,0.00137072,
 -0.00020210,-0.00304601,-0.02711176,-0.01405475,-0.12923901,-0.0149341
 8,-0.01080625,0.94995341,0.00029113,0.00009576,-0.00141245,0.00184908,
 0.00057046,0.00248214,-0.00668927,-0.00343277,-0.00489633,0.00068498,-
 0.00086727,-0.00052575,0.00060735,0.00057948,-0.00040673,0.00511804,-0
 .00298251,0.00109871,-0.00106726,-0.00027705,-0.00030862,0.01383406,-0
 .02268384,-0.01227240,-0.00134437,0.00071644,0.00135147,0.00061821,-0.
 00003206,0.00004178,0.00028099,-0.00024230,-0.00001488,0.00123146,0.00
 102500,0.00167480,0.00051205,-0.00021168,-0.00012895,-0.00427262,-0.00
 055458,-0.00097033,-0.00022776,-0.00024253,-0.00027710,0.00001610,-0.0
 0005726,-0.00018840,-0.00028494,-0.00007503,0.00005447,-0.00078761,-0.
 00015852,0.00090439,0.00626083,-0.00049076,0.00008401,-0.07349574,0.00
 280471,-0.00053788,0.02676854,-0.15081849,-0.04241243,-0.05667998,0.46
 411758,0.00014927,-0.00001152,-0.00075991,0.00112565,0.00029390,0.0014
 7330,-0.00329092,-0.00158690,-0.00223348,0.00034065,-0.00034247,-0.000
 51018,0.00030220,0.00033563,-0.00019137,0.00236898,-0.00141732,0.00025
 025,-0.00050671,0.00003769,-0.00007287,0.00668373,-0.00989393,-0.00722
 754,-0.00083544,0.00029793,0.00062755,0.00033503,-0.00002953,0.0000185
 7,0.00017790,-0.00002589,-0.00004536,0.00047281,0.00044177,0.00064998,
 0.00024806,-0.00009208,-0.00003894,-0.00137880,-0.00024198,-0.00075119
 ,-0.00006255,-0.00011462,-0.00012974,-0.00002085,-0.00000885,-0.000089
 33,-0.00013387,-0.00005346,0.00006700,-0.00031794,-0.00006046,0.000614
 46,0.00200027,-0.00039740,0.00089347,-0.03509898,0.00052092,-0.0017740
 9,0.00884433,-0.04480096,-0.08369472,0.02136481,0.11347711,0.27969610,
 0.00085055,0.00049522,-0.00043752,0.00061829,0.00179581,0.00046713,0.0
 0033275,-0.00329509,-0.00228267,-0.00009539,-0.00215479,0.00078149,0.0
 0113882,0.00100799,-0.00092004,0.00057110,-0.00164483,-0.00041681,-0.0
 0129545,-0.00091455,-0.00049358,-0.01410423,-0.02957123,-0.01725994,0.
 00075747,0.00040235,0.00047891,0.00011294,0.00004244,0.00002309,-0.000
 95680,-0.00107892,-0.00018207,0.00181485,0.00116152,0.00339525,-0.0001
 1469,-0.00026231,-0.00030480,-0.00915887,0.00091972,-0.00178816,-0.000
 81322,-0.00015101,-0.00044265,0.00012178,0.00000515,-0.00061965,0.0002
 3787,0.00023881,-0.00006278,-0.00030396,0.00030214,-0.00034379,0.01359
 206,-0.00339130,0.00073849,-0.03950051,0.00332878,0.00070180,0.0371593
 9,0.02943434,0.01463608,-0.19840983,0.10319003,0.04181498,0.69070029,-
 0.00021901,-0.00022106,0.00025578,0.00061294,-0.00057411,-0.00127939,0
 .00228307,-0.00553741,-0.00176660,-0.00024305,0.00080292,0.00034530,-0
 .00043008,-0.00035814,0.00068224,-0.00125743,0.00195945,-0.00009784,-0
 .00169915,-0.00071293,-0.00007420,-0.03280693,0.00910824,-0.00639319,0
 .00054811,-0.00046351,-0.00050328,-0.00024401,0.00000496,0.00003614,-0
 .00012879,0.00048522,0.00020479,-0.00083029,-0.00078691,-0.00142818,-0
 .00016555,0.00012891,0.00007809,0.00432403,-0.00014543,0.00093569,0.00
 028880,0.00015658,0.00023997,-0.00001037,0.00003506,0.00019488,0.00017
 753,-0.00001111,-0.00008489,0.00023453,-0.00006295,-0.00032722,-0.0059
 2127,0.00143931,-0.00072373,0.01813200,-0.00066664,0.00089223,0.012814
 80,-0.04574100,-0.03028512,0.08829400,-0.20627356,-0.06025822,-0.12099
 869,0.34164284,-0.00009894,-0.00015380,0.00012160,-0.00010542,-0.00000
 448,-0.00059814,0.00108107,-0.00397085,0.00053821,-0.00006296,0.000021
 12,0.00047938,-0.00012984,-0.00020101,-0.00000542,-0.00015298,0.001011
 15,0.00027664,-0.00109633,-0.00012704,-0.00056328,-0.01742440,-0.00673
 262,0.01667347,0.00044369,-0.00016916,-0.00013259,-0.00012364,0.000005
 67,0.00001545,-0.00013362,0.00009193,0.00011319,-0.00037471,-0.0002332
 4,-0.00061649,-0.00006145,0.00004648,0.00000717,0.00166342,-0.00008221
 ,0.00025199,0.00005179,0.00006630,0.00010237,0.00001568,-0.00001272,0.
 00009790,0.00005514,0.00001247,-0.00009194,-0.00002706,-0.00009906,-0.
 00036952,-0.00224261,0.00039636,0.00035943,0.00653568,0.00043567,-0.00
 000372,0.00734956,-0.02982165,0.00454083,0.03413431,-0.05789984,-0.096
 42260,-0.01755634,0.12644851,0.11949841,-0.00128660,-0.00057209,0.0007
 1835,0.00073604,-0.00377102,-0.00272012,-0.00376294,-0.03056403,-0.010
 78329,0.00008481,0.00374178,-0.00024118,-0.00364167,-0.00155022,0.0031
 4794,0.00048598,0.00558241,0.00100036,-0.00539957,-0.00066548,0.000155
 36,-0.12517366,-0.02542982,-0.01198977,-0.00089213,-0.00057352,-0.0011
 0669,-0.00030678,0.00005324,-0.00004733,0.00094406,0.00187006,0.000767
 41,-0.00315996,-0.00122073,-0.00375884,0.00018268,0.00028363,0.0003821
 0,0.00793946,-0.00065893,0.00132355,0.00083546,0.00016711,0.00029179,-
 0.00020560,0.00004411,0.00062706,-0.00002617,-0.00028804,-0.00014323,0
 .00060339,-0.00057784,-0.00010647,-0.01321012,0.00475844,0.00162251,0.
 05477690,0.01523730,0.00856257,-0.03008662,-0.02755236,-0.01454361,-0.
 06814622,0.04886934,0.01989102,-0.30174694,-0.04162320,-0.03414206,0.7
 3095794,0.00120710,0.00077600,-0.00109956,-0.00040674,0.00225529,0.002
 03870,-0.01692861,0.00633396,-0.00240105,0.00189601,-0.00404355,-0.000
 49905,0.00178933,0.00188140,-0.00219277,0.00497356,-0.00775583,0.00013
 524,0.00212136,0.00180835,-0.00037451,-0.03981596,-0.14904592,-0.03349
 687,-0.00138558,0.00132296,0.00155182,0.00086246,-0.00005741,-0.000107
 51,0.00024615,-0.00162643,-0.00053810,0.00350502,0.00265240,0.00507145
 ,0.00042206,-0.00047240,-0.00025236,-0.01658207,0.00172335,-0.00277128
 ,-0.00098269,-0.00056115,-0.00080521,0.00004142,-0.00012177,-0.0007580
 9,-0.00064962,0.00003197,0.00015041,-0.00211266,-0.00012651,0.00199788
 ,0.02251945,-0.00791222,0.00105079,0.03529411,-0.02991265,-0.01555384,
 -0.02798371,-0.01137990,-0.00402550,0.03105521,0.01156245,0.01762668,-
 0.06474531,-0.10851124,-0.02692601,-0.14108441,0.61326865,0.00058250,0
 .00020232,-0.00044634,-0.00037285,0.00158185,0.00206011,-0.00832829,0.
 00288679,-0.00121090,0.00068260,-0.00133142,-0.00083368,0.00161585,0.0
 0068845,-0.00099074,0.00368859,-0.00447636,0.00032662,0.00146739,-0.00
 020637,0.00170278,-0.01914167,-0.03174067,-0.10017090,-0.00146620,0.00
 077438,0.00102925,0.00036201,0.00001519,-0.00011759,0.00008905,-0.0006
 4482,-0.00038024,0.00170930,0.00115055,0.00269833,0.00039159,-0.000232
 51,-0.00013417,-0.00899299,0.00066676,-0.00064732,-0.00040318,-0.00026
 472,-0.00047399,0.00003673,0.00005216,-0.00041222,-0.00020510,0.000018
 48,0.00014509,-0.00063253,0.00017154,0.00115199,0.01212061,-0.00239116
 ,-0.00146652,0.01857521,-0.01647156,-0.00262327,-0.01381619,-0.0039993
 3,-0.00791669,0.01175616,0.01704560,-0.01103646,-0.04659379,-0.0249003
 6,-0.07580187,-0.03587002,0.17515541,0.29424611,-0.00004305,0.00006071
 ,0.00006299,-0.00028078,-0.00022254,-0.00009132,0.00106953,0.00298974,
 0.00117763,0.00001882,0.00003874,-0.00014317,0.00007966,0.00004934,-0.
 00014881,0.00026987,-0.00074886,0.00029190,-0.00024329,-0.00086930,-0.
 00032528,0.00981070,0.01564495,0.00774181,-0.00022304,0.00008608,0.000
 09477,0.00001733,-0.00000509,-0.00002618,0.00010294,-0.00001766,-0.000
 05490,0.00002868,0.00005072,0.00003988,0.00004496,0.00000686,0.0000045
 9,-0.00009660,-0.00004022,-0.00003946,0.00001124,-0.00001509,-0.000013
 83,-0.00000574,-0.00000299,0.00000364,-0.00005082,-0.00001713,0.000039
 36,0.00006206,-0.00002194,0.00005167,0.00015625,-0.00001906,0.00002006
 ,-0.07100963,-0.05058143,-0.02648510,-0.00871683,-0.03461194,-0.017386
 09,-0.00305772,0.00647992,0.00293822,0.00131216,-0.00080399,-0.0001994
 6,-0.00406503,0.00141014,-0.00000435,0.07626192,-0.00004401,-0.0000204
 9,0.00011865,-0.00019323,0.00046546,-0.00033032,-0.00244654,-0.0010867
 2,0.00261332,0.00011208,0.00000419,0.00014531,-0.00019328,-0.00002816,
 0.00018613,0.00040876,0.00009542,0.00003650,0.00108598,0.00090973,0.00
 022978,-0.00839171,-0.01323256,-0.01120476,0.00017654,-0.00001759,0.00
 012365,-0.00006720,0.00000111,-0.00000780,-0.00002353,0.00005779,0.000
 05489,-0.00011623,-0.00007164,-0.00017588,0.00005382,-0.00000229,-0.00
 001162,0.00038942,0.00003031,0.00011913,0.00002311,0.00001429,0.000025
 78,-0.00000172,-0.00000228,0.00002916,0.00002699,0.00000012,-0.0000307
 9,-0.00011803,-0.00008935,-0.00008371,-0.00059145,0.00010861,-0.000074
 55,-0.05532106,-0.26255167,-0.11329167,-0.00047728,-0.00316495,-0.0028
 9566,0.00002001,0.00444384,0.00024759,-0.00004658,-0.00044757,0.000839
 74,0.00500622,0.00335724,-0.00316779,0.06172801,0.27450724,0.00010959,
 -0.00011097,-0.00030808,0.00078260,-0.00053357,0.00074307,-0.00007607,
 0.00181236,-0.00478252,-0.00027575,0.00043241,-0.00004275,-0.00004704,
 0.00005384,-0.00000244,-0.00106256,0.00054545,0.00019821,0.00060420,0.
 00023456,0.00012737,-0.00441188,-0.00906360,0.00430954,0.00001530,0.00
 012459,-0.00022376,0.00008112,-0.00000025,0.00004841,-0.00002216,0.000
 12175,0.00001290,-0.00011212,-0.00004508,-0.00004721,-0.00005472,0.000
 01489,0.00001331,0.00018505,0.00001434,0.00003379,0.00001295,0.0000291
 4,0.00001860,-0.00000374,0.00000756,-0.00000273,0.00007688,-0.00003200
 ,0.00002097,0.00015491,-0.00022256,-0.00028440,-0.00030927,0.00006042,
 0.00000082,-0.02917797,-0.11344306,-0.09612305,-0.00071245,-0.00451650
 ,0.00104987,-0.00036031,0.00019598,0.00434195,0.00018487,0.00082177,-0
 .00181687,0.00197578,-0.00295698,0.00865937,0.03282818,0.12609715,0.08
 816959,-0.00005070,0.00003616,-0.00000345,-0.00009217,-0.00004574,-0.0
 0012728,-0.00015557,0.00110059,0.00041775,0.00002183,-0.00005124,0.000
 05644,-0.00002479,-0.00002581,0.00001630,-0.00019613,-0.00002423,0.000
 05942,-0.00000010,-0.00001208,-0.00002636,-0.00261801,-0.00500626,-0.0
 0283880,-0.00005981,-0.00002091,-0.00004490,-0.00000923,-0.00000386,-0
 .00000355,0.00002327,-0.00001179,0.00000174,-0.00003846,-0.00002196,-0
 .00004929,-0.00001986,0.00001528,0.00000992,0.00013527,-0.00001036,0.0
 0002669,0.00001641,0.00000479,0.00000522,-0.00000267,-0.00000007,0.000
 00881,-0.00001876,0.00000226,0.,-0.00003576,0.00001080,0.00000846,-0.0
 0019669,0.00003531,-0.00001211,-0.01673758,0.02306279,0.01080402,-0.25
 947895,0.18152408,0.07433851,0.01484372,-0.00411648,-0.00110196,0.0000
 0138,-0.00371509,-0.00196473,0.00018730,0.00089022,0.00036751,0.000572
 18,-0.00059108,-0.00014052,0.26648989,0.00002546,0.00005995,0.00007048
 ,0.00006484,0.00012826,-0.00018603,0.00062182,0.00096772,-0.00040431,-
 0.00007153,-0.00013166,0.00012125,-0.00000558,-0.00001511,0.00002676,-
 0.00096405,0.00021764,-0.00013628,-0.00001134,-0.00004240,-0.00002413,
 -0.00379672,0.00225413,-0.00090056,0.00017244,-0.00005275,-0.00022001,
 -0.00004017,-0.00000664,0.00000654,-0.00006951,-0.00007655,-0.00000760
 ,-0.00004866,-0.00003932,-0.00003824,-0.00009859,0.00001523,0.00000945
 ,0.00006278,0.00004195,0.00004619,-0.00001505,0.00002473,0.00001654,0.
 00000810,-0.00000343,0.00000037,0.00002279,0.00003368,-0.00000374,0.00
 004849,0.00012335,-0.00010436,-0.00005833,-0.00001694,-0.00001196,-0.0
 0777407,0.00809980,0.00773318,0.18382620,-0.22788847,-0.09812490,0.029
 69886,-0.01271711,-0.00360616,-0.00242170,-0.00506914,-0.00435482,-0.0
 0368351,-0.00180406,-0.00092389,-0.00008920,0.00027442,0.00112233,-0.1
 9372720,0.23172884,-0.00003942,0.00001420,0.00024243,-0.00068187,-0.00
 019075,-0.00033545,-0.00056220,-0.00068641,0.00220497,-0.00006821,0.00
 008301,-0.00003294,0.00004706,0.00000214,-0.00003902,0.00058233,0.0000
 5833,-0.00003547,0.00004593,-0.00007433,0.00003572,-0.00151042,-0.0011
 1493,0.00369213,0.00004512,-0.00000984,0.00016296,-0.00008486,0.000017
 19,-0.00003637,-0.00006288,-0.00002654,-0.00005924,0.00002152,-0.00001
 779,0.00004262,0.00002930,-0.00000395,-0.00003203,-0.00001848,0.000039
 84,-0.00004059,-0.00000613,-0.00000171,-0.00000209,0.00000463,0.000018
 70,-0.00001660,0.00004738,0.00002133,0.00001604,0.00009841,-0.00002956
 ,0.00000148,0.00001626,-0.00001615,-0.00000646,-0.00400840,0.00963448,
 -0.00447361,0.07484487,-0.09802865,-0.04880881,0.01545920,-0.00562404,
 -0.00316730,-0.00136924,-0.00439678,0.00122363,-0.00176103,-0.00084290
 ,-0.00072379,0.00002565,0.00104179,-0.00155866,-0.08026836,0.09616065,
 0.05385200,0.00046496,0.00027467,0.00064704,-0.00066862,0.00096442,-0.
 00123138,0.00372950,-0.00050958,0.00143490,-0.00072923,-0.00088182,0.0
 0087510,0.00042751,0.00010608,-0.00030209,-0.00305186,0.00095846,-0.00
 072968,-0.00025187,-0.00027410,-0.00008537,-0.00307935,-0.00695938,-0.
 00268661,0.00165830,-0.00032529,-0.00055000,-0.00035413,0.00004323,0.0
 0000769,-0.00103448,-0.00069315,-0.00016624,0.00044752,0.00007639,0.00
 104281,-0.00045653,-0.00002191,-0.00015312,-0.00280796,0.00075871,-0.0
 0049993,-0.00041077,0.00006824,-0.00003748,0.00010762,0.00003043,-0.00
 024629,0.00045182,0.00026889,-0.00006328,0.00049989,0.00051929,-0.0009
 2262,0.00419673,-0.00133442,0.00019867,-0.00318350,-0.00514195,-0.0028
 0474,-0.05004332,-0.04000834,-0.02447900,-0.57593552,-0.04264327,-0.05
 481950,-0.08759560,0.02748499,0.00578301,0.02750080,0.00573160,0.00379
 375,-0.00244463,-0.00077205,-0.00045164,-0.00289941,-0.00239773,-0.001
 09810,0.70894713,-0.00005448,-0.00003576,0.00035964,-0.00049798,-0.000
 11823,-0.00061716,0.00153463,0.00070882,0.00155284,-0.00021944,0.00022
 226,0.00013083,-0.00011062,-0.00012163,0.00008674,-0.00130819,0.000804
 27,-0.00030430,0.00031693,0.00018405,0.00008699,-0.00289562,0.00393875
 ,0.00331909,0.00039686,-0.00018782,-0.00032612,-0.00016852,0.00001142,
 -0.00000725,-0.00012170,0.00005547,-0.00000935,-0.00027642,-0.00025805
 ,-0.00035404,-0.00013753,0.00005056,0.00001980,0.00094428,0.00017588,0
 .00021293,0.00003822,0.00006383,0.00006901,0.00000464,0.00001880,0.000
 02717,0.00010252,0.00002433,-0.00001088,0.00022710,0.00003552,-0.00024
 226,-0.00134091,0.00009103,-0.00002523,0.01279680,-0.00423587,-0.00398
 180,-0.06848848,-0.01269129,-0.02098526,-0.04499207,-0.09521532,-0.009
 61551,0.04879697,0.01182534,0.00050812,-0.00784676,-0.00354642,-0.0068
 7950,-0.00208569,-0.00071940,-0.00033181,0.00121241,0.00326252,0.00331
 596,0.05845815,0.09716411,0.00000159,0.00002816,0.00019392,-0.00024466
 ,0.00005533,-0.00045195,0.00106351,0.00066913,0.00012732,-0.00011091,-
 0.00002674,0.00028077,-0.00005652,-0.00005550,0.00003572,-0.00094997,0
 .00040913,-0.00004598,0.00016514,0.00000020,0.00006835,-0.00151691,0.0
 0232559,-0.00053759,0.00033219,-0.00008502,-0.00022925,-0.00010213,0.0
 0001007,0.00000395,-0.00010514,-0.00004701,0.00002956,-0.00009458,-0.0
 0009903,-0.00013863,-0.00009836,0.00002327,0.00000604,0.00018754,0.000
 09018,0.00020127,-0.00001150,0.00003498,0.00003499,0.00001200,-0.00000
 750,0.00002367,0.00005180,0.00002916,-0.00003874,0.00008380,0.00004611
 ,-0.00028170,-0.00023320,0.00003566,-0.00023846,0.00552611,-0.00465405
 ,0.00214442,-0.03820823,-0.01918649,0.00956743,-0.05572304,-0.00981577
 ,-0.09053670,0.01603102,-0.00012232,0.01825363,-0.00251762,-0.00642608
 ,0.00728230,-0.00123164,-0.00040257,-0.00031806,0.00063811,0.00307784,
 -0.00181143,0.07514228,0.03360363,0.05774665,0.00143456,0.00101435,-0.
 00096317,-0.00087678,0.00243107,0.00279235,-0.00780590,0.00560112,-0.0
 0136263,0.00083179,-0.00463564,0.00026062,0.00013169,-0.00058457,-0.00
 224326,0.00318703,-0.00704677,-0.00139009,0.00089434,-0.00026532,-0.00
 022076,0.01244495,0.01669076,0.00593693,-0.00052984,0.00133890,0.00131
 344,0.00060859,0.00002611,-0.00013571,-0.00068106,-0.00201864,-0.00054
 245,0.00341443,0.00358166,0.00900102,0.00014219,-0.00061000,-0.0004467
 8,-0.03221914,0.00605699,-0.00536393,-0.00187813,-0.00063911,-0.001700
 96,0.00000606,0.00002936,-0.00153146,-0.00017222,0.00021098,0.00006160
 ,-0.00134418,0.00025423,0.00076809,0.00996251,-0.00835870,-0.00186914,
 -0.00530913,-0.00290892,-0.00142353,0.00342690,0.01175688,0.00605025,0
 .01429635,-0.02500277,-0.01149039,-0.09522623,0.05590209,0.01878323,-0
 .26412480,0.19871215,0.07858832,0.00041886,0.00036404,0.00020677,0.000
 34341,0.00072117,0.00027193,-0.01348498,0.00571489,0.00196933,0.372108
 70,-0.00023746,-0.00127032,0.00061261,-0.00137454,-0.00082086,0.000425
 91,0.00829627,-0.00103684,0.00411357,-0.00132885,0.00056551,0.00007291
 ,-0.00144584,-0.00302185,0.00024815,-0.00452261,0.00426797,-0.00146088
 ,-0.00013758,0.00041931,0.00016984,0.03008553,-0.05006730,-0.03034535,
 0.00207222,-0.00130244,-0.00073529,-0.00068920,-0.00007754,0.00014086,
 -0.00062315,0.00115892,-0.00004378,-0.00229939,-0.00314226,-0.00618798
 ,-0.00040202,0.00055202,0.00020394,0.02357220,0.00153095,0.00370827,0.
 00125206,0.00063154,0.00119103,-0.00018674,0.00005986,0.00083968,0.000
 58021,0.00002718,0.00000614,0.00082875,0.00014944,-0.00098835,-0.02490
 192,0.00045927,-0.00072026,-0.01298398,-0.00272033,-0.00289496,0.00607
 026,-0.00189441,-0.00034378,-0.01220718,0.01141690,-0.00072193,0.03955
 505,0.00799388,0.00090498,0.20204833,-0.32009654,-0.10277901,0.0016069
 3,-0.00283509,-0.00043215,-0.00051051,0.00063138,0.00065672,0.00621944
 ,-0.00150717,0.00048965,-0.25833631,0.35992883,-0.00085691,0.00058258,
 0.00025408,0.00154240,-0.00159237,-0.00188298,0.00313333,0.00195476,-0
 .00106727,-0.00034440,0.00178374,0.00079305,-0.00121368,-0.00012371,0.
 00109038,-0.00387690,-0.00130815,-0.00116137,-0.00013860,0.00014957,0.
 00010449,0.01298137,-0.03222174,0.00819254,0.00192076,-0.00013132,-0.0
 0084757,-0.00022463,-0.00000408,0.00006141,0.00053616,0.00044931,0.000
 60231,0.00035281,-0.00094260,-0.00139007,-0.00035432,0.00012726,0.0001
 3446,0.00393954,0.00006983,0.00549696,0.00023172,0.00017099,0.00038000
 ,0.00021749,-0.00014412,0.00051908,-0.00004759,-0.00011978,-0.00012858
 ,0.00056067,-0.00031951,-0.00076872,-0.00802866,0.00138533,-0.00824178
 ,-0.00603535,-0.00251482,0.00139603,0.00276547,0.00002106,-0.00052817,
 -0.00588075,-0.00071855,0.01004916,0.01182073,0.00150591,0.01386914,0.
 07926547,-0.10275072,-0.11391524,0.00082923,-0.00023148,-0.00223725,-0
 .00017757,0.00065542,-0.00029410,0.00240183,0.00039773,-0.00137147,-0.
 09531964,0.13386946,0.09089147\\0.00004594,0.00002977,0.00002576,-0.00
 001235,0.00001528,-0.00000795,0.00001296,-0.00001945,-0.00002193,-0.00
 001695,-0.00000606,0.00000596,-0.00000283,0.00000036,0.00000057,-0.000
 01002,0.00000056,-0.00001075,-0.00000154,0.00001272,0.00000140,-0.0000
 0709,-0.00000268,-0.00000208,0.00000602,-0.00000792,0.00002103,-0.0000
 0660,-0.00000348,-0.00000603,-0.00000359,-0.00003202,-0.00000990,0.000
 00799,-0.00000759,0.00001515,-0.00000593,0.00000660,-0.00000598,-0.000
 02052,0.00000713,-0.00000597,-0.00000421,0.00000130,-0.00000421,-0.000
 00163,0.00000142,-0.00000397,-0.00000734,0.00000555,-0.00000549,0.0000
 0152,0.00000330,-0.00000710,0.00002143,0.00000352,0.00000414,0.0000073
 8,0.00000501,0.00000238,-0.00001255,-0.00004471,0.00001422,-0.00000914
 ,0.00003851,0.00001993,0.00001211,-0.00001358,-0.00001561,-0.00000759,
 0.00000753,0.00000725,-0.00000155,-0.00000051,-0.00000171,0.00000328,0
 .00000822,-0.00001270,0.00001396,-0.00000589,0.00000172,-0.00000117,-0
 .00000289,0.00000187\\\@
 The archive entry for this job was punched.


 A BIRD IN THE HAND IS SAFER THAN ONE OVERHEAD.

                       -- NEWTON'S SEVENTH LAW
 Job cpu time:       0 days  9 hours 51 minutes 42.2 seconds.
 Elapsed time:       0 days  0 hours 14 minutes 54.9 seconds.
 File lengths (MBytes):  RWF=    600 Int=      0 D2E=      0 Chk=     20 Scr=      1
 Normal termination of Gaussian 16 at Sun Oct 27 01:15:42 2024.
