 Entering Gaussian System, Link 0=g16
 Input=PseudoUridineSallgPBE0aVDZ.gjf
 Output=PseudoUridineSallgPBE0aVDZ.log
 Initial command:
 /sw/contrib/chem-src/g16/c01/g16/l1.exe "/scr/Gau-12711.inp" -scrdir="/scr/"
 Entering Link 1 = /sw/contrib/chem-src/g16/c01/g16/l1.exe PID=     12712.
  
 Copyright (c) 1988-2019, Gaussian, Inc.  All Rights Reserved.
  
 This is part of the Gaussian(R) 16 program.  It is based on
 the Gaussian(R) 09 system (copyright 2009, Gaussian, Inc.),
 the Gaussian(R) 03 system (copyright 2003, Gaussian, Inc.),
 the Gaussian(R) 98 system (copyright 1998, Gaussian, Inc.),
 the Gaussian(R) 94 system (copyright 1995, Gaussian, Inc.),
 the Gaussian 92(TM) system (copyright 1992, Gaussian, Inc.),
 the Gaussian 90(TM) system (copyright 1990, Gaussian, Inc.),
 the Gaussian 88(TM) system (copyright 1988, Gaussian, Inc.),
 the Gaussian 86(TM) system (copyright 1986, Carnegie Mellon
 University), and the Gaussian 82(TM) system (copyright 1983,
 Carnegie Mellon University). Gaussian is a federally registered
 trademark of Gaussian, Inc.
  
 This software contains proprietary and confidential information,
 including trade secrets, belonging to Gaussian, Inc.
  
 This software is provided under written license and may be
 used, copied, transmitted, or stored only in accord with that
 written license.
  
 The following legend is applicable only to US Government
 contracts under FAR:
  
                    RESTRICTED RIGHTS LEGEND
  
 Use, reproduction and disclosure by the US Government is
 subject to restrictions as set forth in subparagraphs (a)
 and (c) of the Commercial Computer Software - Restricted
 Rights clause in FAR 52.227-19.
  
 Gaussian, Inc.
 340 Quinnipiac St., Bldg. 40, Wallingford CT 06492
  
  
 ---------------------------------------------------------------
 Warning -- This program may not be used in any manner that
 competes with the business of Gaussian, Inc. or will provide
 assistance to any competitor of Gaussian, Inc.  The licensee
 of this program is prohibited from giving any competitor of
 Gaussian, Inc. access to this program.  By using this program,
 the user acknowledges that Gaussian, Inc. is engaged in the
 business of creating and licensing software in the field of
 computational chemistry and represents and warrants to the
 licensee that it is not a competitor of Gaussian, Inc. and that
 it will not use this program in any manner prohibited above.
 ---------------------------------------------------------------
  

 Cite this work as:
 Gaussian 16, Revision C.01,
 M. J. Frisch, G. W. Trucks, H. B. Schlegel, G. E. Scuseria, 
 M. A. Robb, J. R. Cheeseman, G. Scalmani, V. Barone, 
 G. A. Petersson, H. Nakatsuji, X. Li, M. Caricato, A. V. Marenich, 
 J. Bloino, B. G. Janesko, R. Gomperts, B. Mennucci, H. P. Hratchian, 
 J. V. Ortiz, A. F. Izmaylov, J. L. Sonnenberg, D. Williams-Young, 
 F. Ding, F. Lipparini, F. Egidi, J. Goings, B. Peng, A. Petrone, 
 T. Henderson, D. Ranasinghe, V. G. Zakrzewski, J. Gao, N. Rega, 
 G. Zheng, W. Liang, M. Hada, M. Ehara, K. Toyota, R. Fukuda, 
 J. Hasegawa, M. Ishida, T. Nakajima, Y. Honda, O. Kitao, H. Nakai, 
 T. Vreven, K. Throssell, J. A. Montgomery, Jr., J. E. Peralta, 
 F. Ogliaro, M. J. Bearpark, J. J. Heyd, E. N. Brothers, K. N. Kudin, 
 V. N. Staroverov, T. A. Keith, R. Kobayashi, J. Normand, 
 K. Raghavachari, A. P. Rendell, J. C. Burant, S. S. Iyengar, 
 J. Tomasi, M. Cossi, J. M. Millam, M. Klene, C. Adamo, R. Cammi, 
 J. W. Ochterski, R. L. Martin, K. Morokuma, O. Farkas, 
 J. B. Foresman, and D. J. Fox, Gaussian, Inc., Wallingford CT, 2019.
 
 ******************************************
 Gaussian 16:  EM64L-G16RevC.01  3-Jul-2019
                24-Oct-2024 
 ******************************************
 %nprocshared=40
 Will use up to   40 processors via shared memory.
 %mem=50gb
 ------------------------------------------------------
 # PBE1PBE/aug-cc-pVDZ opt freq EmpiricalDispersion=GD3
 ------------------------------------------------------
 1/18=20,19=15,26=3,38=1/1,3;
 2/9=110,12=2,17=6,18=5,40=1/2;
 3/5=16,7=10,11=2,25=1,30=1,71=1,74=-13,124=31/1,2,3;
 4//1;
 5/5=2,38=5/2;
 6/7=2,8=2,9=2,10=2,28=1/1;
 7//1,2,3,16;
 1/18=20,19=15,26=3/3(2);
 2/9=110/2;
 99//99;
 2/9=110/2;
 3/5=16,7=10,11=2,25=1,30=1,71=1,74=-13,124=31/1,2,3;
 4/5=5,16=3,69=1/1;
 5/5=2,38=5/2;
 7//1,2,3,16;
 1/18=20,19=15,26=3/3(-5);
 2/9=110/2;
 6/7=2,8=2,9=2,10=2,19=2,28=1/1;
 99/9=1/99;
 ----
 blah
 ----
 Symbolic Z-matrix:
 Charge =  0 Multiplicity = 1
 C                    -2.72379  -0.53444   0.24456 
 C                    -1.33101  -0.73294   0.84779 
 C                    -0.47613  -0.71251  -0.42208 
 O                    -1.22186  -1.97487   1.5173 
 H                    -1.08602   0.11257   1.49725 
 O                    -1.05648   0.23422  -1.27211 
 H                    -0.51796  -1.72409  -0.85838 
 C                     0.9431   -0.42569  -0.2529 
 C                    -2.45412   0.40199  -0.93199 
 H                    -3.42076  -0.0864    0.96855 
 O                    -3.21639  -1.7603   -0.2618 
 C                    -2.71347   1.8665   -0.63424 
 H                    -3.05538   0.08024  -1.79492 
 O                    -2.13814   2.29233   0.57706 
 H                    -3.79919   2.01947  -0.54831 
 H                    -2.35595   2.46307  -1.49146 
 H                    -3.08687  -2.42365   0.4279 
 H                    -0.87096  -1.82894   2.39821 
 H                    -1.17677   2.17573   0.5204 
 C                     1.86897  -1.3164   -0.74935 
 N                     3.20296  -1.13434  -0.67065 
 C                     3.72344   0.06445  -0.05079 
 N                     2.71657   0.92352   0.40407 
 C                     1.35708   0.76091   0.33651 
 H                     1.43796  -2.20081  -1.21499 
 H                     3.90138  -1.86311  -1.06967 
 H                     3.02302   1.78756   0.83532 
 O                     4.87213   0.35932   0.09024 
 O                     0.59402   1.60234   0.78097 
 

 GradGradGradGradGradGradGradGradGradGradGradGradGradGradGradGradGradGrad
 Berny optimization.
 Initialization pass.
                           ----------------------------
                           !    Initial Parameters    !
                           ! (Angstroms and Degrees)  !
 --------------------------                            --------------------------
 ! Name  Definition              Value          Derivative Info.                !
 --------------------------------------------------------------------------------
 ! R1    R(1,2)                  1.5307         estimate D2E/DX2                !
 ! R2    R(1,9)                  1.5277         estimate D2E/DX2                !
 ! R3    R(1,10)                 1.1003         estimate D2E/DX2                !
 ! R4    R(1,11)                 1.4148         estimate D2E/DX2                !
 ! R5    R(2,3)                  1.5309         estimate D2E/DX2                !
 ! R6    R(2,4)                  1.4151         estimate D2E/DX2                !
 ! R7    R(2,5)                  1.0939         estimate D2E/DX2                !
 ! R8    R(3,6)                  1.3984         estimate D2E/DX2                !
 ! R9    R(3,7)                  1.1025         estimate D2E/DX2                !
 ! R10   R(3,8)                  1.4578         estimate D2E/DX2                !
 ! R11   R(4,18)                 0.9594         estimate D2E/DX2                !
 ! R12   R(6,9)                  1.4482         estimate D2E/DX2                !
 ! R13   R(8,20)                 1.3773         estimate D2E/DX2                !
 ! R14   R(8,24)                 1.3881         estimate D2E/DX2                !
 ! R15   R(9,12)                 1.5168         estimate D2E/DX2                !
 ! R16   R(9,13)                 1.0998         estimate D2E/DX2                !
 ! R17   R(11,17)                0.9657         estimate D2E/DX2                !
 ! R18   R(12,14)                1.407          estimate D2E/DX2                !
 ! R19   R(12,15)                1.0998         estimate D2E/DX2                !
 ! R20   R(12,16)                1.1039         estimate D2E/DX2                !
 ! R21   R(14,19)                0.9701         estimate D2E/DX2                !
 ! R22   R(20,21)                1.3487         estimate D2E/DX2                !
 ! R23   R(20,25)                1.0885         estimate D2E/DX2                !
 ! R24   R(21,22)                1.4464         estimate D2E/DX2                !
 ! R25   R(21,26)                1.0854         estimate D2E/DX2                !
 ! R26   R(22,23)                1.3995         estimate D2E/DX2                !
 ! R27   R(22,28)                1.1943         estimate D2E/DX2                !
 ! R28   R(23,24)                1.3709         estimate D2E/DX2                !
 ! R29   R(23,27)                1.0131         estimate D2E/DX2                !
 ! R30   R(24,29)                1.2198         estimate D2E/DX2                !
 ! A1    A(2,1,9)              102.8488         estimate D2E/DX2                !
 ! A2    A(2,1,10)             111.7066         estimate D2E/DX2                !
 ! A3    A(2,1,11)             110.2103         estimate D2E/DX2                !
 ! A4    A(9,1,10)             111.652          estimate D2E/DX2                !
 ! A5    A(9,1,11)             108.4769         estimate D2E/DX2                !
 ! A6    A(10,1,11)            111.5767         estimate D2E/DX2                !
 ! A7    A(1,2,3)              100.3391         estimate D2E/DX2                !
 ! A8    A(1,2,4)              111.7427         estimate D2E/DX2                !
 ! A9    A(1,2,5)              109.7247         estimate D2E/DX2                !
 ! A10   A(3,2,4)              111.1659         estimate D2E/DX2                !
 ! A11   A(3,2,5)              110.9206         estimate D2E/DX2                !
 ! A12   A(4,2,5)              112.3433         estimate D2E/DX2                !
 ! A13   A(2,3,6)              106.3483         estimate D2E/DX2                !
 ! A14   A(2,3,7)              107.1474         estimate D2E/DX2                !
 ! A15   A(2,3,8)              116.7439         estimate D2E/DX2                !
 ! A16   A(6,3,7)              111.4002         estimate D2E/DX2                !
 ! A17   A(6,3,8)              109.9603         estimate D2E/DX2                !
 ! A18   A(7,3,8)              105.2723         estimate D2E/DX2                !
 ! A19   A(2,4,18)             109.2159         estimate D2E/DX2                !
 ! A20   A(3,6,9)              109.645          estimate D2E/DX2                !
 ! A21   A(3,8,20)             119.0368         estimate D2E/DX2                !
 ! A22   A(3,8,24)             120.5193         estimate D2E/DX2                !
 ! A23   A(20,8,24)            120.3569         estimate D2E/DX2                !
 ! A24   A(1,9,6)              106.2732         estimate D2E/DX2                !
 ! A25   A(1,9,12)             114.2343         estimate D2E/DX2                !
 ! A26   A(1,9,13)             109.1738         estimate D2E/DX2                !
 ! A27   A(6,9,12)             108.8426         estimate D2E/DX2                !
 ! A28   A(6,9,13)             108.0253         estimate D2E/DX2                !
 ! A29   A(12,9,13)            110.0593         estimate D2E/DX2                !
 ! A30   A(1,11,17)            107.0302         estimate D2E/DX2                !
 ! A31   A(9,12,14)            113.0359         estimate D2E/DX2                !
 ! A32   A(9,12,15)            108.5674         estimate D2E/DX2                !
 ! A33   A(9,12,16)            108.2999         estimate D2E/DX2                !
 ! A34   A(14,12,15)           107.1162         estimate D2E/DX2                !
 ! A35   A(14,12,16)           111.873          estimate D2E/DX2                !
 ! A36   A(15,12,16)           107.772          estimate D2E/DX2                !
 ! A37   A(12,14,19)           108.5773         estimate D2E/DX2                !
 ! A38   A(8,20,21)            123.8191         estimate D2E/DX2                !
 ! A39   A(8,20,25)            114.4229         estimate D2E/DX2                !
 ! A40   A(21,20,25)           121.7571         estimate D2E/DX2                !
 ! A41   A(20,21,22)           119.5254         estimate D2E/DX2                !
 ! A42   A(20,21,26)           121.6262         estimate D2E/DX2                !
 ! A43   A(22,21,26)           118.8463         estimate D2E/DX2                !
 ! A44   A(21,22,23)           112.9006         estimate D2E/DX2                !
 ! A45   A(21,22,28)           126.9651         estimate D2E/DX2                !
 ! A46   A(23,22,28)           120.1341         estimate D2E/DX2                !
 ! A47   A(22,23,24)           128.6556         estimate D2E/DX2                !
 ! A48   A(22,23,27)           116.3743         estimate D2E/DX2                !
 ! A49   A(24,23,27)           114.9678         estimate D2E/DX2                !
 ! A50   A(8,24,23)            114.7148         estimate D2E/DX2                !
 ! A51   A(8,24,29)            123.9072         estimate D2E/DX2                !
 ! A52   A(23,24,29)           121.3731         estimate D2E/DX2                !
 ! D1    D(9,1,2,3)            -35.0219         estimate D2E/DX2                !
 ! D2    D(9,1,2,4)           -152.9198         estimate D2E/DX2                !
 ! D3    D(9,1,2,5)             81.7861         estimate D2E/DX2                !
 ! D4    D(10,1,2,3)          -154.898          estimate D2E/DX2                !
 ! D5    D(10,1,2,4)            87.204          estimate D2E/DX2                !
 ! D6    D(10,1,2,5)           -38.09           estimate D2E/DX2                !
 ! D7    D(11,1,2,3)            80.4683         estimate D2E/DX2                !
 ! D8    D(11,1,2,4)           -37.4297         estimate D2E/DX2                !
 ! D9    D(11,1,2,5)          -162.7237         estimate D2E/DX2                !
 ! D10   D(2,1,9,6)             22.7777         estimate D2E/DX2                !
 ! D11   D(2,1,9,12)           -97.2465         estimate D2E/DX2                !
 ! D12   D(2,1,9,13)           139.0597         estimate D2E/DX2                !
 ! D13   D(10,1,9,6)           142.6916         estimate D2E/DX2                !
 ! D14   D(10,1,9,12)           22.6674         estimate D2E/DX2                !
 ! D15   D(10,1,9,13)         -101.0265         estimate D2E/DX2                !
 ! D16   D(11,1,9,6)           -93.954          estimate D2E/DX2                !
 ! D17   D(11,1,9,12)          146.0218         estimate D2E/DX2                !
 ! D18   D(11,1,9,13)           22.3279         estimate D2E/DX2                !
 ! D19   D(2,1,11,17)           48.5675         estimate D2E/DX2                !
 ! D20   D(9,1,11,17)          160.4596         estimate D2E/DX2                !
 ! D21   D(10,1,11,17)         -76.1407         estimate D2E/DX2                !
 ! D22   D(1,2,3,6)             36.8438         estimate D2E/DX2                !
 ! D23   D(1,2,3,7)            -82.3949         estimate D2E/DX2                !
 ! D24   D(1,2,3,8)            159.9493         estimate D2E/DX2                !
 ! D25   D(4,2,3,6)            155.1661         estimate D2E/DX2                !
 ! D26   D(4,2,3,7)             35.9274         estimate D2E/DX2                !
 ! D27   D(4,2,3,8)            -81.7284         estimate D2E/DX2                !
 ! D28   D(5,2,3,6)            -79.0704         estimate D2E/DX2                !
 ! D29   D(5,2,3,7)            161.6908         estimate D2E/DX2                !
 ! D30   D(5,2,3,8)             44.035          estimate D2E/DX2                !
 ! D31   D(1,2,4,18)          -129.0844         estimate D2E/DX2                !
 ! D32   D(3,2,4,18)           119.7162         estimate D2E/DX2                !
 ! D33   D(5,2,4,18)            -5.2523         estimate D2E/DX2                !
 ! D34   D(2,3,6,9)            -23.8092         estimate D2E/DX2                !
 ! D35   D(7,3,6,9)             92.6118         estimate D2E/DX2                !
 ! D36   D(8,3,6,9)           -151.072          estimate D2E/DX2                !
 ! D37   D(2,3,8,20)           124.951          estimate D2E/DX2                !
 ! D38   D(2,3,8,24)           -58.4281         estimate D2E/DX2                !
 ! D39   D(6,3,8,20)          -113.8275         estimate D2E/DX2                !
 ! D40   D(6,3,8,24)            62.7934         estimate D2E/DX2                !
 ! D41   D(7,3,8,20)             6.277          estimate D2E/DX2                !
 ! D42   D(7,3,8,24)          -177.1021         estimate D2E/DX2                !
 ! D43   D(3,6,9,1)              0.4015         estimate D2E/DX2                !
 ! D44   D(3,6,9,12)           123.8668         estimate D2E/DX2                !
 ! D45   D(3,6,9,13)          -116.65           estimate D2E/DX2                !
 ! D46   D(3,8,20,21)          178.6172         estimate D2E/DX2                !
 ! D47   D(3,8,20,25)           -1.7443         estimate D2E/DX2                !
 ! D48   D(24,8,20,21)           1.9906         estimate D2E/DX2                !
 ! D49   D(24,8,20,25)        -178.3709         estimate D2E/DX2                !
 ! D50   D(3,8,24,23)         -178.3643         estimate D2E/DX2                !
 ! D51   D(3,8,24,29)            2.4348         estimate D2E/DX2                !
 ! D52   D(20,8,24,23)          -1.7881         estimate D2E/DX2                !
 ! D53   D(20,8,24,29)         179.011          estimate D2E/DX2                !
 ! D54   D(1,9,12,14)           47.5902         estimate D2E/DX2                !
 ! D55   D(1,9,12,15)          -71.1085         estimate D2E/DX2                !
 ! D56   D(1,9,12,16)          172.133          estimate D2E/DX2                !
 ! D57   D(6,9,12,14)          -70.9851         estimate D2E/DX2                !
 ! D58   D(6,9,12,15)          170.3162         estimate D2E/DX2                !
 ! D59   D(6,9,12,16)           53.5577         estimate D2E/DX2                !
 ! D60   D(13,9,12,14)         170.8064         estimate D2E/DX2                !
 ! D61   D(13,9,12,15)          52.1077         estimate D2E/DX2                !
 ! D62   D(13,9,12,16)         -64.6508         estimate D2E/DX2                !
 ! D63   D(9,12,14,19)          61.0955         estimate D2E/DX2                !
 ! D64   D(15,12,14,19)       -179.3672         estimate D2E/DX2                !
 ! D65   D(16,12,14,19)        -61.4771         estimate D2E/DX2                !
 ! D66   D(8,20,21,22)          -0.8764         estimate D2E/DX2                !
 ! D67   D(8,20,21,26)         179.6574         estimate D2E/DX2                !
 ! D68   D(25,20,21,22)        179.5107         estimate D2E/DX2                !
 ! D69   D(25,20,21,26)          0.0446         estimate D2E/DX2                !
 ! D70   D(20,21,22,23)         -0.2482         estimate D2E/DX2                !
 ! D71   D(20,21,22,28)        179.9405         estimate D2E/DX2                !
 ! D72   D(26,21,22,23)        179.2328         estimate D2E/DX2                !
 ! D73   D(26,21,22,28)         -0.5785         estimate D2E/DX2                !
 ! D74   D(21,22,23,24)          0.3112         estimate D2E/DX2                !
 ! D75   D(21,22,23,27)       -179.1015         estimate D2E/DX2                !
 ! D76   D(28,22,23,24)       -179.8632         estimate D2E/DX2                !
 ! D77   D(28,22,23,27)          0.7242         estimate D2E/DX2                !
 ! D78   D(22,23,24,8)           0.6983         estimate D2E/DX2                !
 ! D79   D(22,23,24,29)        179.9214         estimate D2E/DX2                !
 ! D80   D(27,23,24,8)        -179.8822         estimate D2E/DX2                !
 ! D81   D(27,23,24,29)         -0.659          estimate D2E/DX2                !
 --------------------------------------------------------------------------------
 Trust Radius=3.00D-01 FncErr=1.00D-07 GrdErr=1.00D-06 EigMax=2.50D+02 EigMin=1.00D-04
 Number of steps in this run=    173 maximum allowed number of steps=    174.
 GradGradGradGradGradGradGradGradGradGradGradGradGradGradGradGradGradGrad

                          Input orientation:                          
 ---------------------------------------------------------------------
 Center     Atomic      Atomic             Coordinates (Angstroms)
 Number     Number       Type             X           Y           Z
 ---------------------------------------------------------------------
      1          6           0       -2.723786   -0.534437    0.244558
      2          6           0       -1.331013   -0.732940    0.847786
      3          6           0       -0.476127   -0.712509   -0.422078
      4          8           0       -1.221857   -1.974871    1.517297
      5          1           0       -1.086023    0.112572    1.497249
      6          8           0       -1.056484    0.234216   -1.272106
      7          1           0       -0.517958   -1.724091   -0.858380
      8          6           0        0.943096   -0.425685   -0.252900
      9          6           0       -2.454123    0.401986   -0.931990
     10          1           0       -3.420761   -0.086403    0.968553
     11          8           0       -3.216388   -1.760302   -0.261795
     12          6           0       -2.713466    1.866497   -0.634241
     13          1           0       -3.055378    0.080242   -1.794916
     14          8           0       -2.138137    2.292331    0.577056
     15          1           0       -3.799190    2.019467   -0.548307
     16          1           0       -2.355954    2.463073   -1.491461
     17          1           0       -3.086869   -2.423647    0.427900
     18          1           0       -0.870961   -1.828935    2.398211
     19          1           0       -1.176774    2.175728    0.520401
     20          6           0        1.868966   -1.316400   -0.749350
     21          7           0        3.202958   -1.134340   -0.670646
     22          6           0        3.723439    0.064447   -0.050793
     23          7           0        2.716573    0.923520    0.404073
     24          6           0        1.357080    0.760905    0.336509
     25          1           0        1.437961   -2.200810   -1.214988
     26          1           0        3.901378   -1.863109   -1.069665
     27          1           0        3.023017    1.787560    0.835324
     28          8           0        4.872130    0.359319    0.090241
     29          8           0        0.594019    1.602340    0.780974
 ---------------------------------------------------------------------
                    Distance matrix (angstroms):
                    1          2          3          4          5
     1  C    0.000000
     2  C    1.530720   0.000000
     3  C    2.351188   1.530948   0.000000
     4  O    2.439366   1.415116   2.431223   0.000000
     5  H    2.161047   1.093944   2.176361   2.091954   0.000000
     6  O    2.381385   2.346209   1.398446   3.562048   2.772183
     7  H    2.738143   2.134114   1.102455   2.490423   3.040562
     8  C    3.702069   2.545091   1.457766   3.196967   2.733142
     9  C    1.527701   2.391032   2.326924   3.628627   2.802973
    10  H    1.100308   2.190808   3.316132   2.950019   2.402106
    11  O    1.414848   2.416874   2.938127   2.681299   3.337716
    12  C    2.556732   3.296157   3.420814   4.648669   3.204383
    13  H    2.155745   3.258615   3.027486   4.307673   3.836373
    14  O    2.905883   3.142771   3.576256   4.464598   2.589411
    15  H    2.882283   3.951799   4.303763   5.183059   3.896386
    16  H    3.483408   4.091098   3.842089   5.480342   4.008736
    17  H    1.932500   2.473424   3.235186   2.206004   3.402837
    18  H    3.122004   1.953630   3.058812   0.959393   2.151147
    19  H    3.132783   2.931095   3.117866   4.268876   2.284531
    20  C    4.763685   3.623691   2.443615   3.889018   3.977578
    21  N    6.026921   4.798297   3.711522   5.007252   4.964868
    22  C    6.481713   5.195263   4.286942   5.574377   5.052690
    23  N    5.634589   4.395872   3.681365   5.015094   4.038862
    24  C    4.282503   3.117502   2.471245   3.940767   2.781439
    25  H    4.714574   3.751919   2.550976   3.819825   4.367890
    26  H    6.883702   5.686107   4.572286   5.740418   5.946977
    27  H    6.226268   5.030969   4.480560   5.713137   4.486417
    28  O    7.649873   6.343965   5.478607   6.679941   6.127001
    29  O    3.982636   3.027168   2.819765   4.078727   2.356905
                    6          7          8          9         10
     6  O    0.000000
     7  H    2.072715   0.000000
     8  C    2.339353   2.046251   0.000000
     9  C    1.448178   2.876518   3.561924   0.000000
    10  H    3.273096   3.800786   4.544261   2.187459   0.000000
    11  O    3.108700   2.763829   4.368362   2.388660   2.087454
    12  C    2.411805   4.214596   4.332432   1.516808   2.623554
    13  H    2.071863   3.251341   4.315272   1.099849   2.792496
    14  O    2.970726   4.562576   4.191710   2.439359   2.730709
    15  H    3.351633   4.987670   5.343717   2.138379   2.622739
    16  H    2.589313   4.616423   4.556609   2.137925   3.699366
    17  H    3.751895   2.956890   4.549281   3.199042   2.422086
    18  H    4.214527   3.277345   3.505468   4.309716   3.403207
    19  H    2.645188   4.188516   3.443718   2.624351   3.217694
    20  C    3.352006   2.423944   1.377342   4.655675   5.696077
    21  N    4.514150   3.772037   2.404928   5.867807   6.903535
    22  C    4.936405   4.673384   2.830439   6.249217   7.218131
    23  N    4.185771   4.366443   2.323185   5.365926   6.245434
    24  C    2.947937   3.334476   1.388086   4.032763   4.893381
    25  H    3.486384   2.044517   2.078839   4.690731   5.731121
    26  H    5.387035   4.426567   3.388912   6.748482   7.805430
    27  H    4.847315   5.266767   3.226260   5.919652   6.712061
    28  O    6.084415   5.856068   4.021354   7.397348   8.351176
    29  O    2.968343   3.871578   2.302962   3.696791   4.359529
                   11         12         13         14         15
    11  O    0.000000
    12  C    3.680396   0.000000
    13  H    2.400830   2.157493   0.000000
    14  O    4.276696   1.406975   3.370596   0.000000
    15  H    3.835153   1.099810   2.422372   2.024844   0.000000
    16  H    4.482111   1.103877   2.501832   2.086950   1.780240
    17  H    0.965651   4.435415   3.348337   4.812773   4.604524
    18  H    3.547023   5.123164   5.098916   4.680510   5.662746
    19  H    4.501576   1.946855   3.644298   0.970064   2.836128
    20  C    5.127922   5.580570   5.224268   5.553302   6.580001
    21  N    6.462739   6.634035   6.473481   6.467312   7.680595
    22  C    7.178818   6.709809   6.999612   6.302042   7.788425
    23  N    6.545709   5.608264   6.233946   5.046957   6.675575
    24  C    5.256526   4.328283   4.947329   3.823568   5.380892
    25  H    4.771330   5.840770   5.072436   6.015664   6.758916
    26  H    7.164204   7.606295   7.259412   7.513662   8.639731
    27  H    7.260934   5.922254   6.839589   5.192206   6.964964
    28  O    8.369041   7.767736   8.153348   7.288166   8.851871
    29  O    5.187864   3.607225   4.719120   2.825305   4.608825
                   16         17         18         19         20
    16  H    0.000000
    17  H    5.300775   0.000000
    18  H    5.979639   3.024245   0.000000
    19  H    2.349600   4.981091   4.433624   0.000000
    20  C    5.717088   5.212697   4.204406   4.804556   0.000000
    21  N    6.672078   6.513911   5.147539   5.617579   1.348657
    22  C    6.692380   7.266365   5.539948   5.366177   2.415324
    23  N    5.629725   6.699555   4.941963   4.091419   2.658207
    24  C    4.474983   5.467944   3.990245   2.907913   2.399232
    25  H    6.018474   4.819007   4.304024   5.385397   1.088469
    26  H    7.618922   7.168856   5.899369   6.680430   2.128894
    27  H    5.899456   7.431754   5.539379   4.229432   3.671184
    28  O    7.692383   8.438281   6.564928   6.330373   3.540048
    29  O    3.821932   5.466459   4.066358   1.879463   3.533614
                   21         22         23         24         25
    21  N    0.000000
    22  C    1.446447   0.000000
    23  N    2.371999   1.399532   0.000000
    24  C    2.830827   2.496940   1.370850   0.000000
    25  H    2.132811   3.422009   3.744015   3.344464   0.000000
    26  H    1.085408   2.187518   3.367635   3.916150   2.490700
    27  H    3.292085   2.060319   1.013139   2.019451   4.756393
    28  O    2.365608   1.194291   2.250164   3.546477   4.477879
    29  O    4.050084   3.584720   2.260108   1.219764   4.377220
                   26         27         28         29
    26  H    0.000000
    27  H    4.210450   0.000000
    28  O    2.688295   2.452395   0.000000
    29  O    5.135448   2.436656   4.508264   0.000000
 Stoichiometry    C9H12N2O6
 Framework group  C1[X(C9H12N2O6)]
 Deg. of freedom    81
 Full point group                 C1      NOp   1
 Largest Abelian subgroup         C1      NOp   1
 Largest concise Abelian subgroup C1      NOp   1
                         Standard orientation:                         
 ---------------------------------------------------------------------
 Center     Atomic      Atomic             Coordinates (Angstroms)
 Number     Number       Type             X           Y           Z
 ---------------------------------------------------------------------
      1          6           0       -2.739092   -0.543102    0.243035
      2          6           0       -1.346847   -0.730987    0.850864
      3          6           0       -0.488700   -0.711670   -0.416816
      4          8           0       -1.232534   -1.969159    1.526449
      5          1           0       -1.108326    0.118897    1.497021
      6          8           0       -1.072070    0.227823   -1.272784
      7          1           0       -0.523706   -1.725489   -0.848502
      8          6           0        0.928440   -0.416111   -0.245225
      9          6           0       -2.471529    0.389336   -0.937152
     10          1           0       -3.440494   -0.095620    0.963085
     11          8           0       -3.223475   -1.774051   -0.258894
     12          6           0       -2.739855    1.853739   -0.646926
     13          1           0       -3.068668    0.060216   -1.800155
     14          8           0       -2.170154    2.288420    0.563888
     15          1           0       -3.826643    2.001018   -0.564579
     16          1           0       -2.383397    2.448316   -1.505972
     17          1           0       -3.092091   -2.433445    0.434228
     18          1           0       -0.884814   -1.817163    2.407597
     19          1           0       -1.208006    2.176946    0.510321
     20          6           0        1.860600   -1.303921   -0.735063
     21          7           0        3.193338   -1.114021   -0.653681
     22          6           0        3.705448    0.090534   -0.038053
     23          7           0        2.692581    0.946056    0.410135
     24          6           0        1.334204    0.775510    0.339734
     25          1           0        1.435794   -2.192889   -1.197708
     26          1           0        3.896887   -1.840712   -1.047447
     27          1           0        2.993035    1.813796    0.838159
     28          8           0        4.852091    0.392494    0.104641
     29          8           0        0.565264    1.614712    0.778249
 ---------------------------------------------------------------------
 Rotational constants (GHZ):           0.9340033           0.3062703           0.2651313
 Standard basis: Aug-CC-pVDZ (5D, 7F)
 There are   533 symmetry adapted cartesian basis functions of A   symmetry.
 There are   499 symmetry adapted basis functions of A   symmetry.
   499 basis functions,   863 primitive gaussians,   533 cartesian basis functions
    64 alpha electrons       64 beta electrons
       nuclear repulsion energy      1333.5640065225 Hartrees.
 NAtoms=   29 NActive=   29 NUniq=   29 SFac= 1.00D+00 NAtFMM=   60 NAOKFM=F Big=F
 Integral buffers will be    131072 words long.
 Raffenetti 2 integral format.
 Two-electron integral symmetry is turned on.
 Nuclear repulsion after empirical dispersion term =     1333.5434507632 Hartrees.
 One-electron integrals computed using PRISM.
 NBasis=   499 RedAO= T EigKep=  1.95D-06  NBF=   499
 NBsUse=   499 1.00D-06 EigRej= -1.00D+00 NBFU=   499
 ExpMin= 2.97D-02 ExpMax= 1.17D+04 ExpMxC= 4.01D+02 IAcc=3 IRadAn=         5 AccDes= 0.00D+00
 Harris functional with IExCor= 1009 and IRadAn=       5 diagonalized for initial guess.
 HarFok:  IExCor= 1009 AccDes= 0.00D+00 IRadAn=         5 IDoV= 1 UseB2=F ITyADJ=14
 ICtDFT=  3500011 ScaDFX=  1.000000  1.000000  1.000000  1.000000
 FoFCou: FMM=F IPFlag=           0 FMFlag=      100000 FMFlg1=           0
         NFxFlg=           0 DoJE=T BraDBF=F KetDBF=T FulRan=T
         wScrn=  0.000000 ICntrl=       500 IOpCl=  0 I1Cent=   200000004 NGrid=           0
         NMat0=    1 NMatS0=      1 NMatT0=    0 NMatD0=    1 NMtDS0=    0 NMtDT0=    0
 Petite list used in FoFCou.
 Requested convergence on RMS density matrix=1.00D-08 within 128 cycles.
 Requested convergence on MAX density matrix=1.00D-06.
 Requested convergence on             energy=1.00D-06.
 No special actions if energy rises.
 SCF Done:  E(RPBE1PBE) =  -910.211691766     A.U. after   14 cycles
            NFock= 14  Conv=0.94D-08     -V/T= 2.0052

 **********************************************************************

            Population analysis using the SCF Density.

 **********************************************************************

 Orbital symmetries:
       Occupied  (A) (A) (A) (A) (A) (A) (A) (A) (A) (A) (A) (A)
                 (A) (A) (A) (A) (A) (A) (A) (A) (A) (A) (A) (A)
                 (A) (A) (A) (A) (A) (A) (A) (A) (A) (A) (A) (A)
                 (A) (A) (A) (A) (A) (A) (A) (A) (A) (A) (A) (A)
                 (A) (A) (A) (A) (A) (A) (A) (A) (A) (A) (A) (A)
                 (A) (A) (A) (A)
       Virtual   (A) (A) (A) (A) (A) (A) (A) (A) (A) (A) (A) (A)
                 (A) (A) (A) (A) (A) (A) (A) (A) (A) (A) (A) (A)
                 (A) (A) (A) (A) (A) (A) (A) (A) (A) (A) (A) (A)
                 (A) (A) (A) (A) (A) (A) (A) (A) (A) (A) (A) (A)
                 (A) (A) (A) (A) (A) (A) (A) (A) (A) (A) (A) (A)
                 (A) (A) (A) (A) (A) (A) (A) (A) (A) (A) (A) (A)
                 (A) (A) (A) (A) (A) (A) (A) (A) (A) (A) (A) (A)
                 (A) (A) (A) (A) (A) (A) (A) (A) (A) (A) (A) (A)
                 (A) (A) (A) (A) (A) (A) (A) (A) (A) (A) (A) (A)
                 (A) (A) (A) (A) (A) (A) (A) (A) (A) (A) (A) (A)
                 (A) (A) (A) (A) (A) (A) (A) (A) (A) (A) (A) (A)
                 (A) (A) (A) (A) (A) (A) (A) (A) (A) (A) (A) (A)
                 (A) (A) (A) (A) (A) (A) (A) (A) (A) (A) (A) (A)
                 (A) (A) (A) (A) (A) (A) (A) (A) (A) (A) (A) (A)
                 (A) (A) (A) (A) (A) (A) (A) (A) (A) (A) (A) (A)
                 (A) (A) (A) (A) (A) (A) (A) (A) (A) (A) (A) (A)
                 (A) (A) (A) (A) (A) (A) (A) (A) (A) (A) (A) (A)
                 (A) (A) (A) (A) (A) (A) (A) (A) (A) (A) (A) (A)
                 (A) (A) (A) (A) (A) (A) (A) (A) (A) (A) (A) (A)
                 (A) (A) (A) (A) (A) (A) (A) (A) (A) (A) (A) (A)
                 (A) (A) (A) (A) (A) (A) (A) (A) (A) (A) (A) (A)
                 (A) (A) (A) (A) (A) (A) (A) (A) (A) (A) (A) (A)
                 (A) (A) (A) (A) (A) (A) (A) (A) (A) (A) (A) (A)
                 (A) (A) (A) (A) (A) (A) (A) (A) (A) (A) (A) (A)
                 (A) (A) (A) (A) (A) (A) (A) (A) (A) (A) (A) (A)
                 (A) (A) (A) (A) (A) (A) (A) (A) (A) (A) (A) (A)
                 (A) (A) (A) (A) (A) (A) (A) (A) (A) (A) (A) (A)
                 (A) (A) (A) (A) (A) (A) (A) (A) (A) (A) (A) (A)
                 (A) (A) (A) (A) (A) (A) (A) (A) (A) (A) (A) (A)
                 (A) (A) (A) (A) (A) (A) (A) (A) (A) (A) (A) (A)
                 (A) (A) (A) (A) (A) (A) (A) (A) (A) (A) (A) (A)
                 (A) (A) (A) (A) (A) (A) (A) (A) (A) (A) (A) (A)
                 (A) (A) (A) (A) (A) (A) (A) (A) (A) (A) (A) (A)
                 (A) (A) (A) (A) (A) (A) (A) (A) (A) (A) (A) (A)
                 (A) (A) (A) (A) (A) (A) (A) (A) (A) (A) (A) (A)
                 (A) (A) (A) (A) (A) (A) (A) (A) (A) (A) (A) (A)
                 (A) (A) (A)
 The electronic state is 1-A.
 Alpha  occ. eigenvalues --  -19.25152 -19.23601 -19.23246 -19.22521 -19.21710
 Alpha  occ. eigenvalues --  -19.20294 -14.50219 -14.47142 -10.41503 -10.35929
 Alpha  occ. eigenvalues --  -10.33148 -10.29051 -10.28914 -10.28242 -10.27811
 Alpha  occ. eigenvalues --  -10.26720 -10.25777  -1.14205  -1.10734  -1.09635
 Alpha  occ. eigenvalues --   -1.07589  -1.05175  -1.03710  -1.03325  -0.97873
 Alpha  occ. eigenvalues --   -0.86383  -0.79983  -0.78057  -0.73223  -0.70998
 Alpha  occ. eigenvalues --   -0.69144  -0.64832  -0.61654  -0.61165  -0.58925
 Alpha  occ. eigenvalues --   -0.56857  -0.55585  -0.53190  -0.52737  -0.51922
 Alpha  occ. eigenvalues --   -0.51293  -0.50017  -0.49122  -0.48021  -0.47633
 Alpha  occ. eigenvalues --   -0.45363  -0.44401  -0.43447  -0.43134  -0.41516
 Alpha  occ. eigenvalues --   -0.40787  -0.39507  -0.39125  -0.37158  -0.35256
 Alpha  occ. eigenvalues --   -0.33978  -0.33668  -0.32321  -0.31528  -0.30439
 Alpha  occ. eigenvalues --   -0.29131  -0.28561  -0.26986  -0.25905
 Alpha virt. eigenvalues --   -0.06240  -0.02750  -0.01551  -0.01100   0.00391
 Alpha virt. eigenvalues --    0.01203   0.01891   0.02515   0.03168   0.03452
 Alpha virt. eigenvalues --    0.04137   0.04352   0.04985   0.05386   0.05878
 Alpha virt. eigenvalues --    0.06102   0.06558   0.06978   0.07711   0.08292
 Alpha virt. eigenvalues --    0.08434   0.08811   0.09130   0.09591   0.10091
 Alpha virt. eigenvalues --    0.10218   0.10484   0.10678   0.11027   0.11441
 Alpha virt. eigenvalues --    0.11609   0.11745   0.12409   0.12804   0.13210
 Alpha virt. eigenvalues --    0.13401   0.13736   0.14075   0.14568   0.14822
 Alpha virt. eigenvalues --    0.15298   0.15552   0.15884   0.16165   0.16618
 Alpha virt. eigenvalues --    0.16905   0.17118   0.17871   0.18061   0.18700
 Alpha virt. eigenvalues --    0.18754   0.19379   0.19704   0.19844   0.20299
 Alpha virt. eigenvalues --    0.20778   0.21168   0.21703   0.22161   0.22680
 Alpha virt. eigenvalues --    0.23031   0.23372   0.23745   0.24214   0.24483
 Alpha virt. eigenvalues --    0.24822   0.25067   0.25608   0.25677   0.26140
 Alpha virt. eigenvalues --    0.26218   0.26553   0.26635   0.27168   0.27388
 Alpha virt. eigenvalues --    0.27627   0.28215   0.28671   0.29106   0.29401
 Alpha virt. eigenvalues --    0.29551   0.29923   0.29992   0.30324   0.30462
 Alpha virt. eigenvalues --    0.31248   0.31748   0.32185   0.32738   0.32852
 Alpha virt. eigenvalues --    0.33646   0.33998   0.34362   0.34898   0.35140
 Alpha virt. eigenvalues --    0.35397   0.36152   0.36359   0.36866   0.36975
 Alpha virt. eigenvalues --    0.37858   0.38015   0.38619   0.39362   0.39746
 Alpha virt. eigenvalues --    0.40076   0.40375   0.40678   0.40919   0.42324
 Alpha virt. eigenvalues --    0.42654   0.43040   0.43770   0.43903   0.44422
 Alpha virt. eigenvalues --    0.44655   0.45169   0.46196   0.46282   0.46615
 Alpha virt. eigenvalues --    0.47231   0.47471   0.48005   0.48485   0.49321
 Alpha virt. eigenvalues --    0.49708   0.50119   0.50491   0.52026   0.52300
 Alpha virt. eigenvalues --    0.52587   0.53058   0.53908   0.54237   0.54562
 Alpha virt. eigenvalues --    0.55082   0.55354   0.56175   0.56629   0.57559
 Alpha virt. eigenvalues --    0.58046   0.58490   0.58717   0.59718   0.59973
 Alpha virt. eigenvalues --    0.60130   0.61115   0.62230   0.62649   0.63060
 Alpha virt. eigenvalues --    0.63481   0.63787   0.64301   0.64912   0.65287
 Alpha virt. eigenvalues --    0.65757   0.66189   0.66426   0.67113   0.67629
 Alpha virt. eigenvalues --    0.67891   0.68371   0.68993   0.69425   0.70128
 Alpha virt. eigenvalues --    0.70447   0.70740   0.71619   0.72027   0.72532
 Alpha virt. eigenvalues --    0.73317   0.74024   0.74310   0.74561   0.74873
 Alpha virt. eigenvalues --    0.76116   0.76504   0.76769   0.77199   0.78447
 Alpha virt. eigenvalues --    0.79373   0.79679   0.80386   0.80794   0.81595
 Alpha virt. eigenvalues --    0.82261   0.83110   0.83810   0.84712   0.85061
 Alpha virt. eigenvalues --    0.85522   0.86206   0.86906   0.87146   0.87993
 Alpha virt. eigenvalues --    0.88372   0.89105   0.89411   0.90913   0.91227
 Alpha virt. eigenvalues --    0.92246   0.92873   0.93654   0.94600   0.95297
 Alpha virt. eigenvalues --    0.96178   0.96907   0.98078   0.98692   0.99407
 Alpha virt. eigenvalues --    1.00349   1.00967   1.02425   1.03906   1.04312
 Alpha virt. eigenvalues --    1.05637   1.06494   1.07037   1.07258   1.08004
 Alpha virt. eigenvalues --    1.08921   1.10210   1.10725   1.12088   1.12866
 Alpha virt. eigenvalues --    1.13570   1.14344   1.14697   1.16608   1.17524
 Alpha virt. eigenvalues --    1.18242   1.19420   1.19839   1.20155   1.21355
 Alpha virt. eigenvalues --    1.21917   1.23403   1.24093   1.24865   1.25397
 Alpha virt. eigenvalues --    1.26169   1.26719   1.27265   1.28859   1.30167
 Alpha virt. eigenvalues --    1.31215   1.32264   1.33686   1.34926   1.35412
 Alpha virt. eigenvalues --    1.36054   1.37800   1.38267   1.39641   1.40306
 Alpha virt. eigenvalues --    1.41392   1.41926   1.42611   1.43943   1.46081
 Alpha virt. eigenvalues --    1.46928   1.47621   1.48864   1.49761   1.51318
 Alpha virt. eigenvalues --    1.51468   1.52975   1.53885   1.54155   1.54900
 Alpha virt. eigenvalues --    1.56019   1.56995   1.58237   1.58792   1.59865
 Alpha virt. eigenvalues --    1.60561   1.61710   1.62018   1.63299   1.64028
 Alpha virt. eigenvalues --    1.65500   1.66374   1.67923   1.68100   1.68548
 Alpha virt. eigenvalues --    1.70520   1.71539   1.73507   1.74058   1.74691
 Alpha virt. eigenvalues --    1.75933   1.77047   1.77792   1.78174   1.79557
 Alpha virt. eigenvalues --    1.80429   1.81531   1.81728   1.82863   1.84412
 Alpha virt. eigenvalues --    1.84711   1.86456   1.87443   1.87886   1.88723
 Alpha virt. eigenvalues --    1.89431   1.90737   1.92151   1.93040   1.93912
 Alpha virt. eigenvalues --    1.95059   1.95712   1.96496   1.97513   1.99152
 Alpha virt. eigenvalues --    1.99532   2.00625   2.01306   2.02419   2.03159
 Alpha virt. eigenvalues --    2.04098   2.04638   2.06370   2.07555   2.08106
 Alpha virt. eigenvalues --    2.09615   2.10126   2.12095   2.12277   2.13726
 Alpha virt. eigenvalues --    2.14955   2.15715   2.16841   2.17494   2.17868
 Alpha virt. eigenvalues --    2.19656   2.20165   2.22083   2.23289   2.24031
 Alpha virt. eigenvalues --    2.26382   2.28093   2.29342   2.30857   2.31384
 Alpha virt. eigenvalues --    2.31908   2.33784   2.35397   2.37813   2.38376
 Alpha virt. eigenvalues --    2.39704   2.40768   2.41803   2.42497   2.42706
 Alpha virt. eigenvalues --    2.45182   2.45928   2.46690   2.47918   2.48088
 Alpha virt. eigenvalues --    2.49566   2.51180   2.52204   2.53160   2.54421
 Alpha virt. eigenvalues --    2.56129   2.57090   2.57887   2.59346   2.60775
 Alpha virt. eigenvalues --    2.63603   2.64310   2.65874   2.67853   2.70786
 Alpha virt. eigenvalues --    2.73534   2.74170   2.77864   2.79376   2.81539
 Alpha virt. eigenvalues --    2.82025   2.85420   2.86360   2.89970   2.91898
 Alpha virt. eigenvalues --    2.92236   2.93729   2.94254   2.98076   2.99837
 Alpha virt. eigenvalues --    3.01589   3.13576   3.15137   3.18202   3.21160
 Alpha virt. eigenvalues --    3.23640   3.30935   3.33016   3.34554   3.37245
 Alpha virt. eigenvalues --    3.41137   3.42582   3.44131   3.44990   3.46522
 Alpha virt. eigenvalues --    3.48724   3.49753   3.50250   3.51786   3.53332
 Alpha virt. eigenvalues --    3.53902   3.56484   3.57983   3.58064   3.58905
 Alpha virt. eigenvalues --    3.62389   3.64833   3.66062   3.67747   3.70255
 Alpha virt. eigenvalues --    3.71969   3.74160   3.77938   3.78958   3.81661
 Alpha virt. eigenvalues --    3.83691   3.89007   3.92139   3.97765   4.02951
 Alpha virt. eigenvalues --    4.09759   4.15039   4.22652   4.40285   4.72417
          Condensed to atoms (all electrons):
               1          2          3          4          5          6
     1  C    9.086828  -2.469804   0.474329   0.317186   0.241755   0.220996
     2  C   -2.469804  10.476396  -2.886464  -0.937126  -0.918188  -0.176469
     3  C    0.474329  -2.886464  23.635241   0.358919  -0.798787  -1.192036
     4  O    0.317186  -0.937126   0.358919   8.664173  -0.044521   0.007741
     5  H    0.241755  -0.918188  -0.798787  -0.044521   2.722900   0.131391
     6  O    0.220996  -0.176469  -1.192036   0.007741   0.131391   9.599397
     7  H   -0.195848   0.544441  -2.332676  -0.025337   0.143168   0.119364
     8  C    0.345631   0.143995  -5.242078  -0.009585   0.314616   0.300716
     9  C   -1.795903   0.899320  -4.001109   0.049593  -0.035807   0.088572
    10  H   -0.869366   0.442969   0.460573  -0.022880  -0.161001  -0.031131
    11  O   -0.476343   0.092995  -0.124556  -0.011329   0.002487   0.029535
    12  C   -0.048534  -0.032341   0.337976  -0.017541   0.047993  -0.000659
    13  H    0.169498   0.109183   0.609075  -0.006635  -0.004231  -0.293711
    14  O   -0.018055  -0.041392  -0.077975  -0.000395   0.020731  -0.026726
    15  H    0.120629  -0.042421  -0.024427  -0.000453   0.016096   0.124490
    16  H   -0.010025  -0.011546   0.012819   0.000153  -0.000105  -0.048581
    17  H    0.150125  -0.129124  -0.039161   0.031867   0.031233   0.011475
    18  H   -0.110359   0.302843  -0.054429   0.273157  -0.175484  -0.005854
    19  H    0.030101  -0.028908  -0.007554   0.002994  -0.005894   0.021772
    20  C   -0.082888  -0.157184  -2.729058   0.009182  -0.025930   0.013506
    21  N    0.007856   0.006670   0.308528  -0.000288   0.003337  -0.016279
    22  C    0.001010  -0.032678  -0.747710   0.007528   0.007776   0.003239
    23  N    0.026599  -0.045125   0.565696  -0.004218  -0.010775  -0.026628
    24  C   -0.163501   0.091043  -1.710825   0.016262  -0.052420   0.007228
    25  H   -0.022160   0.108967   0.067637  -0.003905   0.019688   0.038161
    26  H   -0.001248  -0.001144   0.004429  -0.000541  -0.000806  -0.000620
    27  H   -0.000735  -0.004859  -0.024486   0.000898   0.001054  -0.001758
    28  O   -0.000481   0.000620   0.034547  -0.000184   0.000204   0.000135
    29  O    0.077134  -0.022333   0.036352  -0.012438   0.052270   0.003281
               7          8          9         10         11         12
     1  C   -0.195848   0.345631  -1.795903  -0.869366  -0.476343  -0.048534
     2  C    0.544441   0.143995   0.899320   0.442969   0.092995  -0.032341
     3  C   -2.332676  -5.242078  -4.001109   0.460573  -0.124556   0.337976
     4  O   -0.025337  -0.009585   0.049593  -0.022880  -0.011329  -0.017541
     5  H    0.143168   0.314616  -0.035807  -0.161001   0.002487   0.047993
     6  O    0.119364   0.300716   0.088572  -0.031131   0.029535  -0.000659
     7  H    2.862493   0.346074   0.301624   0.000613   0.021014  -0.000878
     8  C    0.346074  16.075631   0.659590  -0.171293   0.023648  -0.120761
     9  C    0.301624   0.659590  10.425084  -0.245363   0.301591  -0.354231
    10  H    0.000613  -0.171293  -0.245363   2.083928  -0.110867  -0.061701
    11  O    0.021014   0.023648   0.301591  -0.110867   8.762114  -0.013222
    12  C   -0.000878  -0.120761  -0.354231  -0.061701  -0.013222   5.001756
    13  H    0.006751  -0.153044  -1.012541   0.077002  -0.085399  -0.044460
    14  O    0.003519   0.044111   0.092612   0.037480   0.002199   0.037525
    15  H   -0.005442   0.018846  -0.243793  -0.044855   0.005690   0.253869
    16  H    0.006537  -0.015810   0.188145   0.025676  -0.000605   0.055002
    17  H    0.000008   0.014011  -0.065200  -0.038974   0.286388   0.009306
    18  H   -0.003735  -0.024293   0.027347   0.013108   0.003264  -0.003362
    19  H   -0.003820   0.029005  -0.032334  -0.012596  -0.000496  -0.012999
    20  C    0.087648  -3.769564   0.059433   0.009755  -0.015007  -0.064043
    21  N    0.006001   0.506611  -0.022734   0.000116   0.000765   0.005961
    22  C   -0.007785  -0.145545   0.006138   0.000271  -0.000169  -0.011507
    23  N   -0.011491  -0.316884  -0.002811   0.001122  -0.001121  -0.014830
    24  C   -0.055020  -4.421761  -0.097754   0.033017   0.004111   0.017816
    25  H   -0.069477   0.363953   0.006774  -0.001720   0.001820   0.002655
    26  H   -0.002350   0.057922  -0.000018   0.000078  -0.000043  -0.000211
    27  H    0.002481   0.190941   0.000696   0.000122   0.000028  -0.000350
    28  O    0.001153   0.054657   0.000436  -0.000057   0.000005   0.000307
    29  O    0.000201  -0.169668  -0.038867  -0.006170  -0.001305   0.004156
              13         14         15         16         17         18
     1  C    0.169498  -0.018055   0.120629  -0.010025   0.150125  -0.110359
     2  C    0.109183  -0.041392  -0.042421  -0.011546  -0.129124   0.302843
     3  C    0.609075  -0.077975  -0.024427   0.012819  -0.039161  -0.054429
     4  O   -0.006635  -0.000395  -0.000453   0.000153   0.031867   0.273157
     5  H   -0.004231   0.020731   0.016096  -0.000105   0.031233  -0.175484
     6  O   -0.293711  -0.026726   0.124490  -0.048581   0.011475  -0.005854
     7  H    0.006751   0.003519  -0.005442   0.006537   0.000008  -0.003735
     8  C   -0.153044   0.044111   0.018846  -0.015810   0.014011  -0.024293
     9  C   -1.012541   0.092612  -0.243793   0.188145  -0.065200   0.027347
    10  H    0.077002   0.037480  -0.044855   0.025676  -0.038974   0.013108
    11  O   -0.085399   0.002199   0.005690  -0.000605   0.286388   0.003264
    12  C   -0.044460   0.037525   0.253869   0.055002   0.009306  -0.003362
    13  H    2.159751   0.027529  -0.136977   0.015039  -0.010065   0.000623
    14  O    0.027529   8.464249  -0.185858  -0.050531  -0.000601  -0.001529
    15  H   -0.136977  -0.185858   1.794048  -0.378483   0.003969  -0.001048
    16  H    0.015039  -0.050531  -0.378483   1.492713  -0.000754  -0.000090
    17  H   -0.010065  -0.000601   0.003969  -0.000754   0.609361  -0.011576
    18  H    0.000623  -0.001529  -0.001048  -0.000090  -0.011576   0.630424
    19  H    0.005568   0.190724   0.027656  -0.061899   0.000133  -0.000521
    20  C    0.026881   0.007138  -0.009266  -0.003326  -0.000805   0.011034
    21  N   -0.001898  -0.000005   0.000238   0.000869   0.000056  -0.001902
    22  C    0.000906   0.000214  -0.000964   0.000274   0.000431  -0.000277
    23  N    0.000180  -0.008394  -0.000671  -0.002683   0.000001   0.000023
    24  C    0.009023   0.021624  -0.017138   0.040029  -0.001911  -0.010273
    25  H   -0.000593   0.000457   0.000516  -0.000346   0.000495  -0.003502
    26  H    0.000132   0.000020  -0.000057   0.000064  -0.000015   0.000189
    27  H    0.000088   0.000254  -0.000201   0.000445  -0.000016  -0.000397
    28  O   -0.000020   0.000001   0.000029   0.000016  -0.000002  -0.000121
    29  O   -0.001686  -0.035069   0.004376  -0.003133   0.000719  -0.000157
              19         20         21         22         23         24
     1  C    0.030101  -0.082888   0.007856   0.001010   0.026599  -0.163501
     2  C   -0.028908  -0.157184   0.006670  -0.032678  -0.045125   0.091043
     3  C   -0.007554  -2.729058   0.308528  -0.747710   0.565696  -1.710825
     4  O    0.002994   0.009182  -0.000288   0.007528  -0.004218   0.016262
     5  H   -0.005894  -0.025930   0.003337   0.007776  -0.010775  -0.052420
     6  O    0.021772   0.013506  -0.016279   0.003239  -0.026628   0.007228
     7  H   -0.003820   0.087648   0.006001  -0.007785  -0.011491  -0.055020
     8  C    0.029005  -3.769564   0.506611  -0.145545  -0.316884  -4.421761
     9  C   -0.032334   0.059433  -0.022734   0.006138  -0.002811  -0.097754
    10  H   -0.012596   0.009755   0.000116   0.000271   0.001122   0.033017
    11  O   -0.000496  -0.015007   0.000765  -0.000169  -0.001121   0.004111
    12  C   -0.012999  -0.064043   0.005961  -0.011507  -0.014830   0.017816
    13  H    0.005568   0.026881  -0.001898   0.000906   0.000180   0.009023
    14  O    0.190724   0.007138  -0.000005   0.000214  -0.008394   0.021624
    15  H    0.027656  -0.009266   0.000238  -0.000964  -0.000671  -0.017138
    16  H   -0.061899  -0.003326   0.000869   0.000274  -0.002683   0.040029
    17  H    0.000133  -0.000805   0.000056   0.000431   0.000001  -0.001911
    18  H   -0.000521   0.011034  -0.001902  -0.000277   0.000023  -0.010273
    19  H    0.607393   0.021196  -0.002803   0.002212   0.002885  -0.051937
    20  C    0.021196  15.746055  -1.346081   0.266296   0.276165  -2.015357
    21  N   -0.002803  -1.346081   7.864961  -0.223815  -0.019917   0.045309
    22  C    0.002212   0.266296  -0.223815   6.449618  -0.114074  -0.012941
    23  N    0.002885   0.276165  -0.019917  -0.114074   7.981564  -0.864966
    24  C   -0.051937  -2.015357   0.045309  -0.012941  -0.864966  14.713791
    25  H   -0.001063  -1.103525   0.200015  -0.040147  -0.045225   0.125309
    26  H   -0.000047  -0.231211   0.472570  -0.093908   0.009311  -0.051846
    27  H   -0.001957  -0.159072   0.024032  -0.157887   0.327392  -0.169231
    28  O    0.000005  -0.003057  -0.069966   0.082674  -0.120184   0.063159
    29  O    0.043700  -0.087293   0.016603  -0.021998  -0.213245   0.242217
              25         26         27         28         29
     1  C   -0.022160  -0.001248  -0.000735  -0.000481   0.077134
     2  C    0.108967  -0.001144  -0.004859   0.000620  -0.022333
     3  C    0.067637   0.004429  -0.024486   0.034547   0.036352
     4  O   -0.003905  -0.000541   0.000898  -0.000184  -0.012438
     5  H    0.019688  -0.000806   0.001054   0.000204   0.052270
     6  O    0.038161  -0.000620  -0.001758   0.000135   0.003281
     7  H   -0.069477  -0.002350   0.002481   0.001153   0.000201
     8  C    0.363953   0.057922   0.190941   0.054657  -0.169668
     9  C    0.006774  -0.000018   0.000696   0.000436  -0.038867
    10  H   -0.001720   0.000078   0.000122  -0.000057  -0.006170
    11  O    0.001820  -0.000043   0.000028   0.000005  -0.001305
    12  C    0.002655  -0.000211  -0.000350   0.000307   0.004156
    13  H   -0.000593   0.000132   0.000088  -0.000020  -0.001686
    14  O    0.000457   0.000020   0.000254   0.000001  -0.035069
    15  H    0.000516  -0.000057  -0.000201   0.000029   0.004376
    16  H   -0.000346   0.000064   0.000445   0.000016  -0.003133
    17  H    0.000495  -0.000015  -0.000016  -0.000002   0.000719
    18  H   -0.003502   0.000189  -0.000397  -0.000121  -0.000157
    19  H   -0.001063  -0.000047  -0.001957   0.000005   0.043700
    20  C   -1.103525  -0.231211  -0.159072  -0.003057  -0.087293
    21  N    0.200015   0.472570   0.024032  -0.069966   0.016603
    22  C   -0.040147  -0.093908  -0.157887   0.082674  -0.021998
    23  N   -0.045225   0.009311   0.327392  -0.120184  -0.213245
    24  C    0.125309  -0.051846  -0.169231   0.063159   0.242217
    25  H    2.062714  -0.029702  -0.004034   0.003225  -0.007295
    26  H   -0.029702   0.813653  -0.003515   0.000674   0.001647
    27  H   -0.004034  -0.003515   1.072446  -0.002524  -0.033130
    28  O    0.003225   0.000674  -0.002524   8.483431  -0.005051
    29  O   -0.007295   0.001647  -0.033130  -0.005051   9.035019
 Mulliken charges:
               1
     1  C    0.995574
     2  C    0.717665
     3  C    1.087213
     4  O   -0.642277
     5  H   -0.522749
     6  O   -0.900549
     7  H   -0.739230
     8  C    1.070328
     9  C    0.841511
    10  H   -0.407857
    11  O   -0.697191
    12  C    1.027308
    13  H   -0.465967
    14  O   -0.503857
    15  H   -0.278398
    16  H   -0.249863
    17  H    0.148625
    18  H    0.146898
    19  H    0.239480
    20  C    1.268381
    21  N   -0.764808
    22  C    0.782816
    23  N   -0.367698
    24  C    0.266942
    25  H   -0.669693
    26  H    0.056594
    27  H   -0.056726
    28  O   -0.523633
    29  O   -0.858840
 Sum of Mulliken charges =  -0.00000
 Mulliken charges with hydrogens summed into heavy atoms:
               1
     1  C    0.587717
     2  C    0.194916
     3  C    0.347983
     4  O   -0.495378
     6  O   -0.900549
     8  C    1.070328
     9  C    0.375543
    11  O   -0.548566
    12  C    0.499047
    14  O   -0.264376
    20  C    0.598689
    21  N   -0.708213
    22  C    0.782816
    23  N   -0.424424
    24  C    0.266942
    28  O   -0.523633
    29  O   -0.858840
 Electronic spatial extent (au):  <R**2>=           4128.8273
 Charge=             -0.0000 electrons
 Dipole moment (field-independent basis, Debye):
    X=              2.4888    Y=             -3.9064    Z=             -0.0361  Tot=              4.6320
 Quadrupole moment (field-independent basis, Debye-Ang):
   XX=           -108.1720   YY=            -98.8458   ZZ=            -93.8686
   XY=             -7.6244   XZ=             -4.6985   YZ=             -2.3856
 Traceless Quadrupole moment (field-independent basis, Debye-Ang):
   XX=             -7.8766   YY=              1.4497   ZZ=              6.4269
   XY=             -7.6244   XZ=             -4.6985   YZ=             -2.3856
 Octapole moment (field-independent basis, Debye-Ang**2):
  XXX=            -76.2298  YYY=            -24.1133  ZZZ=             24.0700  XYY=             40.1152
  XXY=            -24.5889  XXZ=            -13.8137  XZZ=              4.3976  YZZ=            -13.0850
  YYZ=            -11.8394  XYZ=             31.2010
 Hexadecapole moment (field-independent basis, Debye-Ang**3):
 XXXX=          -4311.8883 YYYY=          -1058.1177 ZZZZ=           -402.0564 XXXY=           -182.3769
 XXXZ=            -89.4951 YYYX=             42.8875 YYYZ=             -8.6045 ZZZX=            -13.3989
 ZZZY=            -26.4041 XXYY=           -725.9764 XXZZ=           -660.3681 YYZZ=           -233.3305
 XXYZ=              4.8717 YYXZ=            -12.0825 ZZXY=              2.0050
 N-N= 1.333543450763D+03 E-N=-4.799846655595D+03  KE= 9.055277194924D+02
 Calling FoFJK, ICntrl=      2127 FMM=F ISym2X=0 I1Cent= 0 IOpClX= 0 NMat=1 NMatS=1 NMatT=0.
 ***** Axes restored to original set *****
 -------------------------------------------------------------------
 Center     Atomic                   Forces (Hartrees/Bohr)
 Number     Number              X              Y              Z
 -------------------------------------------------------------------
      1        6          -0.000449184    0.000755340    0.000091183
      2        6          -0.002409398   -0.000159860   -0.003677423
      3        6          -0.009048233   -0.013102779    0.000840332
      4        8           0.000271134   -0.001751423    0.001767690
      5        1           0.000021706   -0.000220935    0.000499146
      6        8          -0.009796138    0.006670489   -0.003221544
      7        1          -0.008151796   -0.003189391   -0.000893611
      8        6           0.018908636   -0.045975660   -0.025469475
      9        6           0.002022838   -0.001314697   -0.000669209
     10        1          -0.000653065   -0.000088621   -0.000048772
     11        8          -0.001330388   -0.000346749    0.000348663
     12        6          -0.000332967   -0.000857959   -0.000070964
     13        1          -0.000782221    0.000146933   -0.000060759
     14        8          -0.001146309    0.001021238    0.000064281
     15        1          -0.000010827    0.000277963    0.000143474
     16        1           0.000113353    0.000029260    0.000034368
     17        1           0.000626576    0.000555591   -0.000270707
     18        1          -0.000872737    0.000320875   -0.000218735
     19        1           0.001306385   -0.001027713   -0.000163997
     20        6          -0.030026335    0.011995098    0.008117647
     21        7           0.049405333   -0.003149710   -0.002203243
     22        6          -0.035761051   -0.008277873   -0.004620265
     23        7           0.014677869   -0.005248411   -0.002949988
     24        6           0.003945208    0.017989825    0.009451985
     25        1           0.011248018   -0.005041969   -0.003083954
     26        1          -0.031976748    0.039054765    0.021312854
     27        1           0.005173377   -0.001150561   -0.000589263
     28        8           0.026006964   -0.008551417   -0.004614268
     29        8          -0.000979997    0.020638349    0.010154554
 -------------------------------------------------------------------
 Cartesian Forces:  Max     0.049405333 RMS     0.012573940

 GradGradGradGradGradGradGradGradGradGradGradGradGradGradGradGradGradGrad
 Berny optimization.
 FormGI is forming the generalized inverse of G from B-inverse, IUseBI=4.
 Internal  Forces:  Max     0.055224538 RMS     0.008942197
 Search for a local minimum.
 Step number   1 out of a maximum of  173
 All quantities printed in internal units (Hartrees-Bohrs-Radians)
 Mixed Optimization -- RFO/linear search
 Second derivative matrix not updated -- first step.
 ITU=  0
     Eigenvalues ---    0.00540   0.00544   0.00919   0.01325   0.01332
     Eigenvalues ---    0.01492   0.01495   0.01590   0.01600   0.01765
     Eigenvalues ---    0.01877   0.01939   0.02071   0.02165   0.02324
     Eigenvalues ---    0.02379   0.03088   0.03894   0.04343   0.04918
     Eigenvalues ---    0.04942   0.05362   0.05472   0.05730   0.05922
     Eigenvalues ---    0.06108   0.06154   0.06968   0.07727   0.08505
     Eigenvalues ---    0.09694   0.11652   0.12871   0.14021   0.15999
     Eigenvalues ---    0.15999   0.16000   0.16000   0.16000   0.16000
     Eigenvalues ---    0.16134   0.17101   0.18228   0.20211   0.22078
     Eigenvalues ---    0.22356   0.23425   0.24581   0.24956   0.24997
     Eigenvalues ---    0.25000   0.26612   0.28265   0.28981   0.30676
     Eigenvalues ---    0.33257   0.33412   0.33648   0.33699   0.33703
     Eigenvalues ---    0.34361   0.34990   0.35349   0.36830   0.37245
     Eigenvalues ---    0.37616   0.43194   0.43204   0.43246   0.43403
     Eigenvalues ---    0.44484   0.45451   0.46182   0.47996   0.49831
     Eigenvalues ---    0.53364   0.54173   0.54276   0.55604   0.95488
     Eigenvalues ---    1.07745
 RFO step:  Lambda=-3.32761304D-02 EMin= 5.39964789D-03
 Linear search not attempted -- first point.
 Maximum step size (   0.300) exceeded in Quadratic search.
    -- Step size scaled by   0.989
 Iteration  1 RMS(Cart)=  0.06430319 RMS(Int)=  0.00142651
 Iteration  2 RMS(Cart)=  0.00179109 RMS(Int)=  0.00017738
 Iteration  3 RMS(Cart)=  0.00000266 RMS(Int)=  0.00017737
 Iteration  4 RMS(Cart)=  0.00000000 RMS(Int)=  0.00017737
 Variable       Old X    -DE/DX   Delta X   Delta X   Delta X     New X
                                 (Linear)    (Quad)   (Total)
    R1        2.89264   0.00138   0.00000   0.00332   0.00331   2.89595
    R2        2.88694  -0.00043   0.00000  -0.00471  -0.00478   2.88216
    R3        2.07928   0.00035   0.00000   0.00092   0.00092   2.08020
    R4        2.67368   0.00004   0.00000   0.00008   0.00008   2.67375
    R5        2.89307   0.00187   0.00000   0.00731   0.00738   2.90045
    R6        2.67418   0.00194   0.00000   0.00413   0.00413   2.67831
    R7        2.06725   0.00013   0.00000   0.00034   0.00034   2.06760
    R8        2.64268   0.00973   0.00000   0.02167   0.02172   2.66440
    R9        2.08334   0.00359   0.00000   0.00966   0.00966   2.09300
   R10        2.75478   0.03287   0.00000   0.08010   0.08010   2.83488
   R11        1.81299  -0.00047   0.00000  -0.00079  -0.00079   1.81220
   R12        2.73666  -0.00154   0.00000  -0.00387  -0.00390   2.73276
   R13        2.60280  -0.01652   0.00000  -0.02933  -0.02895   2.57385
   R14        2.62310   0.05522   0.00000   0.11192   0.11189   2.73499
   R15        2.86635  -0.00052   0.00000  -0.00152  -0.00152   2.86483
   R16        2.07841   0.00043   0.00000   0.00115   0.00115   2.07957
   R17        1.82482  -0.00049   0.00000  -0.00084  -0.00084   1.82397
   R18        2.65880  -0.00002   0.00000  -0.00005  -0.00005   2.65875
   R19        2.07834   0.00006   0.00000   0.00016   0.00016   2.07850
   R20        2.08602   0.00003   0.00000   0.00007   0.00007   2.08610
   R21        1.83316   0.00143   0.00000   0.00249   0.00249   1.83565
   R22        2.54859   0.01094   0.00000   0.01587   0.01628   2.56487
   R23        2.05691   0.00096   0.00000   0.00248   0.00248   2.05939
   R24        2.73339  -0.03498   0.00000  -0.08816  -0.08809   2.64529
   R25        2.05112  -0.05463   0.00000  -0.13967  -0.13967   1.91145
   R26        2.64473  -0.01256   0.00000  -0.02668  -0.02707   2.61766
   R27        2.25688   0.02236   0.00000   0.01990   0.01990   2.27679
   R28        2.59053   0.01826   0.00000   0.03607   0.03565   2.62618
   R29        1.91456   0.00033   0.00000   0.00067   0.00067   1.91523
   R30        2.30502   0.01855   0.00000   0.01856   0.01856   2.32358
    A1        1.79505   0.00055   0.00000  -0.00014  -0.00020   1.79485
    A2        1.94965  -0.00007   0.00000   0.00094   0.00096   1.95061
    A3        1.92353   0.00002   0.00000   0.00172   0.00173   1.92527
    A4        1.94869  -0.00030   0.00000   0.00054   0.00056   1.94925
    A5        1.89328   0.00011   0.00000   0.00090   0.00092   1.89420
    A6        1.94738  -0.00024   0.00000  -0.00360  -0.00361   1.94377
    A7        1.75125   0.00201   0.00000   0.01241   0.01247   1.76372
    A8        1.95028  -0.00090   0.00000  -0.00578  -0.00588   1.94440
    A9        1.91506  -0.00073   0.00000  -0.00321  -0.00325   1.91181
   A10        1.94021   0.00018   0.00000   0.00497   0.00497   1.94518
   A11        1.93593  -0.00046   0.00000  -0.00229  -0.00229   1.93364
   A12        1.96076   0.00005   0.00000  -0.00452  -0.00454   1.95622
   A13        1.85613  -0.00358   0.00000  -0.01591  -0.01603   1.84009
   A14        1.87007  -0.00337   0.00000  -0.03012  -0.03054   1.83954
   A15        2.03757   0.00162   0.00000   0.00851   0.00857   2.04614
   A16        1.94430  -0.00078   0.00000  -0.01342  -0.01424   1.93006
   A17        1.91917   0.00218   0.00000   0.00932   0.00931   1.92848
   A18        1.83735   0.00378   0.00000   0.03965   0.03980   1.87715
   A19        1.90618  -0.00057   0.00000  -0.00292  -0.00292   1.90325
   A20        1.91367   0.00104   0.00000   0.01043   0.01048   1.92414
   A21        2.07758   0.00362   0.00000   0.00735   0.00716   2.08474
   A22        2.10346   0.01369   0.00000   0.04256   0.04238   2.14584
   A23        2.10062  -0.01728   0.00000  -0.04942  -0.04909   2.05154
   A24        1.85482   0.00096   0.00000   0.00154   0.00147   1.85629
   A25        1.99376   0.00009   0.00000  -0.00043  -0.00041   1.99335
   A26        1.90544  -0.00043   0.00000  -0.00039  -0.00039   1.90506
   A27        1.89966  -0.00124   0.00000  -0.00587  -0.00584   1.89382
   A28        1.88540   0.00042   0.00000   0.00518   0.00519   1.89058
   A29        1.92090   0.00024   0.00000   0.00035   0.00034   1.92124
   A30        1.86803  -0.00088   0.00000  -0.00448  -0.00448   1.86355
   A31        1.97285  -0.00076   0.00000  -0.00321  -0.00321   1.96964
   A32        1.89486   0.00082   0.00000   0.00543   0.00544   1.90029
   A33        1.89019  -0.00014   0.00000  -0.00194  -0.00195   1.88824
   A34        1.86953   0.00006   0.00000   0.00091   0.00091   1.87044
   A35        1.95255   0.00017   0.00000  -0.00111  -0.00112   1.95143
   A36        1.88098  -0.00010   0.00000   0.00036   0.00037   1.88134
   A37        1.89503  -0.00072   0.00000  -0.00369  -0.00369   1.89134
   A38        2.16105   0.00060   0.00000  -0.00171  -0.00094   2.16011
   A39        1.99706   0.01273   0.00000   0.06751   0.06712   2.06418
   A40        2.12506  -0.01333   0.00000  -0.06580  -0.06619   2.05888
   A41        2.08611   0.01965   0.00000   0.05926   0.05970   2.14581
   A42        2.12278  -0.00556   0.00000  -0.00786  -0.00808   2.11470
   A43        2.07426  -0.01408   0.00000  -0.05141  -0.05163   2.02262
   A44        1.97049  -0.00031   0.00000  -0.01456  -0.01490   1.95558
   A45        2.21596  -0.01842   0.00000  -0.05755  -0.05738   2.15858
   A46        2.09674   0.01873   0.00000   0.07212   0.07229   2.16902
   A47        2.24546   0.00051   0.00000   0.00372   0.00297   2.24844
   A48        2.03111  -0.00535   0.00000  -0.02792  -0.02755   2.00357
   A49        2.00657   0.00484   0.00000   0.02421   0.02458   2.03115
   A50        2.00215  -0.00317   0.00000   0.00281   0.00235   2.00450
   A51        2.16259   0.01729   0.00000   0.05345   0.05368   2.21627
   A52        2.11836  -0.01412   0.00000  -0.05621  -0.05599   2.06237
    D1       -0.61125   0.00001   0.00000   0.00437   0.00436  -0.60689
    D2       -2.66895  -0.00093   0.00000  -0.00575  -0.00573  -2.67469
    D3        1.42744   0.00020   0.00000   0.00667   0.00667   1.43411
    D4       -2.70348   0.00007   0.00000   0.00335   0.00335  -2.70013
    D5        1.52200  -0.00086   0.00000  -0.00677  -0.00675   1.51525
    D6       -0.66480   0.00027   0.00000   0.00565   0.00566  -0.65914
    D7        1.40444   0.00042   0.00000   0.00607   0.00606   1.41050
    D8       -0.65327  -0.00051   0.00000  -0.00405  -0.00404  -0.65731
    D9       -2.84006   0.00062   0.00000   0.00837   0.00837  -2.83170
   D10        0.39755  -0.00045   0.00000  -0.00363  -0.00362   0.39393
   D11       -1.69727   0.00038   0.00000   0.00290   0.00290  -1.69437
   D12        2.42705   0.00034   0.00000   0.00305   0.00305   2.43010
   D13        2.49044  -0.00036   0.00000  -0.00233  -0.00233   2.48811
   D14        0.39562   0.00047   0.00000   0.00420   0.00419   0.39981
   D15       -1.76324   0.00043   0.00000   0.00435   0.00434  -1.75890
   D16       -1.63981  -0.00079   0.00000  -0.00589  -0.00589  -1.64569
   D17        2.54856   0.00005   0.00000   0.00063   0.00064   2.54920
   D18        0.38970   0.00000   0.00000   0.00079   0.00078   0.39048
   D19        0.84766  -0.00064   0.00000  -0.00699  -0.00697   0.84069
   D20        2.80055   0.00007   0.00000  -0.00580  -0.00583   2.79472
   D21       -1.32891  -0.00039   0.00000  -0.00688  -0.00688  -1.33578
   D22        0.64305  -0.00217   0.00000  -0.01441  -0.01421   0.62883
   D23       -1.43806   0.00231   0.00000   0.02476   0.02449  -1.41357
   D24        2.79164  -0.00105   0.00000  -0.00904  -0.00900   2.78264
   D25        2.70816  -0.00204   0.00000  -0.01232  -0.01208   2.69608
   D26        0.62705   0.00244   0.00000   0.02686   0.02662   0.65367
   D27       -1.42643  -0.00092   0.00000  -0.00695  -0.00687  -1.43330
   D28       -1.38004  -0.00220   0.00000  -0.01624  -0.01603  -1.39607
   D29        2.82204   0.00228   0.00000   0.02294   0.02267   2.84471
   D30        0.76856  -0.00107   0.00000  -0.01087  -0.01082   0.75774
   D31       -2.25295   0.00166   0.00000   0.01793   0.01793  -2.23502
   D32        2.08944  -0.00039   0.00000   0.00324   0.00322   2.09267
   D33       -0.09167   0.00005   0.00000   0.00587   0.00588  -0.08579
   D34       -0.41555   0.00167   0.00000   0.01261   0.01246  -0.40309
   D35        1.61638  -0.00485   0.00000  -0.03965  -0.03946   1.57692
   D36       -2.63670   0.00068   0.00000   0.00682   0.00677  -2.62993
   D37        2.18081  -0.00009   0.00000  -0.01356  -0.01363   2.16718
   D38       -1.01976  -0.00007   0.00000  -0.00574  -0.00556  -1.02532
   D39       -1.98666  -0.00192   0.00000  -0.02106  -0.02124  -2.00791
   D40        1.09595  -0.00191   0.00000  -0.01324  -0.01317   1.08278
   D41        0.10955   0.00048   0.00000  -0.00917  -0.00928   0.10027
   D42       -3.09101   0.00050   0.00000  -0.00134  -0.00122  -3.09223
   D43        0.00701  -0.00038   0.00000  -0.00385  -0.00385   0.00316
   D44        2.16188  -0.00041   0.00000  -0.00682  -0.00681   2.15507
   D45       -2.03593  -0.00059   0.00000  -0.00675  -0.00675  -2.04267
   D46        3.11746   0.00074   0.00000   0.00806   0.00780   3.12526
   D47       -0.03044   0.00056   0.00000   0.00711   0.00691  -0.02354
   D48        0.03474  -0.00035   0.00000  -0.00294  -0.00290   0.03184
   D49       -3.11316  -0.00053   0.00000  -0.00389  -0.00379  -3.11695
   D50       -3.11304  -0.00035   0.00000  -0.00521  -0.00522  -3.11826
   D51        0.04250  -0.00047   0.00000  -0.00896  -0.00903   0.03347
   D52       -0.03121   0.00039   0.00000   0.00470   0.00454  -0.02667
   D53        3.12433   0.00027   0.00000   0.00094   0.00073   3.12507
   D54        0.83061   0.00046   0.00000   0.00268   0.00266   0.83326
   D55       -1.24108   0.00030   0.00000  -0.00011  -0.00013  -1.24121
   D56        3.00429   0.00004   0.00000  -0.00242  -0.00244   3.00185
   D57       -1.23892   0.00005   0.00000   0.00510   0.00512  -1.23381
   D58        2.97258  -0.00011   0.00000   0.00231   0.00233   2.97491
   D59        0.93476  -0.00036   0.00000  -0.00000   0.00002   0.93478
   D60        2.98113   0.00014   0.00000   0.00212   0.00212   2.98325
   D61        0.90945  -0.00002   0.00000  -0.00067  -0.00067   0.90878
   D62       -1.12837  -0.00027   0.00000  -0.00298  -0.00298  -1.13135
   D63        1.06632  -0.00086   0.00000  -0.01272  -0.01271   1.05360
   D64       -3.13055  -0.00025   0.00000  -0.00729  -0.00729  -3.13784
   D65       -1.07298  -0.00023   0.00000  -0.00691  -0.00691  -1.07989
   D66       -0.01530  -0.00026   0.00000  -0.00241  -0.00239  -0.01768
   D67        3.13561  -0.00020   0.00000  -0.00087  -0.00077   3.13484
   D68        3.13305  -0.00017   0.00000  -0.00188  -0.00196   3.13109
   D69        0.00078  -0.00011   0.00000  -0.00034  -0.00035   0.00043
   D70       -0.00433  -0.00003   0.00000   0.00314   0.00319  -0.00114
   D71        3.14055  -0.00012   0.00000  -0.00012   0.00004   3.14059
   D72        3.12820  -0.00005   0.00000   0.00186   0.00185   3.13005
   D73       -0.01010  -0.00014   0.00000  -0.00140  -0.00131  -0.01140
   D74        0.00543  -0.00006   0.00000  -0.00131  -0.00131   0.00412
   D75       -3.12591  -0.00004   0.00000  -0.00204  -0.00211  -3.12802
   D76       -3.13920  -0.00006   0.00000   0.00144   0.00160  -3.13761
   D77        0.01264  -0.00003   0.00000   0.00071   0.00080   0.01344
   D78        0.01219  -0.00011   0.00000  -0.00238  -0.00233   0.00985
   D79        3.14022   0.00028   0.00000   0.00223   0.00204  -3.14093
   D80       -3.13954  -0.00018   0.00000  -0.00191  -0.00178  -3.14132
   D81       -0.01150   0.00021   0.00000   0.00270   0.00259  -0.00891
         Item               Value     Threshold  Converged?
 Maximum Force            0.055225     0.000450     NO 
 RMS     Force            0.008942     0.000300     NO 
 Maximum Displacement     0.304927     0.001800     NO 
 RMS     Displacement     0.064701     0.001200     NO 
 Predicted change in Energy=-1.824694D-02
 GradGradGradGradGradGradGradGradGradGradGradGradGradGradGradGradGradGrad

                          Input orientation:                          
 ---------------------------------------------------------------------
 Center     Atomic      Atomic             Coordinates (Angstroms)
 Number     Number       Type             X           Y           Z
 ---------------------------------------------------------------------
      1          6           0       -2.767083   -0.547404    0.237297
      2          6           0       -1.370079   -0.747277    0.834706
      3          6           0       -0.501994   -0.718414   -0.430744
      4          8           0       -1.267468   -1.991638    1.505356
      5          1           0       -1.128674    0.094591    1.490520
      6          8           0       -1.107694    0.230550   -1.279585
      7          1           0       -0.580169   -1.734623   -0.864233
      8          6           0        0.956111   -0.411952   -0.256198
      9          6           0       -2.503024    0.391305   -0.935413
     10          1           0       -3.462588   -0.102799    0.965550
     11          8           0       -3.264170   -1.771305   -0.269536
     12          6           0       -2.757981    1.854247   -0.630352
     13          1           0       -3.110502    0.073423   -1.796188
     14          8           0       -2.170323    2.270853    0.578203
     15          1           0       -3.842073    2.014528   -0.536432
     16          1           0       -2.401572    2.452107   -1.487186
     17          1           0       -3.124954   -2.434492    0.417793
     18          1           0       -0.928612   -1.843323    2.390123
     19          1           0       -1.210056    2.139733    0.512784
     20          6           0        1.885726   -1.288200   -0.728548
     21          7           0        3.225207   -1.090276   -0.634722
     22          6           0        3.787021    0.053921   -0.056189
     23          7           0        2.819733    0.936597    0.395518
     24          6           0        1.436366    0.814408    0.343845
     25          1           0        1.536612   -2.204661   -1.203781
     26          1           0        3.881351   -1.770867   -0.994441
     27          1           0        3.181398    1.786984    0.811706
     28          8           0        4.973478    0.242672    0.034874
     29          8           0        0.755380    1.727039    0.807789
 ---------------------------------------------------------------------
                    Distance matrix (angstroms):
                    1          2          3          4          5
     1  C    0.000000
     2  C    1.532471   0.000000
     3  C    2.367732   1.534852   0.000000
     4  O    2.437751   1.417299   2.440397   0.000000
     5  H    2.160350   1.094125   2.178293   2.090893   0.000000
     6  O    2.379016   2.344188   1.409942   3.566447   2.773519
     7  H    2.721296   2.117830   1.107567   2.480602   3.031788
     8  C    3.758199   2.591076   1.500151   3.246965   2.766575
     9  C    1.525172   2.390241   2.343136   3.627997   2.803930
    10  H    1.100797   2.193414   3.330727   2.945786   2.400357
    11  O    1.414888   2.419827   2.960437   2.680598   3.337620
    12  C    2.553591   3.292505   3.427522   4.644751   3.201426
    13  H    2.153700   3.259482   3.048895   4.308299   3.838038
    14  O    2.900847   3.132936   3.568895   4.454614   2.579432
    15  H    2.884053   3.952005   4.316975   5.181395   3.893229
    16  H    3.479153   4.085488   3.844043   5.476163   4.005606
    17  H    1.929184   2.469837   3.247285   2.197537   3.395900
    18  H    3.113525   1.953339   3.066711   0.958974   2.145885
    19  H    3.117841   2.909306   3.092022   4.249320   2.268302
    20  C    4.809394   3.651935   2.472762   3.927822   3.990361
    21  N    6.079693   4.836685   3.751255   5.057323   4.987669
    22  C    6.588172   5.294459   4.374064   5.671912   5.153447
    23  N    5.782717   4.536832   3.802057   5.148933   4.183052
    24  C    4.419827   3.248990   2.589743   4.066167   2.900419
    25  H    4.831666   3.837740   2.638642   3.904826   4.432783
    26  H    6.871370   5.654294   4.543030   5.727833   5.895364
    27  H    6.415898   5.209506   4.624725   5.878056   4.679926
    28  O    7.783410   6.469965   5.578644   6.789982   6.275116
    29  O    4.231583   3.261984   3.015823   4.290346   2.584698
                    6          7          8          9         10
     6  O    0.000000
     7  H    2.076705   0.000000
     8  C    2.391531   2.116440   0.000000
     9  C    1.446113   2.867404   3.615545   0.000000
[...]
 55,-0.19171177,0.03562482,0.01284623,0.71280885,-0.00018429,-0.0001312
 7,0.00013705,0.00082296,-0.00031702,-0.00107350,0.00199802,-0.00610654
 ,-0.00266297,-0.00003364,0.00040329,0.00018194,-0.00019019,-0.00012437
 ,0.00056232,-0.00061020,0.00163259,0.00011921,-0.00191264,-0.00029671,
 -0.00013304,-0.03755469,0.00747732,-0.00134274,0.00040772,-0.00032365,
 -0.00033442,-0.00016024,-0.00000462,0.00001793,-0.00010624,0.00035686,
 0.00018351,-0.00051489,-0.00057851,-0.00105133,-0.00010905,0.00008435,
 0.00005380,0.00243546,0.00015041,0.00081402,0.00018302,0.00011428,0.00
 019462,0.00000472,0.00003808,0.00013730,0.00010646,-0.00001618,-0.0000
 6388,-0.00005303,-0.00009613,0.00002915,-0.00342874,0.00080105,-0.0007
 4955,0.01636741,-0.00303705,-0.00096264,0.01523405,-0.05017930,-0.0264
 5527,0.07618844,-0.20988353,-0.06614739,0.02380965,0.71458400,-0.00012
 230,-0.00012181,0.00014997,-0.00028553,-0.00015397,-0.00054611,0.00104
 628,-0.00378600,0.00098602,0.00009722,0.00001753,0.00025608,-0.0000602
 2,-0.00010182,0.00006001,0.00026395,0.00077112,0.00042972,-0.00088986,
 0.00006158,-0.00024729,-0.01757374,-0.00172588,0.00904846,0.00028691,-
 0.00011278,-0.00004327,-0.00009762,-0.00000341,0.00000016,-0.00005243,
 0.00011689,0.00009073,-0.00034944,-0.00024171,-0.00063755,-0.00001827,
 0.00004602,0.00001850,0.00135505,0.00007223,0.00028326,0.00006100,0.00
 006448,0.00010341,0.00000412,-0.00000147,0.00007885,0.00002696,0.00000
 125,-0.00005392,-0.00013573,-0.00005976,-0.00002697,-0.00198523,0.0002
 6329,0.00020685,0.00692628,-0.00134866,-0.00022426,0.00721978,-0.02629
 710,-0.00263568,0.03138574,-0.06702865,-0.08729991,0.02113575,0.292419
 72,0.19753497,-0.00095807,-0.00048684,0.00081124,0.00012417,-0.0034684
 1,-0.00333186,-0.00437812,-0.03297164,-0.01160158,0.00047225,0.0025702
 9,-0.00033072,-0.00227476,-0.00053291,0.00265599,0.00129343,0.00448377
 ,0.00140354,-0.00590649,-0.00041935,0.00003971,-0.13479999,-0.04323898
 ,-0.02020267,-0.00089783,-0.00020218,-0.00076234,-0.00028841,0.0000734
 0,-0.00010275,0.00061685,0.00144397,0.00070220,-0.00214955,-0.00093850
 ,-0.00274277,0.00019333,0.00017882,0.00023210,0.00449018,-0.00032787,0
 .00118952,0.00051746,0.00014849,0.00020512,-0.00013020,0.00008703,0.00
 037080,-0.00005669,-0.00022738,-0.00014811,-0.00008432,-0.00047804,0.0
 0042811,-0.00757393,0.00353898,0.00094913,0.04849838,0.02371643,0.0114
 1815,-0.02526607,-0.02674990,-0.01267520,-0.04084210,0.06619219,0.0292
 7110,-0.23309702,-0.06132792,-0.02990046,0.67252201,0.00116718,0.00039
 757,-0.00111212,-0.00018531,0.00191047,0.00244022,-0.01790318,0.003531
 08,-0.00361366,0.00098797,-0.00254674,-0.00008335,0.00108518,0.0010672
 8,-0.00198658,0.00474328,-0.00749154,-0.00022023,0.00143158,0.00057457
 ,-0.00066676,-0.05189848,-0.17737446,-0.04404261,-0.00138069,0.0009963
 5,0.00128683,0.00082270,-0.00001290,-0.00004378,0.00021910,-0.00136152
 ,-0.00049800,0.00296246,0.00239357,0.00429274,0.00038088,-0.00039902,-
 0.00019072,-0.01008786,-0.00054008,-0.00265148,-0.00068119,-0.00051904
 ,-0.00066549,0.00002552,-0.00017314,-0.00051871,-0.00052477,0.00006756
 ,0.00010976,0.00005187,0.00037453,0.00001066,0.01448292,-0.00390074,0.
 00081575,0.04224536,-0.03254711,-0.01543066,-0.03340524,-0.01839061,-0
 .00713522,0.01451203,0.04475453,0.02689923,-0.02536334,-0.14058352,-0.
 03921865,-0.14918373,0.74950436,0.00077010,-0.00005184,-0.00059849,0.0
 0016846,0.00176434,0.00262410,-0.00886819,0.00131002,-0.00069424,0.000
 04119,-0.00101012,-0.00069843,0.00137441,0.00040781,-0.00117082,0.0034
 9564,-0.00441369,-0.00025227,0.00080983,-0.00047220,0.00106974,-0.0233
 7859,-0.04391625,-0.10312603,-0.00160202,0.00058198,0.00093948,0.00037
 293,0.00002962,-0.00007946,-0.00007115,-0.00056340,-0.00044250,0.00155
 132,0.00114132,0.00238760,0.00037052,-0.00018954,-0.00012327,-0.005461
 19,-0.00027106,-0.00131155,-0.00028504,-0.00027043,-0.00041827,-0.0000
 1410,0.00002343,-0.00032504,-0.00010171,0.00005900,0.00014437,0.000334
 70,0.00031790,-0.00001474,0.00774377,-0.00141907,0.00006593,0.01932455
 ,-0.01628072,-0.00446503,-0.01472537,-0.00618007,-0.00739059,0.0061081
 4,0.02655728,-0.00201116,-0.01434198,-0.04016479,-0.07169716,-0.065879
 75,0.24862000,0.31860686,-0.00005284,0.00010919,0.00012252,-0.00039065
 ,-0.00016710,-0.00017554,0.00110633,0.00315756,0.00110597,-0.00000077,
 0.00000157,-0.00010785,0.00010436,0.00002371,-0.00017707,0.00014727,-0
 .00094474,0.00028848,-0.00043970,-0.00087277,-0.00037878,0.00985213,0.
 01709925,0.00792966,-0.00022723,0.00008891,0.00008505,0.00000642,-0.00
 000705,-0.00003760,0.00010899,-0.00007244,-0.00008415,0.00003215,0.000
 05902,0.00005685,0.00002545,0.00001204,0.00000189,-0.00010610,-0.00006
 562,-0.00005395,0.00000443,-0.00001137,-0.00001648,-0.00000639,-0.0000
 0262,0.00000177,-0.00006446,-0.00000333,0.00004619,0.00004564,-0.00003
 395,0.00000347,0.00017481,0.00000051,0.00002693,-0.07224966,-0.0559739
 3,-0.02698140,-0.01072393,-0.03356605,-0.01545017,-0.00400930,0.004290
 61,0.00176816,0.00096085,-0.00027326,-0.00007818,-0.00442543,0.0013022
 3,0.00035416,0.08052747,-0.00001987,0.00003969,0.00020054,-0.00026863,
 0.00044136,-0.00039037,-0.00238585,-0.00083314,0.00239330,0.00004149,-
 0.00012689,0.00010682,-0.00009603,-0.00001966,0.00012200,0.00026945,0.
 00006792,0.00002655,0.00093785,0.00074816,0.00018493,-0.00661282,-0.01
 085823,-0.00904527,0.00017613,-0.00000681,0.00011088,-0.00007815,-0.00
 000469,-0.00002856,-0.00006415,-0.00004947,0.00000334,-0.00005141,-0.0
 0003672,-0.00006451,0.00003117,-0.00000711,-0.00002147,0.00010203,0.00
 005202,0.00005582,-0.00000054,0.00000924,0.00001500,0.00000249,-0.0000
 0034,0.00001002,0.00002511,0.00003493,-0.00000135,-0.00003703,0.000011
 81,-0.00002228,-0.00017103,0.00000662,-0.00004559,-0.06190233,-0.28104
 566,-0.11202525,0.00023031,-0.00077256,-0.00161446,0.00002907,0.003077
 58,-0.00036409,0.00036600,0.00021321,0.00038183,0.00355633,0.00118235,
 -0.00439217,0.06667675,0.28978597,0.00011906,-0.00007906,-0.00034431,0
 .00081632,-0.00053046,0.00074155,0.00029215,0.00210425,-0.00473638,-0.
 00035931,0.00029166,-0.00008487,-0.00002611,0.00004938,-0.00000979,-0.
 00119471,0.00044647,0.00020569,0.00047017,-0.00005239,0.00011560,-0.00
 331279,-0.00854174,0.00493716,0.00007241,0.00012666,-0.00025944,0.0000
 8408,-0.00000527,0.00005632,-0.00004109,0.00007447,-0.00000639,-0.0000
 8997,-0.00002459,-0.00000350,-0.00006655,0.00001782,0.00001520,0.00004
 204,0.00002075,0.00000689,0.00000183,0.00002697,0.00001691,-0.00000322
 ,0.00000510,-0.00000758,0.00006926,-0.00001920,0.00003023,0.00003573,0
 .00001592,-0.00000288,-0.00008704,0.00000519,0.00001588,-0.02998674,-0
 .11164387,-0.09384845,-0.00006174,-0.00268512,0.00201280,-0.00022976,-
 0.00035799,0.00386841,0.00018096,0.00042271,-0.00043684,0.00148929,-0.
 00423111,0.00901361,0.03209070,0.12312386,0.08304975,-0.00005776,0.000
 03298,0.00000917,-0.00013123,-0.00005671,-0.00014329,-0.00001512,0.000
 99990,0.00047467,0.00006274,-0.00000871,0.00003347,-0.00002012,-0.0000
 1413,0.00002046,-0.00016340,0.00000010,0.00004648,-0.00000206,-0.00002
 804,-0.00001798,-0.00301436,-0.00463726,-0.00232088,-0.00008248,-0.000
 01546,-0.00004066,-0.00001116,-0.00000243,-0.00000618,0.00004592,0.000
 00507,0.00000432,-0.00004958,-0.00002826,-0.00007395,-0.00001406,0.000
 01567,0.00001255,0.00015064,-0.00000045,0.00004609,0.00001958,0.000007
 14,0.00000581,-0.00000470,0.00000216,0.00001053,-0.00002796,-0.0000046
 2,0.00000072,-0.00002679,-0.00002405,0.00001656,-0.00021566,0.00003827
 ,-0.00001980,-0.01686003,0.02338215,0.01054567,-0.24407935,0.17971744,
 0.07729373,0.01978126,-0.00772264,-0.00315780,-0.00140073,-0.00391903,
 -0.00183818,-0.00085738,0.00039846,0.00015783,0.00060925,-0.00033282,-
 0.00009982,0.24837911,0.00004470,0.00008039,0.00010651,0.00002039,0.00
 020679,-0.00026052,0.00060503,0.00094835,-0.00023805,-0.00001364,-0.00
 021569,0.00014055,0.00002686,-0.00001582,-0.00000247,-0.00091035,0.000
 12181,-0.00007546,-0.00005219,-0.00006761,-0.00004737,-0.00358087,0.00
 197359,-0.00059276,0.00024577,-0.00004666,-0.00019614,-0.00004565,-0.0
 0000828,-0.00000269,-0.00010968,-0.00013126,-0.00002179,-0.00000854,-0
 .00001463,0.00004004,-0.00009200,0.00000800,0.00000545,-0.00010836,0.0
 0004383,-0.00000035,-0.00002549,0.00001827,0.00000910,0.00001313,-0.00
 000479,-0.00000864,0.00002972,0.00005133,-0.00000286,-0.00001286,0.000
 04136,-0.00004033,0.00016820,-0.00006535,-0.00000579,-0.00555550,0.009
 93916,0.00743817,0.17738624,-0.24432611,-0.10365942,0.02610934,-0.0170
 7745,-0.00693413,-0.00360126,-0.00366303,-0.00328850,-0.00167967,-0.00
 227478,-0.00074441,-0.00047817,0.00020883,0.00087237,-0.18823816,0.250
 46653,-0.00003055,0.00004190,0.00021800,-0.00050569,-0.00012182,-0.000
 30531,-0.00032539,-0.00055145,0.00190460,-0.00007868,0.00002466,-0.000
 03453,0.00005399,0.00000359,-0.00004210,0.00045327,0.00000068,-0.00006
 007,0.00003219,-0.00007142,-0.00000617,-0.00135516,-0.00069674,0.00295
 418,0.00003583,-0.00001410,0.00015065,-0.00006909,0.00000900,-0.000037
 38,-0.00007339,-0.00004396,-0.00006133,0.00003353,-0.00000691,0.000064
 67,0.00001763,-0.00000296,-0.00002774,-0.00007351,0.00003802,-0.000063
 18,-0.00001010,-0.00000231,-0.00000317,0.00000426,0.00001501,-0.000015
 98,0.00005071,0.00002231,0.00001861,0.00004674,-0.00000747,-0.00000480
 ,0.00008476,-0.00004010,0.00001869,-0.00291353,0.00835363,-0.00291783,
 0.07634895,-0.10401767,-0.05489197,0.01218003,-0.00720999,-0.00381702,
 -0.00160394,-0.00326461,0.00197388,-0.00081000,-0.00078329,-0.00097669
 ,-0.00021618,0.00081701,-0.00132443,-0.08117337,0.10444316,0.05885503,
 -0.00005076,-0.00004975,0.00000264,0.00014562,-0.00008512,-0.00019715,
 0.00057801,-0.00175514,-0.00058418,0.00002837,0.00008614,0.00004379,-0
 .00004393,-0.00002547,0.00010547,0.00006142,0.00034495,0.00007799,-0.0
 0053402,-0.00008132,-0.00004331,-0.00641632,0.00133071,0.00049864,0.00
 004694,-0.00004813,-0.00003687,-0.00002412,0.00000067,0.00000398,-0.00
 000189,0.00008541,0.00004784,-0.00013254,-0.00010043,-0.00021460,-0.00
 000772,0.00001644,0.00001138,0.00042963,0.00004257,0.00014699,0.000038
 18,0.00002045,0.00003004,-0.00000381,0.00000485,0.00002826,0.00000615,
 -0.00000547,-0.00001742,-0.00002771,-0.00002873,0.00001309,-0.00058527
 ,0.00011370,-0.00007893,-0.00151747,0.00028710,0.00014117,-0.00442667,
 0.00460310,0.00188948,0.02026052,0.02297661,0.01075636,-0.11362227,-0.
 10947974,-0.05100666,-0.00441608,-0.03510567,-0.01614377,0.00004337,-0
 .00003321,-0.00000845,0.00086955,0.00117436,0.00052205,0.10719127,-0.0
 0002271,0.00000417,-0.00004217,-0.00003202,-0.00003880,0.00008944,0.00
 003230,0.00022879,-0.00017258,0.00009778,0.00002789,0.00000356,-0.0000
 5915,0.00000285,0.00002272,0.00024427,-0.00007905,0.00002741,0.0000197
 0,-0.00002535,0.00005543,0.00041778,0.00219293,-0.00098593,-0.00016378
 ,0.00003991,0.00003728,0.00002870,-0.00000034,-0.00000156,0.00009188,0
 .00001666,0.00001784,0.00000342,0.00002976,-0.00006900,0.00003012,-0.0
 0000287,0.00000718,0.00015627,-0.00014503,0.00000697,0.00002010,-0.000
 00659,0.00000469,-0.00000467,-0.00000227,0.00002726,-0.00004809,-0.000
 01740,-0.00000356,-0.00004555,-0.00001783,0.00001654,-0.00031407,0.000
 19368,0.00001984,0.00026837,0.00037717,0.00048302,0.00405876,0.0002570
 7,-0.00174194,-0.00899597,-0.01752686,-0.00769578,-0.10583095,-0.34049
 555,-0.14720466,-0.00497358,0.00239481,0.00041871,-0.00007210,-0.00008
 714,0.00015475,-0.00049724,-0.00030690,-0.00056468,0.11538910,0.353340
 39,-0.00001918,-0.00001143,-0.00001726,0.00004430,-0.00001465,0.000129
 79,0.00007244,-0.00023574,0.00025895,-0.00002107,0.00007908,-0.0001113
 9,-0.00001995,-0.00004912,0.00002992,0.00009257,0.00012141,-0.00008608
 ,-0.00001287,0.00004510,-0.00007061,0.00000630,-0.00097709,0.00394093,
 -0.00007962,-0.00001085,0.00000214,0.00001801,-0.00000063,-0.00000202,
 0.00001938,0.00002595,-0.00002210,0.00001478,-0.00002071,0.00005710,0.
 00000670,-0.00000256,-0.00000100,0.00001925,-0.00000804,-0.00005528,0.
 00001111,0.00000086,-0.00000545,-0.00001090,0.00001370,-0.00002628,-0.
 00000250,-0.00000405,0.00001689,0.00004020,0.00001107,0.00003730,-0.00
 007732,0.00003813,0.00001301,0.00014434,0.00051650,-0.00050837,0.00155
 851,-0.00179962,0.00349952,-0.00368883,-0.00677618,-0.00403720,-0.0494
 0832,-0.14756559,-0.08576379,-0.00229484,-0.00009194,0.00128929,-0.000
 02135,0.00015484,-0.00035245,-0.00021934,-0.00054343,0.00072691,0.0536
 5933,0.15364936,0.08753218,0.00032059,0.00028936,0.00085351,-0.0005384
 2,0.00099138,-0.00167708,0.00314559,-0.00013132,0.00159003,-0.00036196
 ,-0.00091591,0.00068162,0.00025402,-0.00006279,-0.00017042,-0.00304551
 ,0.00084239,-0.00047864,-0.00023641,-0.00010818,-0.00001603,-0.0019218
 9,-0.00366479,-0.00144942,0.00167583,-0.00035579,-0.00062124,-0.000356
 90,0.00001410,-0.00005129,-0.00088341,-0.00059071,-0.00014709,0.000148
 19,-0.00008794,0.00061908,-0.00038500,0.00000809,-0.00005565,-0.001354
 77,0.00052696,-0.00029394,-0.00021870,0.00006160,0.00000623,0.00009141
 ,0.00001256,-0.00013659,0.00038532,0.00024216,-0.00005142,0.00002660,0
 .00020251,-0.00030319,0.00204449,-0.00081836,0.00013125,0.00088892,-0.
 00174378,-0.00102401,-0.04216905,-0.04302121,-0.02047558,-0.67444146,-
 0.09494580,-0.05509043,-0.08553375,0.01725238,0.00559947,0.01741010,0.
 00483399,0.00232003,-0.00165068,-0.00009702,-0.00008163,-0.00359341,-0
 .00120360,-0.00059762,-0.00215431,-0.00171213,-0.00072592,0.80188712,-
 0.00001900,0.00002884,0.00042510,-0.00040547,0.00005562,-0.00083722,0.
 00110705,0.00059711,0.00135928,-0.00009525,-0.00001850,0.00015998,0.00
 000173,-0.00006351,0.00005970,-0.00132998,0.00068401,-0.00016030,0.000
 19599,0.00012186,0.00005516,-0.00207927,0.00574608,0.00327066,0.000530
 95,-0.00018986,-0.00032488,-0.00017521,0.00000428,-0.00002969,-0.00019
 971,-0.00002688,-0.00001809,-0.00019256,-0.00022699,-0.00021729,-0.000
 14567,0.00003870,0.00001658,0.00042187,0.00027552,0.00017827,0.0000076
 5,0.00005574,0.00005789,0.00001632,0.00001961,0.00000418,0.00012221,0.
 00003993,-0.00001983,0.00000202,-0.00001421,-0.00006967,-0.00059033,-0
 .00008384,-0.00007072,0.01325596,-0.00531589,-0.00440212,-0.06879992,-
 0.01043957,-0.01549208,-0.09611820,-0.11604402,-0.01739468,0.04634346,
 0.02118360,0.00098044,-0.01262226,-0.00886621,-0.00716762,-0.00197488,
 -0.00033119,-0.00007680,0.00147839,0.00308807,0.00303143,-0.00355407,0
 .00205222,0.00244441,0.11979219,0.10754820,-0.00000407,0.00004109,0.00
 018682,-0.00015636,0.00008076,-0.00045682,0.00067571,0.00057728,0.0000
 5597,0.00003455,-0.00010374,0.00019398,-0.00001672,-0.00001731,0.00003
 997,-0.00077620,0.00026630,0.00004787,0.00010352,-0.00002090,0.0000184
 0,-0.00100279,0.00309222,0.00035866,0.00030884,-0.00007463,-0.00019392
 ,-0.00008228,0.00000185,-0.00000449,-0.00008227,-0.00004204,0.00002892
 ,-0.00008277,-0.00008810,-0.00011756,-0.00007710,0.00001838,0.00001026
 ,0.00012715,0.00009572,0.00015290,-0.00000306,0.00002579,0.00002923,0.
 00001205,-0.00000571,0.00001582,0.00003757,0.00002219,-0.00003186,-0.0
 0006280,0.00000226,-0.00005821,-0.00014740,-0.00001402,-0.00013794,0.0
 0584408,-0.00463159,0.00295351,-0.03218129,-0.01496247,0.01340447,-0.0
 5550848,-0.01739749,-0.09052281,0.01853627,0.00043058,0.02148793,-0.00
 533134,-0.00721918,0.00408491,-0.00092924,-0.00006909,-0.00030744,0.00
 067012,0.00302637,-0.00227753,-0.00156148,0.00253660,-0.00255669,0.069
 70650,0.03351371,0.05476497,0.00111156,0.00051995,-0.00083479,-0.00033
 791,0.00207428,0.00269434,-0.00563621,0.00519542,-0.00080237,0.0000879
 3,-0.00285830,0.00031445,-0.00017750,-0.00095380,-0.00190912,0.0014477
 1,-0.00585000,-0.00192440,0.00083179,-0.00030800,-0.00023459,0.0159635
 0,0.01637024,0.00744810,-0.00012343,0.00079295,0.00086359,0.00044310,0
 .00001691,-0.00002980,-0.00051450,-0.00135322,-0.00044850,0.00204215,0
 .00219524,0.00558073,0.00008863,-0.00036810,-0.00024693,-0.01466988,0.
 00215932,-0.00347866,-0.00097772,-0.00042173,-0.00108343,-0.00002162,-
 0.00006657,-0.00081798,-0.00006025,0.00018821,0.00006769,0.00002123,0.
 00041293,-0.00034102,0.00277088,-0.00463490,-0.00050234,-0.00059391,-0
 .00627343,-0.00274296,-0.00028269,0.00829981,0.00368181,0.00826742,-0.
 02254789,-0.00965012,-0.08525701,0.06504751,0.02898534,-0.27773573,0.2
 3406675,0.10557527,0.00059824,-0.00029328,-0.00011507,0.00070930,-0.00
 010777,-0.00002772,0.00426586,0.00191346,0.00089479,-0.00943256,0.0050
 2599,0.00194930,0.35717161,-0.00034900,-0.00072804,0.00059557,-0.00081
 111,-0.00036562,-0.00024083,0.00787505,-0.00062090,0.00382141,-0.00080
 022,0.00047743,-0.00005397,-0.00130453,-0.00221321,0.00038627,-0.00390
 569,0.00381636,-0.00098577,-0.00008923,0.00053937,0.00025335,0.0305824
 2,-0.04874261,-0.03226636,0.00167381,-0.00086278,-0.00064006,-0.000568
 59,-0.00006077,0.00005398,-0.00047827,0.00086024,0.00006682,-0.0018567
 9,-0.00224078,-0.00423288,-0.00034787,0.00038240,0.00013837,0.01129928
 ,0.00244186,0.00262739,0.00065418,0.00048735,0.00075788,-0.00012032,0.
 00011323,0.00044246,0.00043827,-0.00000369,-0.00002709,0.00007035,-0.0
 0013598,-0.00012300,-0.01296362,-0.00055895,-0.00041432,-0.01958202,-0
 .00046592,-0.00223186,0.01077199,0.00237178,0.00129737,-0.00587248,0.0
 0049942,-0.00343902,0.04067094,0.00879794,-0.00450155,0.23383942,-0.41
 216764,-0.15372400,0.00169800,-0.00170011,0.00048928,-0.00054774,0.001
 02206,0.00059906,0.00387606,-0.00240631,0.00101123,0.00438967,0.000081
 25,0.00091519,-0.29824197,0.45138262,-0.00069760,0.00047464,0.00035174
 ,0.00073647,-0.00139458,-0.00216868,0.00322100,0.00180810,-0.00116269,
 0.00016147,0.00105768,0.00059019,-0.00066767,0.00018670,0.00104766,-0.
 00373863,-0.00075007,-0.00099439,-0.00006374,0.00011763,0.00014561,0.0
 1388170,-0.03225192,0.00714580,0.00163885,-0.00010509,-0.00074637,-0.0
 0023206,-0.00001297,0.00003866,0.00036222,0.00033068,0.00049863,-0.000
 12359,-0.00081425,-0.00125480,-0.00032127,0.00010050,0.00012102,0.0025
 1506,0.00029135,0.00349546,0.00014112,0.00016538,0.00027279,0.00015508
 ,-0.00007744,0.00034444,-0.00002657,-0.00009665,-0.00011878,-0.0002902
 1,-0.00037417,0.00003802,-0.00426230,0.00083299,-0.00460323,-0.0088900
 4,-0.00173801,0.00252777,0.00470779,0.00096127,0.00060831,-0.00283140,
 -0.00292161,0.00571265,0.01809846,-0.00373214,0.01690395,0.10494839,-0
 .15407165,-0.14443013,0.00082615,0.00037772,-0.00236127,-0.00023691,0.
 00058336,-0.00001800,0.00191432,0.00090328,-0.00391795,0.00193949,0.00
 072419,-0.00116931,-0.13286561,0.18942509,0.12310293\\0.00001118,0.000
 01033,0.00000283,-0.00001433,-0.00000673,-0.00000280,0.00001399,-0.000
 02984,0.00001801,0.00000789,0.00000372,-0.00000658,0.00000481,0.000002
 13,0.00000359,0.00000340,0.00001218,-0.00000755,0.00000264,-0.00000456
 ,0.00000672,0.00000481,0.00002061,0.00001888,-0.00000774,0.00000285,-0
 .00000258,-0.00000502,-0.00000195,-0.00000277,-0.00000535,0.00000591,-
 0.00000812,0.00001264,0.00000496,0.00000390,-0.00000047,0.00000326,-0.
 00000436,-0.00002903,0.00000620,-0.00001976,0.00000044,-0.00000057,0.0
 0001109,-0.00000874,0.00000071,-0.00000327,0.00000692,0.00000677,0.000
 00332,-0.00000228,0.00000236,0.00000175,0.00000959,-0.00001742,0.00000
 257,0.00001781,0.00000137,0.00000121,-0.00003403,0.00000402,-0.0000144
 6,-0.00003108,0.00002472,0.00000624,0.00005706,0.00000513,-0.00003403,
 -0.00004667,-0.00003193,0.00000175,0.00000049,-0.00000100,0.00000328,0
 .00001838,-0.00001517,0.00000299,-0.00001218,0.00000007,0.00001074,0.0
 0001012,-0.00001018,0.00000772,0.00001474,0.00000205,-0.00000033\\\@
 The archive entry for this job was punched.


 EVERYBODY NEEDS BEAUTY AS WELL AS BREAD, PLACES TO PLAY IN AND PRAY IN,
 WHERE NATURE MAY HEAL AND CHEER AND GIVE STRENGTH TO BODY AND SOUL ALIKE.

                                    -- JOHN MUIR
 Job cpu time:       0 days 10 hours 35 minutes 21.3 seconds.
 Elapsed time:       0 days  0 hours 16 minutes  1.2 seconds.
 File lengths (MBytes):  RWF=    632 Int=      0 D2E=      0 Chk=     21 Scr=      1
 Normal termination of Gaussian 16 at Thu Oct 24 12:48:26 2024.
