 Entering Gaussian System, Link 0=g16
 Input=PseudoUridineAmSallgPBE0aVDZ.gjf
 Output=PseudoUridineAmSallgPBE0aVDZ.log
 Initial command:
 /sw/contrib/chem-src/g16/c01/g16/l1.exe "/scr/Gau-40207.inp" -scrdir="/scr/"
 Entering Link 1 = /sw/contrib/chem-src/g16/c01/g16/l1.exe PID=     40208.
  
 Copyright (c) 1988-2019, Gaussian, Inc.  All Rights Reserved.
  
 This is part of the Gaussian(R) 16 program.  It is based on
 the Gaussian(R) 09 system (copyright 2009, Gaussian, Inc.),
 the Gaussian(R) 03 system (copyright 2003, Gaussian, Inc.),
 the Gaussian(R) 98 system (copyright 1998, Gaussian, Inc.),
 the Gaussian(R) 94 system (copyright 1995, Gaussian, Inc.),
 the Gaussian 92(TM) system (copyright 1992, Gaussian, Inc.),
 the Gaussian 90(TM) system (copyright 1990, Gaussian, Inc.),
 the Gaussian 88(TM) system (copyright 1988, Gaussian, Inc.),
 the Gaussian 86(TM) system (copyright 1986, Carnegie Mellon
 University), and the Gaussian 82(TM) system (copyright 1983,
 Carnegie Mellon University). Gaussian is a federally registered
 trademark of Gaussian, Inc.
  
 This software contains proprietary and confidential information,
 including trade secrets, belonging to Gaussian, Inc.
  
 This software is provided under written license and may be
 used, copied, transmitted, or stored only in accord with that
 written license.
  
 The following legend is applicable only to US Government
 contracts under FAR:
  
                    RESTRICTED RIGHTS LEGEND
  
 Use, reproduction and disclosure by the US Government is
 subject to restrictions as set forth in subparagraphs (a)
 and (c) of the Commercial Computer Software - Restricted
 Rights clause in FAR 52.227-19.
  
 Gaussian, Inc.
 340 Quinnipiac St., Bldg. 40, Wallingford CT 06492
  
  
 ---------------------------------------------------------------
 Warning -- This program may not be used in any manner that
 competes with the business of Gaussian, Inc. or will provide
 assistance to any competitor of Gaussian, Inc.  The licensee
 of this program is prohibited from giving any competitor of
 Gaussian, Inc. access to this program.  By using this program,
 the user acknowledges that Gaussian, Inc. is engaged in the
 business of creating and licensing software in the field of
 computational chemistry and represents and warrants to the
 licensee that it is not a competitor of Gaussian, Inc. and that
 it will not use this program in any manner prohibited above.
 ---------------------------------------------------------------
  

 Cite this work as:
 Gaussian 16, Revision C.01,
 M. J. Frisch, G. W. Trucks, H. B. Schlegel, G. E. Scuseria, 
 M. A. Robb, J. R. Cheeseman, G. Scalmani, V. Barone, 
 G. A. Petersson, H. Nakatsuji, X. Li, M. Caricato, A. V. Marenich, 
 J. Bloino, B. G. Janesko, R. Gomperts, B. Mennucci, H. P. Hratchian, 
 J. V. Ortiz, A. F. Izmaylov, J. L. Sonnenberg, D. Williams-Young, 
 F. Ding, F. Lipparini, F. Egidi, J. Goings, B. Peng, A. Petrone, 
 T. Henderson, D. Ranasinghe, V. G. Zakrzewski, J. Gao, N. Rega, 
 G. Zheng, W. Liang, M. Hada, M. Ehara, K. Toyota, R. Fukuda, 
 J. Hasegawa, M. Ishida, T. Nakajima, Y. Honda, O. Kitao, H. Nakai, 
 T. Vreven, K. Throssell, J. A. Montgomery, Jr., J. E. Peralta, 
 F. Ogliaro, M. J. Bearpark, J. J. Heyd, E. N. Brothers, K. N. Kudin, 
 V. N. Staroverov, T. A. Keith, R. Kobayashi, J. Normand, 
 K. Raghavachari, A. P. Rendell, J. C. Burant, S. S. Iyengar, 
 J. Tomasi, M. Cossi, J. M. Millam, M. Klene, C. Adamo, R. Cammi, 
 J. W. Ochterski, R. L. Martin, K. Morokuma, O. Farkas, 
 J. B. Foresman, and D. J. Fox, Gaussian, Inc., Wallingford CT, 2019.
 
 ******************************************
 Gaussian 16:  EM64L-G16RevC.01  3-Jul-2019
                26-Oct-2024 
 ******************************************
 %nprocshared=40
 Will use up to   40 processors via shared memory.
 %mem=50gb
 ------------------------------------------------------
 # PBE1PBE/aug-cc-pVDZ opt freq EmpiricalDispersion=GD3
 ------------------------------------------------------
 1/18=20,19=15,26=3,38=1/1,3;
 2/9=110,12=2,17=6,18=5,40=1/2;
 3/5=16,7=10,11=2,25=1,30=1,71=1,74=-13,124=31/1,2,3;
 4//1;
 5/5=2,38=5/2;
 6/7=2,8=2,9=2,10=2,28=1/1;
 7//1,2,3,16;
 1/18=20,19=15,26=3/3(2);
 2/9=110/2;
 99//99;
 2/9=110/2;
 3/5=16,7=10,11=2,25=1,30=1,71=1,74=-13,124=31/1,2,3;
 4/5=5,16=3,69=1/1;
 5/5=2,38=5/2;
 7//1,2,3,16;
 1/18=20,19=15,26=3/3(-5);
 2/9=110/2;
 6/7=2,8=2,9=2,10=2,19=2,28=1/1;
 99/9=1/99;
 ----
 blah
 ----
 Symbolic Z-matrix:
 Charge = -1 Multiplicity = 1
 C                    -2.77535  -0.5377    0.26376 
 C                    -1.36281  -0.76298   0.81606 
 C                    -0.53507  -0.7358   -0.47106 
 O                    -1.21083  -2.02031   1.45506 
 H                    -1.08084   0.06662   1.47469 
 O                    -1.14739   0.24652  -1.28268 
 H                    -0.63061  -1.73669  -0.93206 
 C                     0.91929  -0.43122  -0.30727 
 C                    -2.52917   0.41536  -0.90233 
 H                    -3.44468  -0.09215   1.01623 
 O                    -3.30105  -1.7533   -0.23254 
 C                    -2.76024   1.87657  -0.56616 
 H                    -3.16432   0.11954  -1.75112 
 O                    -2.11829   2.27269   0.62187 
 H                    -3.83808   2.04176  -0.42261 
 H                    -2.43764   2.48592  -1.42821 
 H                    -2.99638  -2.44798   0.36653 
 H                    -1.34346  -1.9032    2.39938 
 H                    -1.15949   2.15389   0.51199 
 C                     1.86404  -1.31785  -0.70059 
 N                     3.20363  -1.08976  -0.55793 
 C                     3.72597   0.0708   -0.01634 
 N                     2.7513    0.96692   0.36876 
 C                     1.36704   0.82591   0.28221 
 H                     1.59424  -2.2712   -1.15322 
 H                     3.08752   1.83288   0.77366 
 O                     4.91753   0.2701    0.10362 
 O                     0.65509   1.72959   0.70184 
 

 GradGradGradGradGradGradGradGradGradGradGradGradGradGradGradGradGradGrad
 Berny optimization.
 Initialization pass.
                           ----------------------------
                           !    Initial Parameters    !
                           ! (Angstroms and Degrees)  !
 --------------------------                            --------------------------
 ! Name  Definition              Value          Derivative Info.                !
 --------------------------------------------------------------------------------
 ! R1    R(1,2)                  1.5333         estimate D2E/DX2                !
 ! R2    R(1,9)                  1.526          estimate D2E/DX2                !
 ! R3    R(1,10)                 1.1012         estimate D2E/DX2                !
 ! R4    R(1,11)                 1.4143         estimate D2E/DX2                !
 ! R5    R(2,3)                  1.5305         estimate D2E/DX2                !
 ! R6    R(2,4)                  1.4186         estimate D2E/DX2                !
 ! R7    R(2,5)                  1.0962         estimate D2E/DX2                !
 ! R8    R(3,6)                  1.4137         estimate D2E/DX2                !
 ! R9    R(3,7)                  1.1061         estimate D2E/DX2                !
 ! R10   R(3,8)                  1.4949         estimate D2E/DX2                !
 ! R11   R(4,18)                 0.9608         estimate D2E/DX2                !
 ! R12   R(6,9)                  1.4431         estimate D2E/DX2                !
 ! R13   R(8,20)                 1.354          estimate D2E/DX2                !
 ! R14   R(8,24)                 1.4589         estimate D2E/DX2                !
 ! R15   R(9,12)                 1.5171         estimate D2E/DX2                !
 ! R16   R(9,13)                 1.1006         estimate D2E/DX2                !
 ! R17   R(11,17)                0.9666         estimate D2E/DX2                !
 ! R18   R(12,14)                1.4073         estimate D2E/DX2                !
 ! R19   R(12,15)                1.0998         estimate D2E/DX2                !
 ! R20   R(12,16)                1.1039         estimate D2E/DX2                !
 ! R21   R(14,19)                0.9724         estimate D2E/DX2                !
 ! R22   R(20,21)                1.3663         estimate D2E/DX2                !
 ! R23   R(20,25)                1.0893         estimate D2E/DX2                !
 ! R24   R(21,22)                1.3831         estimate D2E/DX2                !
 ! R25   R(22,23)                1.3789         estimate D2E/DX2                !
 ! R26   R(22,27)                1.2141         estimate D2E/DX2                !
 ! R27   R(23,24)                1.3941         estimate D2E/DX2                !
 ! R28   R(23,26)                1.0134         estimate D2E/DX2                !
 ! R29   R(24,28)                1.2246         estimate D2E/DX2                !
 ! A1    A(2,1,9)              102.6145         estimate D2E/DX2                !
 ! A2    A(2,1,10)             111.916          estimate D2E/DX2                !
 ! A3    A(2,1,11)             110.0309         estimate D2E/DX2                !
 ! A4    A(9,1,10)             111.5621         estimate D2E/DX2                !
 ! A5    A(9,1,11)             109.1845         estimate D2E/DX2                !
 ! A6    A(10,1,11)            111.1977         estimate D2E/DX2                !
 ! A7    A(1,2,3)              101.1104         estimate D2E/DX2                !
 ! A8    A(1,2,4)              113.0283         estimate D2E/DX2                !
 ! A9    A(1,2,5)              110.0115         estimate D2E/DX2                !
 ! A10   A(3,2,4)              109.6705         estimate D2E/DX2                !
 ! A11   A(3,2,5)              110.6543         estimate D2E/DX2                !
 ! A12   A(4,2,5)              111.8756         estimate D2E/DX2                !
 ! A13   A(2,3,6)              105.1227         estimate D2E/DX2                !
 ! A14   A(2,3,7)              106.7207         estimate D2E/DX2                !
 ! A15   A(2,3,8)              115.9523         estimate D2E/DX2                !
 ! A16   A(6,3,7)              110.6139         estimate D2E/DX2                !
 ! A17   A(6,3,8)              110.0422         estimate D2E/DX2                !
 ! A18   A(7,3,8)              108.3049         estimate D2E/DX2                !
 ! A19   A(2,4,18)             108.6585         estimate D2E/DX2                !
 ! A20   A(3,6,9)              110.1642         estimate D2E/DX2                !
 ! A21   A(3,8,20)             120.9017         estimate D2E/DX2                !
 ! A22   A(3,8,24)             121.2273         estimate D2E/DX2                !
 ! A23   A(20,8,24)            117.871          estimate D2E/DX2                !
 ! A24   A(1,9,6)              106.4276         estimate D2E/DX2                !
 ! A25   A(1,9,12)             114.0571         estimate D2E/DX2                !
 ! A26   A(1,9,13)             109.1677         estimate D2E/DX2                !
 ! A27   A(6,9,12)             108.4782         estimate D2E/DX2                !
 ! A28   A(6,9,13)             108.5335         estimate D2E/DX2                !
 ! A29   A(12,9,13)            109.9908         estimate D2E/DX2                !
 ! A30   A(1,11,17)            106.4433         estimate D2E/DX2                !
 ! A31   A(9,12,14)            112.8737         estimate D2E/DX2                !
 ! A32   A(9,12,15)            108.8355         estimate D2E/DX2                !
 ! A33   A(9,12,16)            108.3084         estimate D2E/DX2                !
 ! A34   A(14,12,15)           107.1321         estimate D2E/DX2                !
 ! A35   A(14,12,16)           111.751          estimate D2E/DX2                !
 ! A36   A(15,12,16)           107.7839         estimate D2E/DX2                !
 ! A37   A(12,14,19)           108.6639         estimate D2E/DX2                !
 ! A38   A(8,20,21)            122.9867         estimate D2E/DX2                !
 ! A39   A(8,20,25)            121.3983         estimate D2E/DX2                !
 ! A40   A(21,20,25)           115.6147         estimate D2E/DX2                !
 ! A41   A(20,21,22)           123.4498         estimate D2E/DX2                !
 ! A42   A(21,22,23)           112.813          estimate D2E/DX2                !
 ! A43   A(21,22,27)           123.1674         estimate D2E/DX2                !
 ! A44   A(23,22,27)           124.0196         estimate D2E/DX2                !
 ! A45   A(22,23,24)           128.2279         estimate D2E/DX2                !
 ! A46   A(22,23,26)           115.6221         estimate D2E/DX2                !
 ! A47   A(24,23,26)           116.1472         estimate D2E/DX2                !
 ! A48   A(8,24,23)            114.6445         estimate D2E/DX2                !
 ! A49   A(8,24,28)            126.5786         estimate D2E/DX2                !
 ! A50   A(23,24,28)           118.7742         estimate D2E/DX2                !
 ! D1    D(9,1,2,3)            -35.1421         estimate D2E/DX2                !
 ! D2    D(9,1,2,4)           -152.2854         estimate D2E/DX2                !
 ! D3    D(9,1,2,5)             81.8639         estimate D2E/DX2                !
 ! D4    D(10,1,2,3)          -154.876          estimate D2E/DX2                !
 ! D5    D(10,1,2,4)            87.9807         estimate D2E/DX2                !
 ! D6    D(10,1,2,5)           -37.87           estimate D2E/DX2                !
 ! D7    D(11,1,2,3)            80.9625         estimate D2E/DX2                !
 ! D8    D(11,1,2,4)           -36.1808         estimate D2E/DX2                !
 ! D9    D(11,1,2,5)          -162.0315         estimate D2E/DX2                !
 ! D10   D(2,1,9,6)             22.2853         estimate D2E/DX2                !
 ! D11   D(2,1,9,12)           -97.2848         estimate D2E/DX2                !
 ! D12   D(2,1,9,13)           139.2424         estimate D2E/DX2                !
 ! D13   D(10,1,9,6)           142.265          estimate D2E/DX2                !
 ! D14   D(10,1,9,12)           22.6949         estimate D2E/DX2                !
 ! D15   D(10,1,9,13)         -100.7779         estimate D2E/DX2                !
 ! D16   D(11,1,9,6)           -94.4265         estimate D2E/DX2                !
 ! D17   D(11,1,9,12)          146.0034         estimate D2E/DX2                !
 ! D18   D(11,1,9,13)           22.5306         estimate D2E/DX2                !
 ! D19   D(2,1,11,17)           37.3641         estimate D2E/DX2                !
 ! D20   D(9,1,11,17)          149.263          estimate D2E/DX2                !
 ! D21   D(10,1,11,17)         -87.2123         estimate D2E/DX2                !
 ! D22   D(1,2,3,6)             36.8348         estimate D2E/DX2                !
 ! D23   D(1,2,3,7)            -80.6804         estimate D2E/DX2                !
 ! D24   D(1,2,3,8)            158.5939         estimate D2E/DX2                !
 ! D25   D(4,2,3,6)            156.4099         estimate D2E/DX2                !
 ! D26   D(4,2,3,7)             38.8948         estimate D2E/DX2                !
 ! D27   D(4,2,3,8)            -81.8309         estimate D2E/DX2                !
 ! D28   D(5,2,3,6)            -79.6991         estimate D2E/DX2                !
 ! D29   D(5,2,3,7)            162.7857         estimate D2E/DX2                !
 ! D30   D(5,2,3,8)             42.06           estimate D2E/DX2                !
 ! D31   D(1,2,4,18)           -95.5154         estimate D2E/DX2                !
 ! D32   D(3,2,4,18)           152.503          estimate D2E/DX2                !
 ! D33   D(5,2,4,18)            29.3294         estimate D2E/DX2                !
 ! D34   D(2,3,6,9)            -24.0788         estimate D2E/DX2                !
 ! D35   D(7,3,6,9)             90.7601         estimate D2E/DX2                !
 ! D36   D(8,3,6,9)           -149.609          estimate D2E/DX2                !
 ! D37   D(2,3,8,20)           119.9566         estimate D2E/DX2                !
 ! D38   D(2,3,8,24)           -59.9191         estimate D2E/DX2                !
 ! D39   D(6,3,8,20)          -120.9391         estimate D2E/DX2                !
 ! D40   D(6,3,8,24)            59.1852         estimate D2E/DX2                !
 ! D41   D(7,3,8,20)             0.0865         estimate D2E/DX2                !
 ! D42   D(7,3,8,24)          -179.7892         estimate D2E/DX2                !
 ! D43   D(3,6,9,1)              0.934          estimate D2E/DX2                !
 ! D44   D(3,6,9,12)           124.0698         estimate D2E/DX2                !
 ! D45   D(3,6,9,13)          -116.445          estimate D2E/DX2                !
 ! D46   D(3,8,20,21)         -179.2756         estimate D2E/DX2                !
 ! D47   D(3,8,20,25)            0.5027         estimate D2E/DX2                !
 ! D48   D(24,8,20,21)           0.6042         estimate D2E/DX2                !
 ! D49   D(24,8,20,25)        -179.6175         estimate D2E/DX2                !
 ! D50   D(3,8,24,23)         -179.9853         estimate D2E/DX2                !
 ! D51   D(3,8,24,28)            0.6348         estimate D2E/DX2                !
 ! D52   D(20,8,24,23)           0.1353         estimate D2E/DX2                !
 ! D53   D(20,8,24,28)        -179.2446         estimate D2E/DX2                !
 ! D54   D(1,9,12,14)           48.8017         estimate D2E/DX2                !
 ! D55   D(1,9,12,15)          -69.9958         estimate D2E/DX2                !
 ! D56   D(1,9,12,16)          173.0817         estimate D2E/DX2                !
 ! D57   D(6,9,12,14)          -69.6046         estimate D2E/DX2                !
 ! D58   D(6,9,12,15)          171.5978         estimate D2E/DX2                !
 ! D59   D(6,9,12,16)           54.6753         estimate D2E/DX2                !
 ! D60   D(13,9,12,14)         171.828          estimate D2E/DX2                !
 ! D61   D(13,9,12,15)          53.0304         estimate D2E/DX2                !
 ! D62   D(13,9,12,16)         -63.8921         estimate D2E/DX2                !
 ! D63   D(9,12,14,19)          61.4419         estimate D2E/DX2                !
 ! D64   D(15,12,14,19)       -178.7748         estimate D2E/DX2                !
 ! D65   D(16,12,14,19)        -60.9289         estimate D2E/DX2                !
 ! D66   D(8,20,21,22)          -0.8681         estimate D2E/DX2                !
 ! D67   D(25,20,21,22)        179.3418         estimate D2E/DX2                !
 ! D68   D(20,21,22,23)          0.2976         estimate D2E/DX2                !
 ! D69   D(20,21,22,27)       -179.7277         estimate D2E/DX2                !
 ! D70   D(21,22,23,24)          0.522          estimate D2E/DX2                !
 ! D71   D(21,22,23,26)        179.8822         estimate D2E/DX2                !
 ! D72   D(27,22,23,24)       -179.4524         estimate D2E/DX2                !
 ! D73   D(27,22,23,26)         -0.0923         estimate D2E/DX2                !
 ! D74   D(22,23,24,8)          -0.7332         estimate D2E/DX2                !
 ! D75   D(22,23,24,28)        178.6987         estimate D2E/DX2                !
 ! D76   D(26,23,24,8)         179.9095         estimate D2E/DX2                !
 ! D77   D(26,23,24,28)         -0.6585         estimate D2E/DX2                !
 --------------------------------------------------------------------------------
 Trust Radius=3.00D-01 FncErr=1.00D-07 GrdErr=1.00D-06 EigMax=2.50D+02 EigMin=1.00D-04
 Number of steps in this run=    166 maximum allowed number of steps=    168.
 GradGradGradGradGradGradGradGradGradGradGradGradGradGradGradGradGradGrad

                          Input orientation:                          
 ---------------------------------------------------------------------
 Center     Atomic      Atomic             Coordinates (Angstroms)
 Number     Number       Type             X           Y           Z
 ---------------------------------------------------------------------
      1          6           0       -2.775348   -0.537695    0.263759
      2          6           0       -1.362814   -0.762981    0.816055
      3          6           0       -0.535066   -0.735799   -0.471061
      4          8           0       -1.210827   -2.020310    1.455056
      5          1           0       -1.080836    0.066623    1.474685
      6          8           0       -1.147392    0.246516   -1.282683
      7          1           0       -0.630610   -1.736686   -0.932056
      8          6           0        0.919285   -0.431215   -0.307265
      9          6           0       -2.529166    0.415363   -0.902328
     10          1           0       -3.444684   -0.092150    1.016235
     11          8           0       -3.301051   -1.753304   -0.232537
     12          6           0       -2.760238    1.876567   -0.566163
     13          1           0       -3.164322    0.119536   -1.751115
     14          8           0       -2.118285    2.272692    0.621873
     15          1           0       -3.838081    2.041755   -0.422606
     16          1           0       -2.437637    2.485920   -1.428207
     17          1           0       -2.996379   -2.447979    0.366526
     18          1           0       -1.343457   -1.903202    2.399383
     19          1           0       -1.159486    2.153894    0.511994
     20          6           0        1.864038   -1.317845   -0.700586
     21          7           0        3.203633   -1.089759   -0.557934
     22          6           0        3.725969    0.070795   -0.016342
     23          7           0        2.751298    0.966915    0.368757
     24          6           0        1.367038    0.825912    0.282207
     25          1           0        1.594242   -2.271197   -1.153215
     26          1           0        3.087515    1.832884    0.773656
     27          8           0        4.917534    0.270097    0.103618
     28          8           0        0.655093    1.729591    0.701842
 ---------------------------------------------------------------------
                    Distance matrix (angstroms):
                    1          2          3          4          5
     1  C    0.000000
     2  C    1.533309   0.000000
     3  C    2.366024   1.530547   0.000000
     4  O    2.462735   1.418555   2.411752   0.000000
     5  H    2.168620   1.096151   2.174321   2.091070   0.000000
     6  O    2.378384   2.338844   1.413724   3.554960   2.764031
     7  H    2.732664   2.130755   1.106083   2.472933   3.040893
     8  C    3.740016   2.565130   1.494904   3.188789   2.724642
     9  C    1.526003   2.387826   2.342563   3.637002   2.805258
    10  H    1.101245   2.196422   3.330497   2.983368   2.413123
    11  O    1.414347   2.415998   2.956837   2.699685   3.340074
    12  C    2.552971   3.290978   3.432913   4.655282   3.203334
    13  H    2.154755   3.258010   3.046822   4.321414   3.840508
    14  O    2.908307   3.134287   3.571009   4.466267   2.582698
    15  H    2.872988   3.940529   4.315908   5.189263   3.886291
    16  H    3.481242   4.092348   3.862043   5.488568   4.015058
    17  H    1.925773   2.389525   3.113065   2.134478   3.349708
    18  H    2.911325   1.951258   3.202464   0.960759   2.191859
    19  H    3.149172   2.939720   3.115545   4.279717   2.299926
    20  C    4.802343   3.608413   2.479347   3.820346   3.914184
    21  N    6.060377   4.779861   3.756422   4.940193   4.881130
    22  C    6.535736   5.223388   4.360480   5.559648   5.032748
    23  N    5.728760   4.485369   3.795355   5.079566   4.088869
    24  C    4.361092   3.203384   2.573782   4.015214   2.826767
    25  H    4.909803   3.859653   2.712330   3.838546   4.418971
    26  H    6.344510   5.152256   4.612000   5.812672   4.581077
    27  O    7.736834   6.404497   5.574310   6.680506   6.156433
    28  O    4.135266   3.209035   2.978310   4.255672   2.525114
                    6          7          8          9         10
     6  O    0.000000
     7  H    2.079205   0.000000
     8  C    2.383676   2.120564   0.000000
     9  C    1.443080   2.869968   3.600362   0.000000
    10  H    3.267609   3.797282   4.572837   2.185550   0.000000
    11  O    3.120951   2.760590   4.423205   2.397403   2.083145
    12  C    2.402444   4.210082   4.351066   1.517076   2.616925
    13  H    2.074502   3.245938   4.366220   1.100625   2.789559
    14  O    2.945396   4.550053   4.171480   2.437557   2.739951
    15  H    3.347002   4.982372   5.362967   2.142088   2.603570
    16  H    2.588598   4.619731   4.586405   2.138255   3.692680
    17  H    3.660457   2.790899   4.455755   3.166545   2.484558
    18  H    4.268177   3.410918   3.822655   4.205109   3.099704
    19  H    2.618989   4.183492   3.416908   2.626560   3.243625
    20  C    3.443076   2.540133   1.354021   4.727045   5.712472
    21  N    4.608938   3.906392   2.390557   5.937085   6.904589
    22  C    5.038268   4.804716   2.866030   6.326959   7.246450
    23  N    4.294882   4.520937   2.401675   5.459228   6.319101
    24  C    3.017770   3.468709   1.458879   4.092930   4.953211
    25  H    3.724540   2.298821   2.134650   4.927783   5.903011
    26  H    4.967850   5.429156   3.315985   6.030373   6.814266
    27  O    6.221392   5.990134   4.080032   7.515742   8.419666
    28  O    3.063789   4.041996   2.399412   3.800008   4.497305
                   11         12         13         14         15
    11  O    0.000000
    12  C    3.685071   0.000000
    13  H    2.415016   2.157441   0.000000
    14  O    4.282242   1.407284   3.370660   0.000000
    15  H    3.837577   1.099837   2.431833   2.025331   0.000000
    16  H    4.488444   1.103858   2.496420   2.085732   1.780382
    17  H    0.966579   4.430279   3.332378   4.808429   4.635612
    18  H    3.283542   5.008831   4.963230   4.604128   5.454306
    19  H    4.517391   1.949805   3.644124   0.972359   2.839177
    20  C    5.204502   5.621945   5.334237   5.522658   6.624073
    21  N    6.546533   6.660849   6.590670   6.404751   7.707816
    22  C    7.263132   6.755294   7.105485   6.277816   7.827170
    23  N    6.662738   5.663795   6.340857   5.047966   6.723203
    24  C    5.358019   4.342582   5.016631   3.788934   5.391503
    25  H    5.007969   6.042357   5.358826   6.130312   6.974631
    26  H    7.395062   5.999436   6.956687   5.226550   7.031255
    27  O    8.470672   7.872581   8.293317   7.333602   8.948546
    28  O    5.353008   3.646083   4.816348   2.827186   4.642245
                   16         17         18         19         20
    16  H    0.000000
    17  H    5.279831   0.000000
    18  H    5.925544   2.676087   0.000000
    19  H    2.346975   4.957073   4.478405   0.000000
    20  C    5.788132   5.102900   4.498942   4.760779   0.000000
    21  N    6.735487   6.414011   5.484837   5.541014   1.366341
    22  C    6.768769   7.188934   5.952434   5.337238   2.421425
    23  N    5.697500   6.685604   5.397039   4.089458   2.674108
    24  C    4.489621   5.455720   4.390590   2.863505   2.410101
    25  H    6.241941   4.838870   4.624548   5.471505   1.089286
    26  H    5.983474   7.450189   6.019538   4.267146   3.687462
    27  O    7.832937   8.371802   7.013827   6.375393   3.534422
    28  O    3.830682   5.558577   4.480294   1.873172   3.565841
                   21         22         23         24         25
    21  N    0.000000
    22  C    1.383128   0.000000
    23  N    2.300711   1.378882   0.000000
    24  C    2.783651   2.494772   1.394112   0.000000
    25  H    2.083337   3.364768   3.760392   3.421132   0.000000
    26  H    3.213792   2.033882   1.013355   2.053182   4.773487
    27  O    2.285676   1.214059   2.290946   3.598173   4.368303
    28  O    4.003851   3.563379   2.255370   1.224579   4.508829
                   26         27         28
    26  H    0.000000
    27  O    2.498044   0.000000
    28  O    2.435673   4.544931   0.000000
 Stoichiometry    C9H11N2O6(1-)
 Framework group  C1[X(C9H11N2O6)]
 Deg. of freedom    78
 Full point group                 C1      NOp   1
 Largest Abelian subgroup         C1      NOp   1
 Largest concise Abelian subgroup C1      NOp   1
                         Standard orientation:                         
 ---------------------------------------------------------------------
 Center     Atomic      Atomic             Coordinates (Angstroms)
 Number     Number       Type             X           Y           Z
 ---------------------------------------------------------------------
      1          6           0       -2.749944   -0.521577    0.264102
      2          6           0       -1.337676   -0.769630    0.807249
      3          6           0       -0.515611   -0.738483   -0.483415
      4          8           0       -1.197819   -2.035484    1.432030
      5          1           0       -1.042741    0.049417    1.473374
      6          8           0       -1.119862    0.259743   -1.281564
      7          1           0       -0.625268   -1.733141   -0.954636
      8          6           0        0.943025   -0.453054   -0.323270
      9          6           0       -2.497744    0.440965   -0.892874
     10          1           0       -3.410413   -0.076198    1.024469
     11          8           0       -3.292460   -1.725417   -0.242675
     12          6           0       -2.709736    1.901121   -0.539999
     13          1           0       -3.140310    0.161885   -1.741756
     14          8           0       -2.057606    2.276755    0.649150
     15          1           0       -3.784848    2.077604   -0.389571
     16          1           0       -2.383839    2.515819   -1.396993
     17          1           0       -2.993372   -2.430083    0.347468
     18          1           0       -1.324676   -1.926967    2.378174
     19          1           0       -1.100817    2.147713    0.533459
     20          6           0        1.875261   -1.346611   -0.730533
     21          7           0        3.218137   -1.136074   -0.591805
     22          6           0        3.756836    0.012272   -0.040308
     23          7           0        2.794760    0.915763    0.358978
     24          6           0        1.408526    0.792227    0.277491
     25          1           0        1.591975   -2.291752   -1.192054
     26          1           0        3.143195    1.773253    0.771521
     27          8           0        4.951245    0.196039    0.076124
     28          8           0        0.709404    1.699770    0.710145
 ---------------------------------------------------------------------
 Rotational constants (GHZ):           0.9398707           0.3040367           0.2611023
 Standard basis: Aug-CC-pVDZ (5D, 7F)
 There are   524 symmetry adapted cartesian basis functions of A   symmetry.
 There are   490 symmetry adapted basis functions of A   symmetry.
   490 basis functions,   852 primitive gaussians,   524 cartesian basis functions
    64 alpha electrons       64 beta electrons
       nuclear repulsion energy      1307.1339765721 Hartrees.
 NAtoms=   28 NActive=   28 NUniq=   28 SFac= 1.00D+00 NAtFMM=   60 NAOKFM=F Big=F
 Integral buffers will be    131072 words long.
 Raffenetti 2 integral format.
 Two-electron integral symmetry is turned on.
 Nuclear repulsion after empirical dispersion term =     1307.1141499094 Hartrees.
 One-electron integrals computed using PRISM.
 NBasis=   490 RedAO= T EigKep=  2.70D-06  NBF=   490
 NBsUse=   490 1.00D-06 EigRej= -1.00D+00 NBFU=   490
 ExpMin= 2.97D-02 ExpMax= 1.17D+04 ExpMxC= 4.01D+02 IAcc=3 IRadAn=         5 AccDes= 0.00D+00
 Harris functional with IExCor= 1009 and IRadAn=       5 diagonalized for initial guess.
 HarFok:  IExCor= 1009 AccDes= 0.00D+00 IRadAn=         5 IDoV= 1 UseB2=F ITyADJ=14
 ICtDFT=  3500011 ScaDFX=  1.000000  1.000000  1.000000  1.000000
 FoFCou: FMM=F IPFlag=           0 FMFlag=      100000 FMFlg1=           0
         NFxFlg=           0 DoJE=T BraDBF=F KetDBF=T FulRan=T
         wScrn=  0.000000 ICntrl=       500 IOpCl=  0 I1Cent=   200000004 NGrid=           0
         NMat0=    1 NMatS0=      1 NMatT0=    0 NMatD0=    1 NMtDS0=    0 NMtDT0=    0
 Petite list used in FoFCou.
 Requested convergence on RMS density matrix=1.00D-08 within 128 cycles.
 Requested convergence on MAX density matrix=1.00D-06.
 Requested convergence on             energy=1.00D-06.
 No special actions if energy rises.
 SCF Done:  E(RPBE1PBE) =  -909.688423781     A.U. after   14 cycles
            NFock= 14  Conv=0.57D-08     -V/T= 2.0052

 **********************************************************************

            Population analysis using the SCF Density.

 **********************************************************************

 Orbital symmetries:
       Occupied  (A) (A) (A) (A) (A) (A) (A) (A) (A) (A) (A) (A)
                 (A) (A) (A) (A) (A) (A) (A) (A) (A) (A) (A) (A)
                 (A) (A) (A) (A) (A) (A) (A) (A) (A) (A) (A) (A)
                 (A) (A) (A) (A) (A) (A) (A) (A) (A) (A) (A) (A)
                 (A) (A) (A) (A) (A) (A) (A) (A) (A) (A) (A) (A)
                 (A) (A) (A) (A)
       Virtual   (A) (A) (A) (A) (A) (A) (A) (A) (A) (A) (A) (A)
                 (A) (A) (A) (A) (A) (A) (A) (A) (A) (A) (A) (A)
                 (A) (A) (A) (A) (A) (A) (A) (A) (A) (A) (A) (A)
                 (A) (A) (A) (A) (A) (A) (A) (A) (A) (A) (A) (A)
                 (A) (A) (A) (A) (A) (A) (A) (A) (A) (A) (A) (A)
                 (A) (A) (A) (A) (A) (A) (A) (A) (A) (A) (A) (A)
                 (A) (A) (A) (A) (A) (A) (A) (A) (A) (A) (A) (A)
                 (A) (A) (A) (A) (A) (A) (A) (A) (A) (A) (A) (A)
                 (A) (A) (A) (A) (A) (A) (A) (A) (A) (A) (A) (A)
                 (A) (A) (A) (A) (A) (A) (A) (A) (A) (A) (A) (A)
                 (A) (A) (A) (A) (A) (A) (A) (A) (A) (A) (A) (A)
                 (A) (A) (A) (A) (A) (A) (A) (A) (A) (A) (A) (A)
                 (A) (A) (A) (A) (A) (A) (A) (A) (A) (A) (A) (A)
                 (A) (A) (A) (A) (A) (A) (A) (A) (A) (A) (A) (A)
                 (A) (A) (A) (A) (A) (A) (A) (A) (A) (A) (A) (A)
                 (A) (A) (A) (A) (A) (A) (A) (A) (A) (A) (A) (A)
                 (A) (A) (A) (A) (A) (A) (A) (A) (A) (A) (A) (A)
                 (A) (A) (A) (A) (A) (A) (A) (A) (A) (A) (A) (A)
                 (A) (A) (A) (A) (A) (A) (A) (A) (A) (A) (A) (A)
                 (A) (A) (A) (A) (A) (A) (A) (A) (A) (A) (A) (A)
                 (A) (A) (A) (A) (A) (A) (A) (A) (A) (A) (A) (A)
                 (A) (A) (A) (A) (A) (A) (A) (A) (A) (A) (A) (A)
                 (A) (A) (A) (A) (A) (A) (A) (A) (A) (A) (A) (A)
                 (A) (A) (A) (A) (A) (A) (A) (A) (A) (A) (A) (A)
                 (A) (A) (A) (A) (A) (A) (A) (A) (A) (A) (A) (A)
                 (A) (A) (A) (A) (A) (A) (A) (A) (A) (A) (A) (A)
                 (A) (A) (A) (A) (A) (A) (A) (A) (A) (A) (A) (A)
                 (A) (A) (A) (A) (A) (A) (A) (A) (A) (A) (A) (A)
                 (A) (A) (A) (A) (A) (A) (A) (A) (A) (A) (A) (A)
                 (A) (A) (A) (A) (A) (A) (A) (A) (A) (A) (A) (A)
                 (A) (A) (A) (A) (A) (A) (A) (A) (A) (A) (A) (A)
                 (A) (A) (A) (A) (A) (A) (A) (A) (A) (A) (A) (A)
                 (A) (A) (A) (A) (A) (A) (A) (A) (A) (A) (A) (A)
                 (A) (A) (A) (A) (A) (A) (A) (A) (A) (A) (A) (A)
                 (A) (A) (A) (A) (A) (A) (A) (A) (A) (A) (A) (A)
                 (A) (A) (A) (A) (A) (A)
 The electronic state is 1-A.
 Alpha  occ. eigenvalues --  -19.15047 -19.13049 -19.11591 -19.10301 -19.06357
 Alpha  occ. eigenvalues --  -19.03437 -14.29680 -14.21671 -10.20492 -10.19850
 Alpha  occ. eigenvalues --  -10.18220 -10.17881 -10.17604 -10.17268 -10.16798
 Alpha  occ. eigenvalues --  -10.13516 -10.08922  -0.99254  -0.96585  -0.95447
 Alpha  occ. eigenvalues --   -0.94920  -0.93418  -0.92445  -0.82577  -0.75816
 Alpha  occ. eigenvalues --   -0.69872  -0.69283  -0.64209  -0.57912  -0.53461
 Alpha  occ. eigenvalues --   -0.53066  -0.50947  -0.49133  -0.45964  -0.43267
 Alpha  occ. eigenvalues --   -0.42340  -0.40729  -0.40283  -0.39567  -0.37817
 Alpha  occ. eigenvalues --   -0.36358  -0.34726  -0.33623  -0.32656  -0.32299
 Alpha  occ. eigenvalues --   -0.31174  -0.30040  -0.29272  -0.28491  -0.27601
 Alpha  occ. eigenvalues --   -0.26537  -0.26425  -0.24070  -0.23785  -0.20553
 Alpha  occ. eigenvalues --   -0.19849  -0.19019  -0.18137  -0.16686  -0.15278
 Alpha  occ. eigenvalues --   -0.14775  -0.13030  -0.11142  -0.07618
 Alpha virt. eigenvalues --    0.07034   0.08450   0.09607   0.10213   0.11217
 Alpha virt. eigenvalues --    0.11510   0.11655   0.11911   0.12325   0.13243
 Alpha virt. eigenvalues --    0.14448   0.14692   0.15495   0.15891   0.16006
 Alpha virt. eigenvalues --    0.16539   0.16772   0.17220   0.17739   0.17947
 Alpha virt. eigenvalues --    0.18291   0.18929   0.19291   0.19564   0.19980
 Alpha virt. eigenvalues --    0.20135   0.20504   0.21056   0.21220   0.21665
 Alpha virt. eigenvalues --    0.21967   0.22253   0.22661   0.23273   0.23731
 Alpha virt. eigenvalues --    0.24054   0.24233   0.24612   0.25207   0.25567
 Alpha virt. eigenvalues --    0.26011   0.26514   0.26722   0.27910   0.28014
 Alpha virt. eigenvalues --    0.28095   0.29036   0.29579   0.29850   0.30291
 Alpha virt. eigenvalues --    0.30741   0.31126   0.31478   0.32079   0.32389
 Alpha virt. eigenvalues --    0.32705   0.33189   0.33582   0.33815   0.34371
 Alpha virt. eigenvalues --    0.34630   0.35020   0.35416   0.35775   0.36119
 Alpha virt. eigenvalues --    0.36510   0.36765   0.36976   0.37173   0.37875
 Alpha virt. eigenvalues --    0.38135   0.38417   0.38663   0.38890   0.39141
 Alpha virt. eigenvalues --    0.39368   0.39908   0.40328   0.40775   0.41056
 Alpha virt. eigenvalues --    0.41322   0.41974   0.42285   0.42590   0.42813
 Alpha virt. eigenvalues --    0.43075   0.43548   0.44096   0.44650   0.45071
 Alpha virt. eigenvalues --    0.45623   0.46059   0.46392   0.47060   0.47305
 Alpha virt. eigenvalues --    0.47756   0.48147   0.48768   0.49045   0.49694
 Alpha virt. eigenvalues --    0.50170   0.50700   0.50774   0.51258   0.51649
 Alpha virt. eigenvalues --    0.52660   0.53027   0.54045   0.54532   0.54965
 Alpha virt. eigenvalues --    0.55483   0.55976   0.56607   0.56970   0.57359
 Alpha virt. eigenvalues --    0.57697   0.58277   0.59026   0.59332   0.59922
 Alpha virt. eigenvalues --    0.60365   0.60726   0.61904   0.62166   0.63260
 Alpha virt. eigenvalues --    0.63436   0.63720   0.64454   0.65041   0.65363
 Alpha virt. eigenvalues --    0.66359   0.67176   0.67335   0.67425   0.68183
 Alpha virt. eigenvalues --    0.68463   0.69403   0.70562   0.70991   0.71484
 Alpha virt. eigenvalues --    0.71823   0.72462   0.72880   0.73911   0.74378
 Alpha virt. eigenvalues --    0.74731   0.75305   0.75583   0.76377   0.77028
 Alpha virt. eigenvalues --    0.77246   0.77655   0.77991   0.78512   0.78575
 Alpha virt. eigenvalues --    0.79211   0.79902   0.80507   0.80708   0.80856
 Alpha virt. eigenvalues --    0.81601   0.82709   0.83307   0.83597   0.83957
 Alpha virt. eigenvalues --    0.84706   0.85563   0.85983   0.86710   0.87222
 Alpha virt. eigenvalues --    0.87612   0.87816   0.88558   0.90418   0.90747
 Alpha virt. eigenvalues --    0.90932   0.91910   0.93097   0.93390   0.93997
 Alpha virt. eigenvalues --    0.94280   0.95095   0.95589   0.96093   0.96386
 Alpha virt. eigenvalues --    0.97112   0.98200   0.99375   0.99714   1.00595
 Alpha virt. eigenvalues --    1.00961   1.01882   1.02555   1.03480   1.04340
 Alpha virt. eigenvalues --    1.04919   1.05422   1.05850   1.06604   1.08398
 Alpha virt. eigenvalues --    1.09801   1.10409   1.11600   1.12628   1.13187
 Alpha virt. eigenvalues --    1.13809   1.14578   1.15331   1.16310   1.17407
 Alpha virt. eigenvalues --    1.17791   1.18511   1.19359   1.21022   1.21767
 Alpha virt. eigenvalues --    1.22030   1.22545   1.24036   1.24327   1.25618
 Alpha virt. eigenvalues --    1.26406   1.27228   1.27802   1.29168   1.30144
 Alpha virt. eigenvalues --    1.30945   1.31930   1.31998   1.32963   1.33043
 Alpha virt. eigenvalues --    1.34204   1.34768   1.35329   1.37802   1.38464
 Alpha virt. eigenvalues --    1.38962   1.39211   1.40969   1.41680   1.42567
 Alpha virt. eigenvalues --    1.43622   1.45347   1.46667   1.47602   1.48519
 Alpha virt. eigenvalues --    1.49518   1.50844   1.51124   1.52306   1.53654
 Alpha virt. eigenvalues --    1.53691   1.55151   1.56008   1.57766   1.58900
 Alpha virt. eigenvalues --    1.59184   1.59494   1.60774   1.62436   1.63741
 Alpha virt. eigenvalues --    1.64611   1.65899   1.66768   1.67444   1.68886
 Alpha virt. eigenvalues --    1.69447   1.69716   1.70895   1.71880   1.72386
 Alpha virt. eigenvalues --    1.73464   1.74399   1.75431   1.76105   1.78188
 Alpha virt. eigenvalues --    1.78508   1.79143   1.81354   1.81875   1.83003
 Alpha virt. eigenvalues --    1.83117   1.85010   1.85917   1.86819   1.88287
 Alpha virt. eigenvalues --    1.89658   1.90511   1.91662   1.92014   1.93373
 Alpha virt. eigenvalues --    1.93695   1.94145   1.95402   1.95912   1.97014
 Alpha virt. eigenvalues --    1.97786   1.98635   2.00008   2.00174   2.01769
 Alpha virt. eigenvalues --    2.03194   2.04090   2.05625   2.06093   2.06641
 Alpha virt. eigenvalues --    2.07659   2.08842   2.10131   2.10577   2.12769
 Alpha virt. eigenvalues --    2.13040   2.14716   2.14841   2.17555   2.18059
 Alpha virt. eigenvalues --    2.18898   2.19658   2.20253   2.21921   2.23346
 Alpha virt. eigenvalues --    2.24530   2.25066   2.25432   2.26505   2.27843
 Alpha virt. eigenvalues --    2.28683   2.29749   2.30278   2.32339   2.33095
 Alpha virt. eigenvalues --    2.35476   2.36842   2.37900   2.39201   2.40054
 Alpha virt. eigenvalues --    2.41267   2.41827   2.43245   2.45017   2.45772
 Alpha virt. eigenvalues --    2.47840   2.49920   2.50851   2.51504   2.51581
 Alpha virt. eigenvalues --    2.53533   2.54800   2.56967   2.57989   2.58565
 Alpha virt. eigenvalues --    2.60947   2.62252   2.63168   2.64535   2.65748
 Alpha virt. eigenvalues --    2.66447   2.68430   2.69155   2.70816   2.71739
 Alpha virt. eigenvalues --    2.73128   2.75913   2.76774   2.77506   2.78942
 Alpha virt. eigenvalues --    2.81340   2.82542   2.84136   2.85205   2.88553
 Alpha virt. eigenvalues --    2.89491   2.91500   2.93756   2.96407   3.00498
 Alpha virt. eigenvalues --    3.02707   3.05004   3.05707   3.07482   3.10199
 Alpha virt. eigenvalues --    3.13594   3.14798   3.19522   3.26920   3.27916
 Alpha virt. eigenvalues --    3.33313   3.33789   3.42078   3.44793   3.48270
 Alpha virt. eigenvalues --    3.50966   3.53008   3.53731   3.55496   3.58374
 Alpha virt. eigenvalues --    3.58990   3.59842   3.59917   3.61367   3.61880
 Alpha virt. eigenvalues --    3.63608   3.65590   3.67346   3.68181   3.69697
 Alpha virt. eigenvalues --    3.71442   3.73165   3.74897   3.76086   3.79023
 Alpha virt. eigenvalues --    3.79687   3.85322   3.86084   3.86540   3.91765
 Alpha virt. eigenvalues --    3.92962   3.97423   3.99706   4.01033   4.07826
 Alpha virt. eigenvalues --    4.12579   4.15804   4.27285   4.34167   4.42308
 Alpha virt. eigenvalues --    4.74859
          Condensed to atoms (all electrons):
               1          2          3          4          5          6
     1  C    9.413189  -2.886887   1.014065   0.300067   0.279232   0.200674
     2  C   -2.886887  11.009032  -4.504863  -0.742491  -0.605516  -0.049469
     3  C    1.014065  -4.504863  24.635387   0.170450  -1.285225  -1.229358
     4  O    0.300067  -0.742491   0.170450   8.655924  -0.049660   0.026289
     5  H    0.279232  -0.605516  -1.285225  -0.049660   2.793755   0.140078
     6  O    0.200674  -0.049469  -1.229358   0.026289   0.140078   9.586885
     7  H   -0.369902   0.944171  -2.446116  -0.058645   0.125978   0.081569
     8  C    0.067273   0.823857  -5.678072  -0.013683   0.337318   0.270497
     9  C   -1.912449   1.197637  -4.616343   0.105520   0.120481   0.072723
    10  H   -0.895730   0.401830   0.453112  -0.052095  -0.156570  -0.015719
    11  O   -0.560776   0.118376  -0.086026  -0.018882   0.003060   0.021996
    12  C   -0.071443  -0.076296   0.548145  -0.025225  -0.000542  -0.012089
    13  H    0.184321   0.097959   0.579438  -0.009675  -0.002520  -0.281730
    14  O    0.005599  -0.063880  -0.068820  -0.000970   0.016046  -0.020511
    15  H    0.090270  -0.039238  -0.001319  -0.000159   0.017531   0.115685
    16  H    0.005131  -0.008153  -0.022095  -0.000652  -0.002273  -0.031707
    17  H    0.151259  -0.160369  -0.017314   0.044160   0.036948   0.011359
    18  H   -0.167113   0.243949   0.035076   0.303933  -0.156953  -0.009360
    19  H    0.028132  -0.022806   0.063365   0.002644  -0.014680   0.014742
    20  C    0.053662  -0.304375  -1.918149   0.014383   0.027600  -0.013073
    21  N    0.004606  -0.023434   0.285863  -0.002163  -0.002681  -0.005011
    22  C   -0.000487   0.024634  -0.675510   0.008566   0.011577   0.015607
    23  N    0.033239  -0.111873   0.513589  -0.005256  -0.003784  -0.025032
    24  C   -0.155696   0.178084  -0.955001   0.024157  -0.118664   0.007635
    25  H   -0.028940   0.142757  -0.180559   0.005368   0.023696   0.051877
    26  H   -0.002373   0.003612  -0.037040   0.000770   0.002020   0.000283
    27  O   -0.000331  -0.002024   0.033408  -0.000170  -0.000131  -0.000199
    28  O    0.065712  -0.048304   0.060977  -0.007901   0.065149  -0.009097
               7          8          9         10         11         12
     1  C   -0.369902   0.067273  -1.912449  -0.895730  -0.560776  -0.071443
     2  C    0.944171   0.823857   1.197637   0.401830   0.118376  -0.076296
     3  C   -2.446116  -5.678072  -4.616343   0.453112  -0.086026   0.548145
     4  O   -0.058645  -0.013683   0.105520  -0.052095  -0.018882  -0.025225
     5  H    0.125978   0.337318   0.120481  -0.156570   0.003060  -0.000542
     6  O    0.081569   0.270497   0.072723  -0.015719   0.021996  -0.012089
     7  H    2.752697   0.379395   0.310654   0.005636   0.025559  -0.017224
     8  C    0.379395  14.546055   0.779381  -0.115694   0.013851  -0.183045
     9  C    0.310654   0.779381  10.775841  -0.301892   0.316616  -0.499176
    10  H    0.005636  -0.115694  -0.301892   2.146977  -0.118957  -0.036713
    11  O    0.025559   0.013851   0.316616  -0.118957   8.815869  -0.017165
    12  C   -0.017224  -0.183045  -0.499176  -0.036713  -0.017165   5.095682
    13  H    0.017022  -0.133821  -1.019598   0.075708  -0.080590  -0.031224
    14  O    0.002016   0.044003   0.057453   0.043655   0.002066   0.044288
    15  H   -0.004521   0.009529  -0.256005  -0.046599   0.007960   0.256210
    16  H    0.002893   0.002249   0.189310   0.029422  -0.001447   0.047925
    17  H   -0.006673   0.002474  -0.079568  -0.020313   0.283603   0.008801
    18  H   -0.001655  -0.024153   0.009288   0.022434   0.006365  -0.000316
    19  H   -0.004316  -0.005223  -0.061408  -0.012183  -0.000938  -0.007577
    20  C    0.138960  -3.582942  -0.024049   0.006992  -0.005252  -0.018117
    21  N   -0.024653   0.025376  -0.018354  -0.000040   0.000491   0.005558
    22  C   -0.001281   0.396884   0.025480   0.000025  -0.000249  -0.012647
    23  N    0.001609  -0.358979   0.001467   0.000787  -0.000390  -0.012477
    24  C   -0.114897  -3.327403  -0.045830   0.015953   0.000758   0.010407
    25  H   -0.035388   0.344739   0.013720  -0.001007   0.000268   0.000796
    26  H    0.002063   0.230264   0.003611   0.000067  -0.000017  -0.001295
    27  O    0.000734  -0.028487  -0.000142  -0.000052   0.000004   0.000333
    28  O    0.003051   0.072297  -0.043647  -0.004627  -0.000749   0.000756
              13         14         15         16         17         18
     1  C    0.184321   0.005599   0.090270   0.005131   0.151259  -0.167113
     2  C    0.097959  -0.063880  -0.039238  -0.008153  -0.160369   0.243949
     3  C    0.579438  -0.068820  -0.001319  -0.022095  -0.017314   0.035076
     4  O   -0.009675  -0.000970  -0.000159  -0.000652   0.044160   0.303933
     5  H   -0.002520   0.016046   0.017531  -0.002273   0.036948  -0.156953
     6  O   -0.281730  -0.020511   0.115685  -0.031707   0.011359  -0.009360
     7  H    0.017022   0.002016  -0.004521   0.002893  -0.006673  -0.001655
     8  C   -0.133821   0.044003   0.009529   0.002249   0.002474  -0.024153
     9  C   -1.019598   0.057453  -0.256005   0.189310  -0.079568   0.009288
    10  H    0.075708   0.043655  -0.046599   0.029422  -0.020313   0.022434
    11  O   -0.080590   0.002066   0.007960  -0.001447   0.283603   0.006365
    12  C   -0.031224   0.044288   0.256210   0.047925   0.008801  -0.000316
    13  H    2.157784   0.027405  -0.129196   0.008287  -0.009082   0.000308
    14  O    0.027405   8.514294  -0.185643  -0.054515  -0.000281  -0.001397
    15  H   -0.129196  -0.185643   1.846069  -0.388910   0.003839  -0.001515
    16  H    0.008287  -0.054515  -0.388910   1.515422  -0.000439   0.000056
    17  H   -0.009082  -0.000281   0.003839  -0.000439   0.616799  -0.014009
    18  H    0.000308  -0.001397  -0.001515   0.000056  -0.014009   0.604472
    19  H    0.006778   0.180825   0.023670  -0.056283  -0.000009  -0.000637
    20  C    0.012276   0.003872  -0.006125   0.000174   0.002582  -0.005234
    21  N   -0.001476   0.000093   0.000248   0.000453   0.000545  -0.000397
    22  C    0.001247   0.000675  -0.000643  -0.000204   0.000188  -0.000393
    23  N   -0.000464  -0.010407  -0.000491  -0.001524  -0.000004  -0.000560
    24  C    0.006742   0.032195  -0.011672   0.026419  -0.000856   0.005649
    25  H    0.000915   0.000598   0.000084   0.000179   0.000629  -0.002501
    26  H    0.000220   0.000135  -0.000186   0.000164  -0.000056  -0.000072
    27  O   -0.000036   0.000002   0.000024   0.000032   0.000000  -0.000009
    28  O   -0.001253  -0.046374   0.001901   0.000204   0.000510  -0.000857
              19         20         21         22         23         24
     1  C    0.028132   0.053662   0.004606  -0.000487   0.033239  -0.155696
     2  C   -0.022806  -0.304375  -0.023434   0.024634  -0.111873   0.178084
     3  C    0.063365  -1.918149   0.285863  -0.675510   0.513589  -0.955001
     4  O    0.002644   0.014383  -0.002163   0.008566  -0.005256   0.024157
     5  H   -0.014680   0.027600  -0.002681   0.011577  -0.003784  -0.118664
     6  O    0.014742  -0.013073  -0.005011   0.015607  -0.025032   0.007635
     7  H   -0.004316   0.138960  -0.024653  -0.001281   0.001609  -0.114897
     8  C   -0.005223  -3.582942   0.025376   0.396884  -0.358979  -3.327403
     9  C   -0.061408  -0.024049  -0.018354   0.025480   0.001467  -0.045830
    10  H   -0.012183   0.006992  -0.000040   0.000025   0.000787   0.015953
    11  O   -0.000938  -0.005252   0.000491  -0.000249  -0.000390   0.000758
    12  C   -0.007577  -0.018117   0.005558  -0.012647  -0.012477   0.010407
    13  H    0.006778   0.012276  -0.001476   0.001247  -0.000464   0.006742
    14  O    0.180825   0.003872   0.000093   0.000675  -0.010407   0.032195
    15  H    0.023670  -0.006125   0.000248  -0.000643  -0.000491  -0.011672
    16  H   -0.056283   0.000174   0.000453  -0.000204  -0.001524   0.026419
    17  H   -0.000009   0.002582   0.000545   0.000188  -0.000004  -0.000856
    18  H   -0.000637  -0.005234  -0.000397  -0.000393  -0.000560   0.005649
    19  H    0.590066   0.021240  -0.001262  -0.000722   0.007782  -0.063225
    20  C    0.021240  14.422780  -0.645920  -0.377223   0.402013  -1.935043
    21  N   -0.001262  -0.645920   8.068920  -0.103803   0.011540   0.232938
    22  C   -0.000722  -0.377223  -0.103803   6.471131  -0.088419  -0.240762
    23  N    0.007782   0.402013   0.011540  -0.088419   7.812837  -0.739282
    24  C   -0.063225  -1.935043   0.232938  -0.240762  -0.739282  12.862431
    25  H   -0.001752  -0.697589  -0.015979   0.003680  -0.043163   0.064185
    26  H   -0.003878  -0.167382   0.032559  -0.156521   0.393055  -0.280731
    27  O    0.000165   0.031764  -0.090908   0.066407  -0.132383   0.124780
    28  O    0.064888  -0.043838   0.007499   0.009020  -0.269062  -0.034455
              25         26         27         28
     1  C   -0.028940  -0.002373  -0.000331   0.065712
     2  C    0.142757   0.003612  -0.002024  -0.048304
     3  C   -0.180559  -0.037040   0.033408   0.060977
     4  O    0.005368   0.000770  -0.000170  -0.007901
     5  H    0.023696   0.002020  -0.000131   0.065149
     6  O    0.051877   0.000283  -0.000199  -0.009097
     7  H   -0.035388   0.002063   0.000734   0.003051
     8  C    0.344739   0.230264  -0.028487   0.072297
     9  C    0.013720   0.003611  -0.000142  -0.043647
    10  H   -0.001007   0.000067  -0.000052  -0.004627
    11  O    0.000268  -0.000017   0.000004  -0.000749
    12  C    0.000796  -0.001295   0.000333   0.000756
    13  H    0.000915   0.000220  -0.000036  -0.001253
    14  O    0.000598   0.000135   0.000002  -0.046374
    15  H    0.000084  -0.000186   0.000024   0.001901
    16  H    0.000179   0.000164   0.000032   0.000204
    17  H    0.000629  -0.000056   0.000000   0.000510
    18  H   -0.002501  -0.000072  -0.000009  -0.000857
    19  H   -0.001752  -0.003878   0.000165   0.064888
    20  C   -0.697589  -0.167382   0.031764  -0.043838
    21  N   -0.015979   0.032559  -0.090908   0.007499
    22  C    0.003680  -0.156521   0.066407   0.009020
    23  N   -0.043163   0.393055  -0.132383  -0.269062
    24  C    0.064185  -0.280731   0.124780  -0.034455
    25  H    2.081251  -0.004476   0.001779  -0.006937
    26  H   -0.004476   1.142669  -0.004399  -0.039754
    27  O    0.001779  -0.004399   8.700821  -0.008900
    28  O   -0.006937  -0.039754  -0.008900   9.138275
 Mulliken charges:
               1
     1  C    1.155697
     2  C    0.464079
     3  C    1.328933
     4  O   -0.674603
     5  H   -0.601269
     6  O   -0.915543
     7  H   -0.708736
     8  C    1.106060
     9  C    0.899279
    10  H   -0.424408
    11  O   -0.725405
    12  C    1.003672
    13  H   -0.475747
    14  O   -0.522423
    15  H   -0.300799
    16  H   -0.260119
    17  H    0.145278
    18  H    0.155602
    19  H    0.252602
    20  C    0.606011
    21  N   -0.740610
    22  C    0.623741
    23  N   -0.374367
    24  C    0.431184
    25  H   -0.718231
    26  H   -0.113313
    27  O   -0.692083
    28  O   -0.924484
 Sum of Mulliken charges =  -1.00000
 Mulliken charges with hydrogens summed into heavy atoms:
               1
     1  C    0.731289
     2  C   -0.137190
     3  C    0.620197
     4  O   -0.519000
     6  O   -0.915543
     8  C    1.106060
     9  C    0.423532
    11  O   -0.580126
    12  C    0.442754
    14  O   -0.269821
    20  C   -0.112220
    21  N   -0.740610
    22  C    0.623741
    23  N   -0.487680
    24  C    0.431184
    27  O   -0.692083
    28  O   -0.924484
 Electronic spatial extent (au):  <R**2>=           4196.4350
 Charge=             -1.0000 electrons
 Dipole moment (field-independent basis, Debye):
    X=            -10.1950    Y=             -0.6102    Z=              1.9918  Tot=             10.4056
 Quadrupole moment (field-independent basis, Debye-Ang):
   XX=           -172.4556   YY=           -114.3702   ZZ=           -100.5048
   XY=              8.5067   XZ=              1.2227   YZ=             -8.0410
 Traceless Quadrupole moment (field-independent basis, Debye-Ang):
   XX=            -43.3454   YY=             14.7400   ZZ=             28.6054
   XY=              8.5067   XZ=              1.2227   YZ=             -8.0410
 Octapole moment (field-independent basis, Debye-Ang**2):
  XXX=           -297.9853  YYY=            -13.0635  ZZZ=             29.1715  XYY=              0.6196
  XXY=             41.2254  XXZ=             23.1481  XZZ=            -13.6062  YZZ=            -10.5448
  YYZ=             -5.2656  XYZ=             13.4691
 Hexadecapole moment (field-independent basis, Debye-Ang**3):
 XXXX=          -5664.4551 YYYY=          -1165.4249 ZZZZ=           -400.8150 XXXY=             64.6514
 XXXZ=             30.0578 YYYX=            108.3149 YYYZ=            -35.7700 ZZZX=            -14.7190
 ZZZY=            -41.6903 XXYY=           -918.0744 XXZZ=           -732.7557 YYZZ=           -252.9407
 XXYZ=            -67.2402 YYXZ=             13.7395 ZZXY=             35.3748
 N-N= 1.307114149909D+03 E-N=-4.764305912872D+03  KE= 9.049463163867D+02
 Calling FoFJK, ICntrl=      2127 FMM=F ISym2X=0 I1Cent= 0 IOpClX= 0 NMat=1 NMatS=1 NMatT=0.
 ***** Axes restored to original set *****
 -------------------------------------------------------------------
 Center     Atomic                   Forces (Hartrees/Bohr)
 Number     Number              X              Y              Z
 -------------------------------------------------------------------
      1        6           0.001487935    0.001286858    0.002634496
      2        6          -0.001537935    0.003138904   -0.005024037
      3        6           0.014616643    0.001486701    0.007692399
      4        8          -0.003269556   -0.003194226    0.002042889
      5        1           0.001176806   -0.000111216   -0.000483901
      6        8          -0.014958768    0.005343763   -0.002407717
      7        1          -0.000158941   -0.000228151   -0.000357062
      8        6          -0.024379277    0.023280872    0.011534080
      9        6           0.007717292   -0.001640892   -0.002317253
     10        1          -0.001744061    0.000167543    0.000196994
     11        8          -0.004803586   -0.002456194   -0.000601527
     12        6           0.001193521   -0.000454404    0.002432844
     13        1          -0.001875571   -0.000027123   -0.000631946
     14        8          -0.006164325    0.002345577   -0.001098877
     15        1          -0.001353948    0.000360835    0.000213425
     16        1           0.000524369    0.000066609   -0.000604104
     17        1           0.002435158    0.000970248   -0.000114408
     18        1           0.001072265    0.000910887   -0.001010383
     19        1           0.008595973   -0.003106078    0.000300315
     20        6           0.064065380    0.017417064    0.009518098
     21        7          -0.004249855   -0.021449180   -0.010599726
     22        6          -0.044784779   -0.047625782   -0.022516438
     23        7          -0.005765740    0.018134092    0.008157453
     24        6           0.015635581   -0.034970643   -0.015548878
     25        1          -0.001132451   -0.003345407   -0.001525767
     26        1          -0.003585893    0.001445023    0.000519194
     27        8           0.023011972    0.016249586    0.007996270
     28        8          -0.021768207    0.026004736    0.011603566
 -------------------------------------------------------------------
 Cartesian Forces:  Max     0.064065380 RMS     0.013934390

 GradGradGradGradGradGradGradGradGradGradGradGradGradGradGradGradGradGrad
 Berny optimization.
 FormGI is forming the generalized inverse of G from B-inverse, IUseBI=4.
 Internal  Forces:  Max     0.035822099 RMS     0.007638781
 Search for a local minimum.
 Step number   1 out of a maximum of  166
 All quantities printed in internal units (Hartrees-Bohrs-Radians)
 Mixed Optimization -- RFO/linear search
 Second derivative matrix not updated -- first step.
 ITU=  0
     Eigenvalues ---    0.00537   0.00540   0.00833   0.00896   0.01446
     Eigenvalues ---    0.01476   0.01502   0.01528   0.01595   0.01697
     Eigenvalues ---    0.01861   0.01949   0.01955   0.02298   0.02539
     Eigenvalues ---    0.03114   0.03861   0.04368   0.04914   0.04934
     Eigenvalues ---    0.05246   0.05445   0.05713   0.05954   0.06089
     Eigenvalues ---    0.06144   0.06917   0.07725   0.08419   0.09751
     Eigenvalues ---    0.11644   0.12891   0.14009   0.15940   0.15999
     Eigenvalues ---    0.16000   0.16000   0.16000   0.16000   0.16809
     Eigenvalues ---    0.18178   0.20156   0.22074   0.22928   0.23835
     Eigenvalues ---    0.24998   0.25000   0.25000   0.25000   0.26668
     Eigenvalues ---    0.28062   0.29074   0.30650   0.32918   0.33018
     Eigenvalues ---    0.33259   0.33545   0.33613   0.33700   0.34111
     Eigenvalues ---    0.34895   0.36302   0.37410   0.41223   0.42679
     Eigenvalues ---    0.43323   0.44068   0.44434   0.45415   0.46768
     Eigenvalues ---    0.48229   0.50745   0.52898   0.53159   0.54082
     Eigenvalues ---    0.55310   0.93383   0.98065
 RFO step:  Lambda=-2.43116870D-02 EMin= 5.37226067D-03
 Linear search not attempted -- first point.
 Iteration  1 RMS(Cart)=  0.10110246 RMS(Int)=  0.00297950
 Iteration  2 RMS(Cart)=  0.00466764 RMS(Int)=  0.00015333
 Iteration  3 RMS(Cart)=  0.00001139 RMS(Int)=  0.00015325
 Iteration  4 RMS(Cart)=  0.00000000 RMS(Int)=  0.00015325
 Variable       Old X    -DE/DX   Delta X   Delta X   Delta X     New X
                                 (Linear)    (Quad)   (Total)
    R1        2.89753  -0.00003   0.00000  -0.00171  -0.00167   2.89586
    R2        2.88373   0.00048   0.00000  -0.00229  -0.00231   2.88141
    R3        2.08105   0.00126   0.00000   0.00351   0.00351   2.08456
    R4        2.67273   0.00241   0.00000   0.00526   0.00526   2.67799
    R5        2.89231  -0.00049   0.00000   0.00125   0.00119   2.89351
    R6        2.68068   0.00225   0.00000   0.00499   0.00499   2.68567
    R7        2.07143  -0.00007   0.00000  -0.00020  -0.00020   2.07123
    R8        2.67155   0.00784   0.00000   0.01946   0.01949   2.69104
    R9        2.09019   0.00037   0.00000   0.00104   0.00104   2.09124
   R10        2.82496  -0.00396   0.00000  -0.01120  -0.01120   2.81376
   R11        1.81557  -0.00103   0.00000  -0.00178  -0.00178   1.81379
   R12        2.72703  -0.00707   0.00000  -0.01741  -0.01740   2.70963
   R13        2.55873   0.03533   0.00000   0.06198   0.06219   2.62092
   R14        2.75688  -0.02162   0.00000  -0.05350  -0.05353   2.70335
   R15        2.86686  -0.00091   0.00000  -0.00275  -0.00275   2.86410
   R16        2.07988   0.00158   0.00000   0.00438   0.00438   2.08426
   R17        1.82657  -0.00000   0.00000  -0.00000  -0.00000   1.82657
   R18        2.65938   0.00022   0.00000   0.00047   0.00047   2.65985
   R19        2.07839   0.00141   0.00000   0.00390   0.00390   2.08229
   R20        2.08599   0.00066   0.00000   0.00186   0.00186   2.08785
   R21        1.83749   0.00882   0.00000   0.01594   0.01594   1.85344
   R22        2.58201  -0.03098   0.00000  -0.05852  -0.05828   2.52373
   R23        2.05845   0.00384   0.00000   0.01029   0.01029   2.06875
   R24        2.61373  -0.01304   0.00000  -0.02659  -0.02655   2.58719
   R25        2.60571   0.02050   0.00000   0.04012   0.03992   2.64563
   R26        2.29424   0.02604   0.00000   0.02591   0.02591   2.32015
   R27        2.63449  -0.01048   0.00000  -0.01999  -0.02023   2.61426
   R28        1.91496   0.00025   0.00000   0.00053   0.00053   1.91549
   R29        2.31412   0.03582   0.00000   0.03739   0.03739   2.35151
    A1        1.79096  -0.00228   0.00000  -0.00984  -0.00970   1.78126
    A2        1.95330   0.00012   0.00000  -0.00221  -0.00224   1.95106
    A3        1.92040   0.00150   0.00000   0.00879   0.00876   1.92916
    A4        1.94713   0.00063   0.00000   0.00224   0.00235   1.94948
    A5        1.90563   0.00112   0.00000   0.00681   0.00660   1.91223
    A6        1.94077  -0.00108   0.00000  -0.00551  -0.00549   1.93528
    A7        1.76471   0.00353   0.00000   0.02720   0.02706   1.79177
    A8        1.97272  -0.00173   0.00000  -0.00692  -0.00742   1.96529
    A9        1.92006  -0.00104   0.00000  -0.01013  -0.00982   1.91024
   A10        1.91411   0.00092   0.00000   0.01203   0.01223   1.92634
   A11        1.93128  -0.00247   0.00000  -0.02081  -0.02086   1.91042
   A12        1.95260   0.00091   0.00000   0.00031   0.00026   1.95286
   A13        1.83474  -0.00393   0.00000  -0.01676  -0.01715   1.81759
   A14        1.86263   0.00109   0.00000   0.00630   0.00648   1.86911
   A15        2.02375  -0.00201   0.00000  -0.01762  -0.01758   2.00617
   A16        1.93058  -0.00033   0.00000  -0.00095  -0.00082   1.92975
   A17        1.92060   0.00320   0.00000   0.00365   0.00323   1.92383
   A18        1.89028   0.00180   0.00000   0.02451   0.02447   1.91475
   A19        1.89645  -0.00157   0.00000  -0.00852  -0.00852   1.88793
   A20        1.92273   0.00111   0.00000   0.01656   0.01641   1.93913
   A21        2.11013   0.01289   0.00000   0.04700   0.04693   2.15706
   A22        2.11581  -0.01258   0.00000  -0.04585  -0.04592   2.06989
   A23        2.05724  -0.00030   0.00000  -0.00115  -0.00101   2.05623
   A24        1.85751   0.00290   0.00000   0.00760   0.00714   1.86465
   A25        1.99067  -0.00003   0.00000  -0.00408  -0.00398   1.98669
   A26        1.90534  -0.00109   0.00000   0.00047   0.00026   1.90560
   A27        1.89330  -0.00521   0.00000  -0.03540  -0.03535   1.85795
   A28        1.89427   0.00140   0.00000   0.01560   0.01574   1.91001
   A29        1.91970   0.00208   0.00000   0.01623   0.01632   1.93602
   A30        1.85779  -0.00324   0.00000  -0.01756  -0.01756   1.84023
   A31        1.97002  -0.00333   0.00000  -0.01464  -0.01473   1.95529
   A32        1.89954   0.00204   0.00000   0.01477   0.01483   1.91437
   A33        1.89034  -0.00051   0.00000  -0.00904  -0.00916   1.88118
   A34        1.86981   0.00124   0.00000   0.01057   0.01063   1.88044
   A35        1.95042   0.00092   0.00000  -0.00300  -0.00322   1.94721
   A36        1.88118  -0.00016   0.00000   0.00295   0.00298   1.88417
   A37        1.89654   0.00092   0.00000   0.00501   0.00501   1.90155
   A38        2.14652   0.02091   0.00000   0.08093   0.08132   2.22784
   A39        2.11880  -0.01065   0.00000  -0.04150  -0.04169   2.07711
   A40        2.01786  -0.01027   0.00000  -0.03943  -0.03963   1.97823
   A41        2.15461  -0.02984   0.00000  -0.11647  -0.11608   2.03853
   A42        1.96896   0.02154   0.00000   0.07653   0.07636   2.04531
   A43        2.14968   0.00459   0.00000   0.01773   0.01781   2.16749
   A44        2.16455  -0.02613   0.00000  -0.09426  -0.09417   2.07038
   A45        2.23800  -0.00200   0.00000  -0.00574  -0.00617   2.23183
   A46        2.01799   0.00473   0.00000   0.02310   0.02332   2.04130
   A47        2.02715  -0.00273   0.00000  -0.01735  -0.01713   2.01002
   A48        2.00092  -0.01031   0.00000  -0.03408  -0.03440   1.96653
   A49        2.20921   0.00381   0.00000   0.01216   0.01231   2.22153
   A50        2.07300   0.00650   0.00000   0.02196   0.02211   2.09512
    D1       -0.61335   0.00091   0.00000   0.01493   0.01533  -0.59802
    D2       -2.65788  -0.00145   0.00000  -0.01186  -0.01156  -2.66945
    D3        1.42880  -0.00053   0.00000   0.00095   0.00117   1.42997
    D4       -2.70310   0.00145   0.00000   0.01918   0.01931  -2.68378
    D5        1.53555  -0.00091   0.00000  -0.00761  -0.00758   1.52797
    D6       -0.66096   0.00002   0.00000   0.00519   0.00516  -0.65580
    D7        1.41306   0.00166   0.00000   0.02144   0.02159   1.43466
    D8       -0.63147  -0.00070   0.00000  -0.00535  -0.00530  -0.63677
    D9       -2.82798   0.00023   0.00000   0.00745   0.00744  -2.82055
   D10        0.38895  -0.00114   0.00000   0.00385   0.00378   0.39273
   D11       -1.69794   0.00339   0.00000   0.04516   0.04510  -1.65284
   D12        2.43024   0.00153   0.00000   0.02651   0.02639   2.45663
   D13        2.48299  -0.00203   0.00000  -0.00343  -0.00338   2.47961
   D14        0.39610   0.00250   0.00000   0.03788   0.03794   0.43404
   D15       -1.75891   0.00064   0.00000   0.01923   0.01923  -1.73968
   D16       -1.64805  -0.00218   0.00000  -0.00414  -0.00411  -1.65217
   D17        2.54824   0.00234   0.00000   0.03717   0.03721   2.58545
   D18        0.39323   0.00048   0.00000   0.01852   0.01850   0.41173
   D19        0.65213  -0.00053   0.00000  -0.02772  -0.02777   0.62436
   D20        2.60513  -0.00185   0.00000  -0.03117  -0.03114   2.57399
   D21       -1.52214  -0.00100   0.00000  -0.02731  -0.02729  -1.54943
   D22        0.64289  -0.00205   0.00000  -0.03984  -0.03980   0.60308
   D23       -1.40814  -0.00029   0.00000  -0.03363  -0.03361  -1.44175
   D24        2.76799  -0.00213   0.00000  -0.05851  -0.05844   2.70955
   D25        2.72987  -0.00179   0.00000  -0.02840  -0.02821   2.70166
   D26        0.67884  -0.00004   0.00000  -0.02218  -0.02201   0.65683
   D27       -1.42822  -0.00187   0.00000  -0.04706  -0.04684  -1.47506
   D28       -1.39101  -0.00169   0.00000  -0.03389  -0.03376  -1.42477
   D29        2.84115   0.00007   0.00000  -0.02767  -0.02756   2.81359
   D30        0.73409  -0.00177   0.00000  -0.05255  -0.05239   0.68169
   D31       -1.66706   0.00135   0.00000   0.00230   0.00220  -1.66486
   D32        2.66168  -0.00255   0.00000  -0.03430  -0.03424   2.62744
   D33        0.51189  -0.00068   0.00000  -0.01647  -0.01642   0.49547
   D34       -0.42025   0.00192   0.00000   0.04843   0.04836  -0.37190
   D35        1.58406   0.00092   0.00000   0.04631   0.04636   1.63042
   D36       -2.61117   0.00500   0.00000   0.07848   0.07851  -2.53266
   D37        2.09364   0.00191   0.00000   0.01761   0.01771   2.11135
   D38       -1.04579   0.00194   0.00000   0.01824   0.01838  -1.02741
   D39       -2.11079  -0.00219   0.00000  -0.01367  -0.01392  -2.12471
   D40        1.03298  -0.00215   0.00000  -0.01304  -0.01325   1.01972
   D41        0.00151   0.00048   0.00000   0.00268   0.00278   0.00429
   D42       -3.13791   0.00051   0.00000   0.00332   0.00345  -3.13446
   D43        0.01630  -0.00035   0.00000  -0.03158  -0.03196  -0.01566
   D44        2.16543  -0.00164   0.00000  -0.05215  -0.05229   2.11314
   D45       -2.03235  -0.00133   0.00000  -0.04405  -0.04432  -2.07667
   D46       -3.12895   0.00019   0.00000   0.00133   0.00128  -3.12767
   D47        0.00877   0.00010   0.00000   0.00098   0.00097   0.00974
   D48        0.01054   0.00014   0.00000   0.00066   0.00056   0.01110
   D49       -3.13492   0.00006   0.00000   0.00031   0.00024  -3.13467
   D50       -3.14134   0.00006   0.00000  -0.00180  -0.00185   3.14000
   D51        0.01108  -0.00017   0.00000  -0.00623  -0.00618   0.00490
   D52        0.00236   0.00008   0.00000  -0.00124  -0.00128   0.00108
   D53       -3.12841  -0.00016   0.00000  -0.00568  -0.00561  -3.13402
   D54        0.85175   0.00096   0.00000   0.00971   0.00973   0.86148
   D55       -1.22166   0.00012   0.00000  -0.00430  -0.00421  -1.22587
   D56        3.02085  -0.00052   0.00000  -0.01087  -0.01072   3.01012
   D57       -1.21483   0.00091   0.00000   0.02704   0.02686  -1.18797
   D58        2.99495   0.00007   0.00000   0.01302   0.01292   3.00787
   D59        0.95426  -0.00057   0.00000   0.00645   0.00641   0.96067
   D60        2.99896   0.00111   0.00000   0.01985   0.01981   3.01877
   D61        0.92556   0.00027   0.00000   0.00584   0.00587   0.93142
   D62       -1.11513  -0.00037   0.00000  -0.00073  -0.00065  -1.11577
   D63        1.07236  -0.00263   0.00000  -0.04779  -0.04775   1.02461
   D64       -3.12021  -0.00128   0.00000  -0.03122  -0.03124   3.13174
   D65       -1.06341  -0.00019   0.00000  -0.02283  -0.02286  -1.08627
   D66       -0.01515   0.00017   0.00000   0.00317   0.00314  -0.01202
   D67        3.13010   0.00025   0.00000   0.00354   0.00346   3.13356
   D68        0.00519  -0.00021   0.00000  -0.00441  -0.00438   0.00081
   D69       -3.13684  -0.00007   0.00000  -0.00124  -0.00099  -3.13783
   D70        0.00911   0.00010   0.00000   0.00243   0.00256   0.01167
   D71        3.13954   0.00019   0.00000   0.00375   0.00387  -3.13978
   D72       -3.13204  -0.00005   0.00000  -0.00080  -0.00066  -3.13270
   D73       -0.00161   0.00003   0.00000   0.00052   0.00065  -0.00096
   D74       -0.01280   0.00008   0.00000   0.00048   0.00061  -0.01219
   D75        3.11888   0.00028   0.00000   0.00452   0.00456   3.12344
   D76        3.14001  -0.00005   0.00000  -0.00107  -0.00090   3.13912
   D77       -0.01149   0.00016   0.00000   0.00297   0.00305  -0.00844
         Item               Value     Threshold  Converged?
 Maximum Force            0.035822     0.000450     NO 
 RMS     Force            0.007639     0.000300     NO 
 Maximum Displacement     0.440474     0.001800     NO 
 RMS     Displacement     0.102720     0.001200     NO 
 Predicted change in Energy=-1.357449D-02
 GradGradGradGradGradGradGradGradGradGradGradGradGradGradGradGradGradGrad

                          Input orientation:                          
 ---------------------------------------------------------------------
 Center     Atomic      Atomic             Coordinates (Angstroms)
 Number     Number       Type             X           Y           Z
 ---------------------------------------------------------------------
      1          6           0       -2.783279   -0.522448    0.281744
      2          6           0       -1.362457   -0.792712    0.788249
      3          6           0       -0.539051   -0.786177   -0.502668
      4          8           0       -1.245685   -2.048599    1.443165
      5          1           0       -1.040530    0.034767    1.430869
      6          8           0       -1.177100    0.192148   -1.317320
      7          1           0       -0.635397   -1.791540   -0.954997
      8          6           0        0.900935   -0.450385   -0.327328
      9          6           0       -2.529348    0.413478   -0.894909
     10          1           0       -3.409598   -0.045476    1.054438
     11          8           0       -3.380849   -1.719781   -0.184696
     12          6           0       -2.633496    1.883630   -0.541489
     13          1           0       -3.217555    0.156377   -1.717557
     14          8           0       -1.885196    2.204937    0.606533
     15          1           0       -3.685266    2.143418   -0.340310
     16          1           0       -2.300716    2.466115   -1.419350
     17          1           0       -3.056484   -2.415167    0.403096
     18          1           0       -1.345319   -1.904464    2.386852
     19          1           0       -0.945477    1.971889    0.449758
     20          6           0        1.936457   -1.296879   -0.694367
     21          7           0        3.248486   -1.085945   -0.561510
     22          6           0        3.629039    0.108523   -0.011231
     23          7           0        2.611013    0.994643    0.360833
     24          6           0        1.244037    0.810970    0.253823
     25          1           0        1.696268   -2.264303   -1.146958
     26          1           0        2.896708    1.878594    0.766372
     27          8           0        4.796124    0.444147    0.169583
     28          8           0        0.463700    1.695180    0.650923
 ---------------------------------------------------------------------
                    Distance matrix (angstroms):
                    1          2          3          4          5
     1  C    0.000000
     2  C    1.532424   0.000000
     3  C    2.391947   1.531178   0.000000
     4  O    2.458095   1.421197   2.424728   0.000000
     5  H    2.160590   1.096048   2.159629   2.093479   0.000000
     6  O    2.376439   2.331894   1.424038   3.556111   2.756078
     7  H    2.784514   2.136628   1.106634   2.487913   3.031813
     8  C    3.734915   2.546496   1.488980   3.208880   2.663816
     9  C    1.524779   2.376879   2.356758   3.629904   2.787337
    10  H    1.103102   2.195451   3.348620   2.974244   2.400130
    11  O    1.417132   2.424868   3.008079   2.704991   3.341495
    12  C    2.547421   3.247545   3.393534   4.618148   3.137838
    13  H    2.155598   3.259022   3.088486   4.329013   3.829728
    14  O    2.889752   3.048307   3.462541   4.381951   2.470350
    15  H    2.882251   3.910236   4.302041   5.167721   3.818129
    16  H    3.472477   4.046453   3.810666   5.448828   3.952629
    17  H    1.916183   2.377063   3.132329   2.120166   3.335051
    18  H    2.899858   1.947259   3.201555   0.959816   2.183442
    19  H    3.102815   2.816286   2.946052   4.152265   2.173489
    20  C    4.881439   3.651735   2.534898   3.906425   3.892604
    21  N    6.116436   4.813380   3.799837   5.014279   4.860167
    22  C    6.449944   5.134825   4.291267   5.525520   4.887736
    23  N    5.604124   4.377875   3.720196   5.030595   3.924297
    24  C    4.242411   3.106641   2.510490   3.973712   2.684618
    25  H    5.014138   3.907224   2.756196   3.925602   4.406924
    26  H    6.185638   5.027608   4.529449   5.748071   4.398079
    27  O    7.641612   6.311948   5.516313   6.658773   5.985396
    28  O    3.949308   3.089225   2.914346   4.191124   2.372339
                    6          7          8          9         10
     6  O    0.000000
     7  H    2.087998   0.000000
     8  C    2.389804   2.133772   0.000000
     9  C    1.433874   2.907364   3.582632   0.000000
    10  H    3.265847   3.844835   4.544659   2.187564   0.000000
    11  O    3.129668   2.852370   4.468264   2.404215   2.083166
    12  C    2.363073   4.203601   4.240954   1.515618   2.621215
    13  H    2.079646   3.323163   4.388947   1.102941   2.785962
    14  O    2.872965   4.469026   3.960474   2.424579   2.754774
    15  H    3.324591   5.016317   5.268892   2.153234   2.610091
    16  H    2.538474   4.595273   4.466437   2.130876   3.695584
    17  H    3.645547   2.845169   4.478287   3.156569   2.482815
    18  H    4.259691   3.418288   3.811400   4.188644   3.080976
    19  H    2.518669   4.029005   3.143328   2.597195   3.241495
    20  C    3.507065   2.631930   1.386930   4.786330   5.762347
    21  N    4.668038   3.967020   2.443312   5.978528   6.929931
    22  C    4.981148   4.763019   2.802650   6.228934   7.120518
    23  N    4.220189   4.475869   2.342229   5.323341   6.149040
    24  C    2.951836   3.430245   1.430550   3.964344   4.799042
    25  H    3.784100   2.386842   2.143513   5.008979   5.986585
    26  H    4.876657   5.376687   3.256292   5.860760   6.599585
    27  O    6.160664   5.980334   4.027357   7.402475   8.267804
    28  O    2.970743   3.993020   2.398249   3.604260   4.265576
                   11         12         13         14         15
    11  O    0.000000
    12  C    3.697352   0.000000
    13  H    2.428229   2.169716   0.000000
    14  O    4.273925   1.407531   3.372413   0.000000
    15  H    3.878298   1.101900   2.462499   2.034833   0.000000
    16  H    4.495864   1.104841   2.502881   2.084484   1.784780
    17  H    0.966579   4.421631   3.337058   4.770604   4.661408
    18  H    3.284867   4.958249   4.959688   4.510895   5.412773
    19  H    4.467885   1.959532   3.627076   0.980796   2.856584
    20  C    5.358391   5.569872   5.451854   5.344164   6.600361
    21  N    6.670219   6.589119   6.685020   6.208778   7.652100
    22  C    7.246469   6.530813   7.056181   5.931557   7.599220
    23  N    6.600614   5.395308   6.244566   4.662733   6.438510
    24  C    5.290234   4.101022   4.921446   3.443784   5.140665
    25  H    5.196110   6.026507   5.507352   5.989634   7.002827
    26  H    7.297983   5.682753   6.820568   4.795691   6.679615
    27  O    8.465872   7.601117   8.237910   6.923247   8.664958
    28  O    5.209681   3.324151   4.639962   2.403983   4.289216
                   16         17         18         19         20
    16  H    0.000000
    17  H    5.264923   0.000000
    18  H    5.873834   2.669118   0.000000
    19  H    2.361037   4.868756   4.351818   0.000000
    20  C    5.713087   5.233016   4.542370   4.505487   0.000000
    21  N    6.644296   6.515362   5.519588   5.287943   1.335501
    22  C    6.534756   7.157995   5.877682   4.960931   2.303619
    23  N    5.427648   6.614311   5.306801   3.689382   2.611426
[...]
 00354,0.00015195,0.00012139,-0.00008040,0.00032609,0.00026881,-0.00046
 935,-0.00032150,-0.00008464,-0.00009550,-0.03250819,-0.02412140,-0.076
 54855,0.07854958,0.14354638,0.14700737,-0.00045755,-0.00030476,-0.0007
 6547,0.00084074,-0.00089345,0.00133136,-0.00537012,0.00018481,-0.00201
 582,0.00099105,0.00089036,-0.00093538,-0.00037694,0.00004487,0.0002914
 2,0.00392913,-0.00124518,0.00105280,0.00046716,0.00066852,0.00021023,0
 .00518782,0.00412380,0.00134343,-0.00194199,0.00039642,0.00067114,0.00
 045502,-0.00005270,-0.00002339,0.00118141,0.00076500,0.00020166,-0.000
 41282,0.00002615,-0.00092939,0.00056278,0.00001082,0.00017762,0.002430
 17,-0.00072931,0.00043453,0.00042409,-0.00009446,-0.00001083,-0.000121
 30,-0.00003964,0.00024241,-0.00055213,-0.00032833,0.00004792,-0.000782
 27,-0.00073305,0.00105802,-0.00358229,0.00109299,-0.00017601,-0.034446
 66,-0.04712749,-0.02295957,-0.11890629,-0.02065603,-0.01120195,0.88869
 822,0.00001329,0.00001105,-0.00117097,0.00139918,-0.00008218,0.0022647
 9,-0.00475554,-0.00344394,-0.00427308,0.00052750,0.00002174,-0.0006258
 0,-0.00005515,0.00015998,-0.00010374,0.00455148,-0.00224157,0.00116833
 ,-0.00024538,0.00000103,-0.00000774,0.01883916,-0.04704998,-0.02053703
 ,-0.00136039,0.00060414,0.00105613,0.00056025,-0.00004478,0.00001629,0
 .00056796,0.00010035,0.00007777,0.00056834,0.00068979,0.00077451,0.000
 53074,-0.00012498,-0.00001817,-0.00216434,-0.00060155,-0.00056859,-0.0
 0002086,-0.00019252,-0.00018714,-0.00004166,-0.00006572,-0.00002737,-0
 .00033985,-0.00015170,0.00005096,-0.00044684,-0.00044030,0.00060205,0.
 00287302,0.00002334,0.00019902,-0.07866701,0.00136166,-0.00069174,-0.0
 3173807,-0.22968839,-0.06742768,0.12346643,0.53451478,0.00002479,-0.00
 006775,-0.00060315,0.00085022,0.00002375,0.00127027,-0.00248431,-0.001
 62984,-0.00170966,0.00022900,0.00011812,-0.00057095,0.00000270,0.00005
 926,-0.00004035,0.00210744,-0.00105048,0.00016904,-0.00013309,0.000208
 49,0.00010783,0.00880758,-0.01924028,-0.01184844,-0.00082406,0.0002424
 3,0.00049388,0.00029286,-0.00003077,-0.00000215,0.00028104,0.00012905,
 -0.00001266,0.00019081,0.00026963,0.00027141,0.00025841,-0.00005170,0.
 00000577,-0.00053616,-0.00024973,-0.00044024,0.00002847,-0.00008638,-0
 .00008950,-0.00003616,-0.00000560,-0.00001961,-0.00013864,-0.00008501,
 0.00006807,-0.00012553,-0.00015554,0.00048180,0.00063553,-0.00007312,0
 .00058396,-0.03637724,0.00004002,-0.00739757,-0.01622021,-0.06672755,-
 0.11073572,0.09861329,0.14254368,0.29448013,0.00045699,0.00037071,-0.0
 0013532,-0.00004705,0.00124345,0.00056509,0.00236846,-0.00159429,-0.00
 105246,-0.00028167,-0.00104868,0.00048734,0.00037233,0.00038902,-0.000
 56588,-0.00023199,-0.00075416,-0.00053690,-0.00032230,-0.00039476,-0.0
 0004840,-0.01523283,-0.04660892,-0.02217970,0.00052706,0.00034639,0.00
 014996,0.00003463,0.00003767,-0.00000580,-0.00055672,-0.00070455,-0.00
 013011,0.00110859,0.00079035,0.00231128,-0.00009455,-0.00017007,-0.000
 18338,-0.00596843,0.00045407,-0.00131674,-0.00054370,-0.00011430,-0.00
 029924,0.00005444,0.00000144,-0.00041522,0.00016271,0.00015858,-0.0000
 2531,0.00016406,0.00013505,-0.00056907,0.00914050,-0.00209187,0.000757
 05,-0.04399616,0.00849998,0.00193830,0.04208593,0.02561337,0.01292472,
 -0.15243084,-0.00024310,-0.00601392,0.71527734,-0.00017116,-0.00022553
 ,-0.00008869,0.00125592,-0.00041891,-0.00076261,0.00050691,-0.00594873
 ,-0.00334904,-0.00001407,0.00055327,0.00024776,-0.00021170,-0.00011501
 ,0.00059747,-0.00038367,0.00144318,0.00018478,-0.00177973,-0.00049767,
 -0.00021266,-0.03875351,0.00792472,-0.00340959,0.00023962,-0.00034365,
 -0.00025354,-0.00010954,-0.00000483,0.00005522,-0.00003829,0.00047262,
 0.00021216,-0.00058342,-0.00067151,-0.00128841,-0.00007341,0.00009957,
 0.00006190,0.00402879,-0.00019806,0.00092539,0.00029470,0.00012661,0.0
 0024157,0.00000249,0.00002517,0.00020209,0.00011050,-0.00003899,-0.000
 07686,-0.00005905,-0.00014170,-0.00013405,-0.00554712,0.00127975,-0.00
 098832,0.01681793,-0.00684475,-0.00101286,0.00536819,-0.04816189,-0.02
 778260,0.05257223,-0.17687612,-0.04730335,0.05262883,0.68803779,-0.000
 13296,-0.00017732,0.00010521,-0.00038876,-0.00031029,-0.00040333,0.000
 20705,-0.00425721,0.00215831,-0.00005119,0.00013059,0.00033557,-0.0000
 7336,-0.00008031,-0.00001384,0.00081533,0.00061943,0.00043446,-0.00086
 142,0.00005929,-0.00034622,-0.01809622,-0.00393650,0.00847918,0.000268
 27,-0.00007591,0.00009792,-0.00008375,0.00000568,0.00000158,-0.0000599
 2,0.00011954,0.00007453,-0.00030422,-0.00019605,-0.00059339,0.00002890
 ,0.00003702,-0.00000073,0.00173289,-0.00008953,0.00018127,0.00005678,0
 .00005220,0.00009680,0.00000828,-0.00001090,0.00009494,0.00003452,0.00
 000191,-0.00006665,-0.00001629,-0.00011597,-0.00025558,-0.00233548,0.0
 0026820,0.00037116,0.00515545,-0.00191753,-0.00149871,0.00360278,-0.02
 683199,0.00439381,0.01637981,-0.04948745,-0.07939313,0.06104627,0.2691
 7746,0.18175436,-0.00093556,-0.00052800,0.00081575,0.00010962,-0.00383
 036,-0.00351510,-0.00630673,-0.03375896,-0.01137689,0.00023759,0.00278
 537,-0.00000807,-0.00256028,-0.00066772,0.00272649,0.00046239,0.004598
 53,0.00092525,-0.00613487,-0.00098899,-0.00027723,-0.14174899,-0.03949
 738,-0.01861310,-0.00062878,-0.00051097,-0.00098521,-0.00032060,0.0000
 8180,-0.00005990,0.00049052,0.00141038,0.00064499,-0.00252980,-0.00099
 202,-0.00277803,0.00011054,0.00020353,0.00028724,0.00490178,-0.0004930
 1,0.00089114,0.00059255,0.00013507,0.00018468,-0.00012379,0.00005319,0
 .00044515,0.00004583,-0.00016404,-0.00019133,0.00024091,-0.00028061,-0
 .00002093,-0.00895045,0.00465533,0.00160275,0.05978679,0.01517577,0.00
 906783,-0.03240982,-0.03437670,-0.01717713,-0.03964882,0.07267846,0.02
 976881,-0.26408578,-0.05819929,-0.03664271,0.67815591,0.00125665,0.000
 93438,-0.00171509,0.00124491,0.00320264,0.00211205,-0.02109386,0.00387
 752,-0.00488975,0.00289903,-0.00460813,-0.00018065,0.00156209,0.001422
 42,-0.00218723,0.00750262,-0.00945436,0.00115235,0.00084928,0.00106948
 ,-0.00094120,-0.05884562,-0.20089563,-0.05722226,-0.00170493,0.0012550
 0,0.00191794,0.00113920,-0.00010796,-0.00009734,0.00037047,-0.00167746
 ,-0.00036351,0.00399524,0.00322977,0.00572031,0.00058032,-0.00055224,-
 0.00026900,-0.01693639,0.00024062,-0.00336476,-0.00106916,-0.00067885,
 -0.00094464,0.00002888,-0.00016647,-0.00085123,-0.00078050,-0.00003441
 ,0.00006475,-0.00322100,-0.00054893,0.00257125,0.02417861,-0.00594941,
 0.00156834,0.04979813,-0.04130549,-0.01589097,-0.03972912,-0.02275691,
 -0.01175348,0.01141760,0.05819953,0.03188703,-0.00938965,-0.14410506,-
 0.03839703,-0.11360642,0.73640516,0.00066005,0.00026467,-0.00073369,0.
 00060278,0.00258330,0.00215581,-0.01075848,0.00112453,-0.00406441,0.00
 132023,-0.00180366,-0.00065605,0.00154075,0.00045425,-0.00101057,0.004
 50329,-0.00496783,0.00097115,0.00059454,-0.00094052,0.00136575,-0.0257
 4140,-0.05313910,-0.10537188,-0.00174220,0.00057956,0.00120525,0.00042
 185,-0.00000686,-0.00012313,0.00005704,-0.00065080,-0.00028692,0.00184
 264,0.00135377,0.00279244,0.00044976,-0.00027186,-0.00013793,-0.008205
 64,-0.00003602,-0.00110890,-0.00040541,-0.00031892,-0.00051209,0.00002
 273,0.00004839,-0.00042118,-0.00021861,-0.00000114,0.00009038,-0.00129
 441,-0.00018440,0.00144548,0.01142097,-0.00143124,-0.00047994,0.023327
 17,-0.01785313,-0.00582644,-0.01798237,-0.01021080,-0.00787661,0.00332
 729,0.03352005,0.00234607,-0.01648128,-0.04105895,-0.07442274,-0.02389
 853,0.21837840,0.29984465,-0.00004806,0.00002769,0.00000254,-0.0001312
 8,-0.00015818,0.00003221,0.00086257,0.00290352,0.00122394,0.00000801,0
 .00008431,-0.00012416,0.00000794,0.00001535,-0.00008055,0.00026646,-0.
 00059225,0.00011546,-0.00002738,-0.00075812,-0.00027107,0.00696056,0.0
 1561863,0.00702721,-0.00018969,0.00005655,0.00009140,0.00003270,-0.000
 00616,-0.00001862,0.00011053,0.00003629,-0.00002539,0.00000379,0.00002
 286,-0.00000417,0.00005094,0.00000954,0.00001189,0.00001852,-0.0000345
 1,-0.00000762,0.00001810,-0.00001139,-0.00000904,-0.00000785,-0.000001
 41,0.00001017,-0.00003925,-0.00003189,0.00002399,0.00004136,-0.0000823
 0,0.00005650,-0.00001093,0.00001424,0.00000414,-0.06739860,-0.05522284
 ,-0.02652265,-0.01953951,-0.03012090,-0.01477163,-0.00394490,-0.000557
 69,-0.00109769,0.00003891,-0.00054807,-0.00016577,-0.00345509,0.002866
 33,0.00051401,0.08672458,-0.00000946,-0.00004961,-0.00003621,0.0001694
 3,0.00045360,-0.00012804,-0.00267417,-0.00114530,0.00147450,0.00013316
 ,0.00008343,0.00019787,-0.00022838,0.00000069,0.00025103,0.00017022,0.
 00036422,-0.00000432,0.00133420,0.00112914,0.00037349,-0.00842549,-0.0
 1573307,-0.01190522,0.00021975,-0.00003023,0.00005799,-0.00003583,0.00
 000218,0.00001374,-0.00004386,0.00011737,0.00009765,-0.00012807,-0.000
 09036,-0.00016485,0.00003398,-0.00000399,-0.00000717,0.00037700,0.0000
 7315,0.00012409,0.00001875,0.00002256,0.00002703,0.00000044,0.00000081
 ,0.00002172,0.00006220,-0.00001607,-0.00004781,-0.00016313,-0.00019615
 ,-0.00021041,-0.00056618,0.00005862,-0.00007608,-0.05342033,-0.2500538
 3,-0.09664135,-0.00944565,-0.00020502,-0.00029013,0.00078097,0.0050221
 5,-0.00240816,0.00081170,0.00024504,0.00046950,0.00456634,0.00082365,-
 0.00353431,0.06727071,0.26268873,0.00006435,-0.00010359,-0.00020865,0.
 00047473,-0.00042460,0.00046081,-0.00056134,0.00088482,-0.00308608,-0.
 00015913,0.00033418,0.00002013,-0.00007154,0.00004726,0.00002716,-0.00
 040631,0.00047367,0.00027525,0.00068426,0.00027398,0.00008173,-0.00394
 427,-0.01008167,0.00434457,0.00004781,0.00011034,-0.00006459,0.0000436
 3,0.00000706,0.00003402,-0.00002884,0.00011311,0.00002726,-0.00008792,
 -0.00003903,-0.00005000,-0.00000541,0.00000504,-0.00000743,0.00016012,
 0.00002841,0.00003469,0.00001064,0.00002140,0.00001476,-0.00000428,0.0
 0000678,-0.00000107,0.00007259,-0.00003048,0.00000053,0.00007621,-0.00
 025613,-0.00026565,-0.00026579,0.00003681,-0.00000586,-0.02635983,-0.0
 9696443,-0.09304336,-0.00535740,-0.00147434,-0.00142320,-0.00050405,-0
 .00252075,0.00928811,0.00043444,0.00044718,-0.00052718,0.00171431,-0.0
 0304085,0.00696639,0.03415237,0.11201024,0.08105176,-0.00005140,-0.000
 05612,0.00001751,0.00014359,-0.00011706,-0.00022263,0.00046270,-0.0017
 7604,-0.00060091,-0.00001414,0.00011434,0.00007883,-0.00004539,-0.0000
 2542,0.00009995,-0.00000379,0.00034220,0.00007712,-0.00054129,-0.00015
 953,-0.00006175,-0.00648575,0.00167359,0.00013138,0.00006661,-0.000066
 47,-0.00005514,-0.00003135,0.00000258,0.00000593,-0.00001251,0.0000833
 7,0.00004123,-0.00015951,-0.00011643,-0.00024650,-0.00001422,0.0000209
 5,0.00001348,0.00063905,-0.00000207,0.00014936,0.00005073,0.00002281,0
 .00003712,-0.00000156,0.00000209,0.00003992,0.00001545,-0.00000104,-0.
 00002092,0.00000639,-0.00000618,-0.00005219,-0.00084387,0.00019948,-0.
 00007489,-0.00162590,0.00008618,-0.00001587,-0.00300695,0.00579628,0.0
 0206888,0.01944066,0.01926791,0.00939645,-0.11594013,-0.11209581,-0.05
 353581,-0.00519093,-0.03601752,-0.01567554,0.00008326,-0.00000915,0.00
 006068,0.11037842,-0.00001933,0.00000553,-0.00003363,0.00001545,-0.000
 00061,0.00004412,0.00028506,0.00029360,-0.00034470,0.00006371,0.000004
 19,0.00003484,-0.00004063,0.00000129,0.00001620,0.00008998,-0.00004793
 ,0.00003021,0.00000717,-0.00007270,0.00004217,0.00018073,0.00353464,-0
 .00065108,-0.00008234,0.00001181,0.00000817,0.00001844,-0.00000025,0.0
 0000015,0.00005297,0.00001053,0.00001924,-0.00000741,0.00000767,-0.000
 05841,0.00001557,-0.00000172,0.00000779,0.00014568,-0.00008617,0.00000
 700,0.00001750,-0.00000358,0.00000469,-0.00000248,-0.00000293,0.000022
 47,-0.00002894,-0.00001277,-0.00000996,-0.00004894,-0.00004197,-0.0000
 0305,-0.00025638,0.00009857,0.00003739,0.00190988,0.00081125,0.0005955
 6,0.00427367,-0.00144141,-0.00230617,-0.01359883,-0.01755010,-0.007942
 91,-0.11271574,-0.33978468,-0.14392300,-0.00316508,0.00033579,0.000022
 64,-0.00021670,-0.00026105,0.00027682,0.12286408,0.35277101,-0.0000246
 2,-0.00000403,0.00001435,0.00001828,0.00000135,0.00003753,0.00017580,-
 0.00052656,0.00074431,0.00000764,0.00003345,-0.00009883,-0.00001246,-0
 .00005228,0.00002862,0.00013076,0.00012797,-0.00007920,-0.00006324,0.0
 0006286,-0.00013826,-0.00058695,-0.00069949,0.00486062,-0.00002884,-0.
 00001942,0.00001083,0.00000561,-0.00000152,-0.00000292,0.00000572,0.00
 002593,-0.00001901,0.00001148,-0.00002883,0.00006056,0.00000277,-0.000
 00045,-0.00000321,-0.00000047,0.00000806,-0.00002966,0.00001072,0.0000
 0171,-0.00000410,-0.00000567,0.00001260,-0.00003008,0.00000604,-0.0000
 0258,0.00001421,-0.00002081,0.00002379,0.00007406,-0.00003317,0.000034
 52,-0.00004774,0.00070025,0.00046622,-0.00013251,0.00130867,-0.0022954
 3,0.00369236,-0.00433450,-0.00603964,-0.00390757,-0.05400993,-0.143602
 53,-0.08121292,-0.00133813,-0.00204793,-0.00090292,-0.00002393,0.00032
 627,-0.00079484,0.05763688,0.15005580,0.08425657,0.00037711,0.00023787
 ,0.00097447,-0.00116720,0.00082049,-0.00164475,0.00550222,0.00003956,0
 .00242166,-0.00093198,-0.00065358,0.00087903,0.00027153,-0.00005153,-0
 .00022762,-0.00406852,0.00154836,-0.00106267,-0.00024809,-0.00034540,-
 0.00001876,-0.00762600,-0.00029190,0.00108769,0.00186071,-0.00038627,-
 0.00080795,-0.00048969,0.00005878,-0.00000526,-0.00104767,-0.00066322,
 -0.00019012,0.00018901,-0.00011221,0.00070436,-0.00055289,0.00001072,-
 0.00013025,-0.00192675,0.00078114,-0.00030701,-0.00035399,0.00010574,0
 .00001811,0.00009514,0.00004473,-0.00020770,0.00048878,0.00029918,-0.0
 0005437,0.00076518,0.00067553,-0.00106117,0.00284194,-0.00105369,0.000
 18833,0.01381155,-0.00203171,-0.00080815,-0.03993622,-0.04510800,-0.02
 407862,-0.57161087,-0.10531303,-0.07940563,-0.09382772,0.01782353,0.00
 014701,0.01249367,0.00367226,0.00197968,-0.00131211,-0.00081144,-0.000
 31557,-0.00182559,-0.00101512,-0.00045332,0.69757721,0.00003230,-0.000
 00927,0.00043646,-0.00057441,0.00006064,-0.00079668,0.00176087,0.00072
 518,0.00176863,-0.00029776,0.00000013,0.00025990,0.00003404,-0.0000539
 2,0.00001245,-0.00165898,0.00086371,-0.00042950,0.00016342,0.00007419,
 0.00003096,-0.00448638,0.00953974,0.00523736,0.00062908,-0.00021793,-0
 .00036006,-0.00022207,0.00002336,-0.00000238,-0.00030101,-0.00007199,-
 0.00004351,-0.00015188,-0.00022918,-0.00013946,-0.00020453,0.00003754,
 -0.00001487,0.00038502,0.00030406,0.00013343,-0.00003582,0.00006922,0.
 00005842,0.00002606,0.00002829,-0.00002235,0.00017438,0.00007246,-0.00
 002011,0.00025058,0.00016575,-0.00031629,-0.00047653,-0.00014573,-0.00
 005585,0.01472222,-0.00676732,-0.00564147,-0.06536398,-0.01716769,-0.0
 2019408,-0.10469169,-0.11671591,-0.02232835,0.04830146,0.01761414,0.00
 138239,-0.01329380,-0.01133032,-0.00813161,-0.00150760,-0.00085971,0.0
 0004665,-0.00349996,0.00270697,0.00235679,0.12643638,0.11952240,0.0000
 4730,0.00004742,0.00020591,-0.00017888,0.00012997,-0.00048550,0.001395
 67,0.00076108,0.00002131,-0.00014327,-0.00012653,0.00033185,0.00000672
 ,-0.00000831,0.00000652,-0.00127725,0.00047734,-0.00013048,0.00007132,
 -0.00005313,0.00000580,-0.00260444,0.00479329,0.00100109,0.00043009,-0
 .00010045,-0.00028756,-0.00011968,0.00001245,0.00001178,-0.00017403,-0
 .00009543,0.00001966,-0.00006352,-0.00009407,-0.00006571,-0.00014336,0
 .00002091,-0.00000491,0.00000715,0.00015001,0.00013750,-0.00003873,0.0
 0004002,0.00003437,0.00001804,-0.00000409,0.00000251,0.00008021,0.0000
 4894,-0.00004100,0.00010333,0.00010530,-0.00032046,0.00004032,-0.00008
 558,-0.00013965,0.00685386,-0.00633584,0.00474624,-0.03269048,-0.01904
 058,0.00793750,-0.07909406,-0.02222604,-0.09688904,0.01312136,-0.00038
 829,0.02199260,-0.00530425,-0.00753998,0.00320321,-0.00069594,0.000010
 30,-0.00107665,-0.00135176,0.00256337,-0.00247800,0.10061977,0.0453531
 3,0.06267390,0.00122414,0.00102648,-0.00115174,0.00028538,0.00299641,0
 .00269294,-0.00881509,0.00521259,-0.00208357,0.00115488,-0.00409699,0.
 00027234,0.00001296,-0.00069129,-0.00208243,0.00384551,-0.00696430,-0.
 00072901,0.00065611,-0.00024140,-0.00023805,0.02009953,0.01783617,0.00
 601026,-0.00068869,0.00120837,0.00134745,0.00065088,-0.00001931,-0.000
 11848,-0.00038786,-0.00172355,-0.00038713,0.00306632,0.00350933,0.0079
 9817,0.00022889,-0.00056555,-0.00037725,-0.02715943,0.00412614,-0.0049
 1487,-0.00165807,-0.00063624,-0.00157288,-0.00004892,-0.00001561,-0.00
 135246,-0.00023952,0.00013085,0.00005099,-0.00152724,-0.00004129,0.000
 91895,0.01002566,-0.00790782,-0.00098291,-0.00416398,-0.00509273,-0.00
 216651,0.00069357,0.00874541,0.00386367,0.00997754,-0.01989482,-0.0080
 9475,-0.07823209,0.06691819,0.02326451,-0.24259780,0.18903255,0.069819
 07,0.00087646,0.00001232,0.00007554,0.00450742,0.00125804,0.00091545,-
 0.00934877,0.00385061,0.00108453,0.31756223,-0.00029029,-0.00101501,0.
 00090589,-0.00129643,-0.00075617,-0.00004880,0.01079928,-0.00091440,0.
 00527983,-0.00163475,0.00101957,0.00015603,-0.00139493,-0.00229899,0.0
 0048059,-0.00542899,0.00499458,-0.00190466,0.00013172,0.00034309,0.000
 30519,0.02771542,-0.05435163,-0.02939351,0.00225706,-0.00109455,-0.000
 94147,-0.00080957,-0.00002139,0.00011314,-0.00060283,0.00110959,-0.000
 01216,-0.00231661,-0.00300136,-0.00548489,-0.00048164,0.00051822,0.000
 17306,0.01893295,0.00300403,0.00354535,0.00103219,0.00063770,0.0010412
 7,-0.00014053,0.00008029,0.00071214,0.00063935,0.00004911,0.00001784,0
 .00135959,0.00026359,-0.00139546,-0.02132469,-0.00235246,-0.00126762,-
 0.01959387,0.00229129,-0.00250055,0.01262883,0.00364967,0.00322868,-0.
 00594606,-0.00543975,-0.00608494,0.03604801,0.00655524,-0.00251620,0.1
 9800959,-0.36682435,-0.11378841,0.00092399,-0.00244095,-0.00018785,0.0
 0347295,-0.00128498,0.00178337,0.00528285,0.00176121,0.00158479,-0.257
 97257,0.41551881,-0.00068577,0.00039427,0.00029677,0.00082878,-0.00197
 305,-0.00176141,0.00428165,0.00225622,-0.00125662,-0.00057137,0.001642
 78,0.00064113,-0.00085967,0.00011581,0.00094538,-0.00400293,-0.0006438
 4,-0.00121207,-0.00001075,0.00015218,0.00012607,0.01097911,-0.03170839
 ,0.00902726,0.00180421,0.00001208,-0.00084744,-0.00022704,0.00001527,0
 .00006453,0.00033978,0.00035579,0.00047548,0.00016523,-0.00089404,-0.0
 0119384,-0.00034709,0.00013048,0.00009836,0.00257051,0.00057796,0.0048
 9277,0.00018183,0.00017569,0.00031113,0.00020826,-0.00011333,0.0004322
 6,0.00000814,-0.00007481,-0.00011557,0.00076652,-0.00006801,-0.0008313
 1,-0.00554028,0.00015535,-0.00760511,-0.00844216,-0.00164174,0.0043484
 5,0.00533190,0.00270783,-0.00011413,-0.00243248,-0.00636063,0.00409338
 ,0.01023283,-0.00064061,0.01816272,0.07311218,-0.11367553,-0.11845117,
 0.00055240,-0.00000136,-0.00207262,0.00205921,0.00148427,-0.00391223,0
 .00175883,0.00142003,-0.00041280,-0.09206183,0.14619933,0.09587063\\0.
 00001003,0.00000500,0.00002020,0.00000384,0.00001798,-0.00002948,0.000
 03124,-0.00002810,0.00004124,-0.00001100,-0.00002188,-0.00000078,-0.00
 001240,-0.00000248,-0.00000270,-0.00004428,0.00001912,-0.00002321,-0.0
 0000414,0.00000155,0.00000841,-0.00001148,-0.00000548,0.00000177,0.000
 03449,-0.00000564,-0.00001783,0.00000287,-0.00000436,0.00000301,0.0000
 3271,-0.00000491,0.00001204,-0.00002457,-0.00000442,-0.00003448,-0.000
 00002,0.00000868,-0.00000014,0.00001579,0.00000975,0.00002121,0.000005
 66,0.00000384,0.00000331,0.00000603,0.00000264,0.00000895,-0.00002070,
 0.00000780,-0.00000382,0.00000413,0.00000099,-0.00000612,-0.00001304,0
 .00000585,-0.00000653,-0.00002141,-0.00003105,0.00002545,0.00001020,0.
 00000068,-0.00001476,-0.00000738,0.00002806,-0.00000033,0.00000771,-0.
 00001715,0.00001825,0.00000503,0.00000524,-0.00001044,0.00000475,0.000
 00458,-0.00000905,0.00000120,0.00000375,-0.00000338,0.00000209,-0.0000
 0603,-0.00000085,-0.00000735,0.00000600,0.00000005\\\@
 The archive entry for this job was punched.


 Everywhere is walking distance if you have the time.
                                    -- Steven Wright
 Job cpu time:       0 days  9 hours 55 minutes 54.0 seconds.
 Elapsed time:       0 days  0 hours 15 minutes  1.9 seconds.
 File lengths (MBytes):  RWF=    600 Int=      0 D2E=      0 Chk=     20 Scr=      1
 Normal termination of Gaussian 16 at Sun Oct 27 01:11:22 2024.
