 Entering Gaussian System, Link 0=g16
 Input=PseudoUridineAmSallgPBE0aVDZ.gjf
 Output=PseudoUridineAmSallgPBE0aVDZ.log
 Initial command:
 /sw/contrib/chem-src/g16/c01/g16/l1.exe "/scr/Gau-81563.inp" -scrdir="/scr/"
 Entering Link 1 = /sw/contrib/chem-src/g16/c01/g16/l1.exe PID=     81564.
  
 Copyright (c) 1988-2019, Gaussian, Inc.  All Rights Reserved.
  
 This is part of the Gaussian(R) 16 program.  It is based on
 the Gaussian(R) 09 system (copyright 2009, Gaussian, Inc.),
 the Gaussian(R) 03 system (copyright 2003, Gaussian, Inc.),
 the Gaussian(R) 98 system (copyright 1998, Gaussian, Inc.),
 the Gaussian(R) 94 system (copyright 1995, Gaussian, Inc.),
 the Gaussian 92(TM) system (copyright 1992, Gaussian, Inc.),
 the Gaussian 90(TM) system (copyright 1990, Gaussian, Inc.),
 the Gaussian 88(TM) system (copyright 1988, Gaussian, Inc.),
 the Gaussian 86(TM) system (copyright 1986, Carnegie Mellon
 University), and the Gaussian 82(TM) system (copyright 1983,
 Carnegie Mellon University). Gaussian is a federally registered
 trademark of Gaussian, Inc.
  
 This software contains proprietary and confidential information,
 including trade secrets, belonging to Gaussian, Inc.
  
 This software is provided under written license and may be
 used, copied, transmitted, or stored only in accord with that
 written license.
  
 The following legend is applicable only to US Government
 contracts under FAR:
  
                    RESTRICTED RIGHTS LEGEND
  
 Use, reproduction and disclosure by the US Government is
 subject to restrictions as set forth in subparagraphs (a)
 and (c) of the Commercial Computer Software - Restricted
 Rights clause in FAR 52.227-19.
  
 Gaussian, Inc.
 340 Quinnipiac St., Bldg. 40, Wallingford CT 06492
  
  
 ---------------------------------------------------------------
 Warning -- This program may not be used in any manner that
 competes with the business of Gaussian, Inc. or will provide
 assistance to any competitor of Gaussian, Inc.  The licensee
 of this program is prohibited from giving any competitor of
 Gaussian, Inc. access to this program.  By using this program,
 the user acknowledges that Gaussian, Inc. is engaged in the
 business of creating and licensing software in the field of
 computational chemistry and represents and warrants to the
 licensee that it is not a competitor of Gaussian, Inc. and that
 it will not use this program in any manner prohibited above.
 ---------------------------------------------------------------
  

 Cite this work as:
 Gaussian 16, Revision C.01,
 M. J. Frisch, G. W. Trucks, H. B. Schlegel, G. E. Scuseria, 
 M. A. Robb, J. R. Cheeseman, G. Scalmani, V. Barone, 
 G. A. Petersson, H. Nakatsuji, X. Li, M. Caricato, A. V. Marenich, 
 J. Bloino, B. G. Janesko, R. Gomperts, B. Mennucci, H. P. Hratchian, 
 J. V. Ortiz, A. F. Izmaylov, J. L. Sonnenberg, D. Williams-Young, 
 F. Ding, F. Lipparini, F. Egidi, J. Goings, B. Peng, A. Petrone, 
 T. Henderson, D. Ranasinghe, V. G. Zakrzewski, J. Gao, N. Rega, 
 G. Zheng, W. Liang, M. Hada, M. Ehara, K. Toyota, R. Fukuda, 
 J. Hasegawa, M. Ishida, T. Nakajima, Y. Honda, O. Kitao, H. Nakai, 
 T. Vreven, K. Throssell, J. A. Montgomery, Jr., J. E. Peralta, 
 F. Ogliaro, M. J. Bearpark, J. J. Heyd, E. N. Brothers, K. N. Kudin, 
 V. N. Staroverov, T. A. Keith, R. Kobayashi, J. Normand, 
 K. Raghavachari, A. P. Rendell, J. C. Burant, S. S. Iyengar, 
 J. Tomasi, M. Cossi, J. M. Millam, M. Klene, C. Adamo, R. Cammi, 
 J. W. Ochterski, R. L. Martin, K. Morokuma, O. Farkas, 
 J. B. Foresman, and D. J. Fox, Gaussian, Inc., Wallingford CT, 2019.
 
 ******************************************
 Gaussian 16:  EM64L-G16RevC.01  3-Jul-2019
                27-Oct-2024 
 ******************************************
 %nprocshared=40
 Will use up to   40 processors via shared memory.
 %mem=50gb
 ------------------------------------------------------
 # PBE1PBE/aug-cc-pVDZ opt freq EmpiricalDispersion=GD3
 ------------------------------------------------------
 1/18=20,19=15,26=3,38=1/1,3;
 2/9=110,12=2,17=6,18=5,40=1/2;
 3/5=16,7=10,11=2,25=1,30=1,71=1,74=-13,124=31/1,2,3;
 4//1;
 5/5=2,38=5/2;
 6/7=2,8=2,9=2,10=2,28=1/1;
 7//1,2,3,16;
 1/18=20,19=15,26=3/3(2);
 2/9=110/2;
 99//99;
 2/9=110/2;
 3/5=16,7=10,11=2,25=1,30=1,71=1,74=-13,124=31/1,2,3;
 4/5=5,16=3,69=1/1;
 5/5=2,38=5/2;
 7//1,2,3,16;
 1/18=20,19=15,26=3/3(-5);
 2/9=110/2;
 6/7=2,8=2,9=2,10=2,19=2,28=1/1;
 99/9=1/99;
 ----
 blah
 ----
 Symbolic Z-matrix:
 Charge =  0 Multiplicity = 2
 C                    -2.73955  -0.53882   0.30627 
 C                    -1.31742  -0.75264   0.80491 
 C                    -0.50489  -0.73512  -0.49533 
 O                    -1.21622  -1.98987   1.49756 
 H                    -1.02089   0.08396   1.44904 
 O                    -1.17738   0.21828  -1.32347 
 H                    -0.59765  -1.74175  -0.94807 
 C                     0.93835  -0.42342  -0.32883 
 C                    -2.52021   0.41435  -0.86992 
 H                    -3.3888   -0.09074   1.07454 
 O                    -3.29453  -1.76123  -0.15941 
 C                    -2.70297   1.88397  -0.52196 
 H                    -3.21684   0.14187  -1.68105 
 O                    -2.00231   2.28549   0.62371 
 H                    -3.77318   2.07325  -0.33535 
 H                    -2.40839   2.47334  -1.41083 
 H                    -2.86776  -2.4521    0.36563 
 H                    -0.28079  -2.22379   1.51171 
 H                    -1.04194   2.09023   0.51138 
 C                     1.93427  -1.30909  -0.73404 
 N                     3.25267  -1.17907  -0.61953 
 C                     3.70831  -0.02523  -0.04824 
 N                     2.74296   0.91478   0.35267 
 C                     1.37138   0.80997   0.2559 
 H                     1.60253  -2.24341  -1.20885 
 H                     3.10188   1.7685    0.76004 
 O                     4.89578   0.25006   0.13726 
 O                     0.65953   1.75064   0.67025 
 

 GradGradGradGradGradGradGradGradGradGradGradGradGradGradGradGradGradGrad
 Berny optimization.
 Initialization pass.
                           ----------------------------
                           !    Initial Parameters    !
                           ! (Angstroms and Degrees)  !
 --------------------------                            --------------------------
 ! Name  Definition              Value          Derivative Info.                !
 --------------------------------------------------------------------------------
 ! R1    R(1,2)                  1.5221         estimate D2E/DX2                !
 ! R2    R(1,9)                  1.5297         estimate D2E/DX2                !
 ! R3    R(1,10)                 1.1012         estimate D2E/DX2                !
 ! R4    R(1,11)                 1.421          estimate D2E/DX2                !
 ! R5    R(2,3)                  1.5333         estimate D2E/DX2                !
 ! R6    R(2,4)                  1.4215         estimate D2E/DX2                !
 ! R7    R(2,5)                  1.0967         estimate D2E/DX2                !
 ! R8    R(3,6)                  1.4307         estimate D2E/DX2                !
 ! R9    R(3,7)                  1.1076         estimate D2E/DX2                !
 ! R10   R(3,8)                  1.4859         estimate D2E/DX2                !
 ! R11   R(4,18)                 0.9643         estimate D2E/DX2                !
 ! R12   R(6,9)                  1.4308         estimate D2E/DX2                !
 ! R13   R(8,20)                 1.393          estimate D2E/DX2                !
 ! R14   R(8,24)                 1.432          estimate D2E/DX2                !
 ! R15   R(9,12)                 1.5213         estimate D2E/DX2                !
 ! R16   R(9,13)                 1.1034         estimate D2E/DX2                !
 ! R17   R(11,17)                0.967          estimate D2E/DX2                !
 ! R18   R(12,14)                1.4017         estimate D2E/DX2                !
 ! R19   R(12,15)                1.1027         estimate D2E/DX2                !
 ! R20   R(12,16)                1.1064         estimate D2E/DX2                !
 ! R21   R(14,19)                0.9864         estimate D2E/DX2                !
 ! R22   R(20,21)                1.3297         estimate D2E/DX2                !
 ! R23   R(20,25)                1.0993         estimate D2E/DX2                !
 ! R24   R(21,22)                1.3658         estimate D2E/DX2                !
 ! R25   R(22,23)                1.4058         estimate D2E/DX2                !
 ! R26   R(22,27)                1.233          estimate D2E/DX2                !
 ! R27   R(23,24)                1.379          estimate D2E/DX2                !
 ! R28   R(23,26)                1.0117         estimate D2E/DX2                !
 ! R29   R(24,28)                1.2503         estimate D2E/DX2                !
 ! A1    A(2,1,9)              101.8555         estimate D2E/DX2                !
 ! A2    A(2,1,10)             112.3013         estimate D2E/DX2                !
 ! A3    A(2,1,11)             110.5745         estimate D2E/DX2                !
 ! A4    A(9,1,10)             111.5577         estimate D2E/DX2                !
 ! A5    A(9,1,11)             109.8802         estimate D2E/DX2                !
 ! A6    A(10,1,11)            110.3915         estimate D2E/DX2                !
 ! A7    A(1,2,3)              102.4564         estimate D2E/DX2                !
 ! A8    A(1,2,4)              110.3897         estimate D2E/DX2                !
 ! A9    A(1,2,5)              109.7471         estimate D2E/DX2                !
 ! A10   A(3,2,4)              112.6687         estimate D2E/DX2                !
 ! A11   A(3,2,5)              110.2466         estimate D2E/DX2                !
 ! A12   A(4,2,5)              111.0087         estimate D2E/DX2                !
 ! A13   A(2,3,6)              104.4401         estimate D2E/DX2                !
 ! A14   A(2,3,7)              106.9685         estimate D2E/DX2                !
 ! A15   A(2,3,8)              114.9654         estimate D2E/DX2                !
 ! A16   A(6,3,7)              109.2473         estimate D2E/DX2                !
 ! A17   A(6,3,8)              112.4337         estimate D2E/DX2                !
 ! A18   A(7,3,8)              108.5294         estimate D2E/DX2                !
 ! A19   A(2,4,18)             106.6983         estimate D2E/DX2                !
 ! A20   A(3,6,9)              110.4231         estimate D2E/DX2                !
 ! A21   A(3,8,20)             121.9011         estimate D2E/DX2                !
 ! A22   A(3,8,24)             121.3426         estimate D2E/DX2                !
 ! A23   A(20,8,24)            116.7561         estimate D2E/DX2                !
 ! A24   A(1,9,6)              107.0323         estimate D2E/DX2                !
 ! A25   A(1,9,12)             114.1326         estimate D2E/DX2                !
 ! A26   A(1,9,13)             108.7128         estimate D2E/DX2                !
 ! A27   A(6,9,12)             108.5196         estimate D2E/DX2                !
 ! A28   A(6,9,13)             109.0054         estimate D2E/DX2                !
 ! A29   A(12,9,13)            109.3205         estimate D2E/DX2                !
 ! A30   A(1,11,17)            105.3252         estimate D2E/DX2                !
 ! A31   A(9,12,14)            113.8051         estimate D2E/DX2                !
 ! A32   A(9,12,15)            108.7312         estimate D2E/DX2                !
 ! A33   A(9,12,16)            107.3882         estimate D2E/DX2                !
 ! A34   A(14,12,15)           107.316          estimate D2E/DX2                !
 ! A35   A(14,12,16)           111.7744         estimate D2E/DX2                !
 ! A36   A(15,12,16)           107.6328         estimate D2E/DX2                !
 ! A37   A(12,14,19)           109.6874         estimate D2E/DX2                !
 ! A38   A(8,20,21)            128.4357         estimate D2E/DX2                !
 ! A39   A(8,20,25)            116.7614         estimate D2E/DX2                !
 ! A40   A(21,20,25)           114.8025         estimate D2E/DX2                !
 ! A41   A(20,21,22)           116.7048         estimate D2E/DX2                !
 ! A42   A(21,22,23)           117.0716         estimate D2E/DX2                !
 ! A43   A(21,22,27)           124.9495         estimate D2E/DX2                !
 ! A44   A(23,22,27)           117.9788         estimate D2E/DX2                !
 ! A45   A(22,23,24)           127.7471         estimate D2E/DX2                !
 ! A46   A(22,23,26)           115.8136         estimate D2E/DX2                !
 ! A47   A(24,23,26)           116.4394         estimate D2E/DX2                !
 ! A48   A(8,24,23)            113.2592         estimate D2E/DX2                !
 ! A49   A(8,24,28)            127.6725         estimate D2E/DX2                !
 ! A50   A(23,24,28)           119.0678         estimate D2E/DX2                !
 ! D1    D(9,1,2,3)            -35.3527         estimate D2E/DX2                !
 ! D2    D(9,1,2,4)           -155.5634         estimate D2E/DX2                !
 ! D3    D(9,1,2,5)             81.7666         estimate D2E/DX2                !
 ! D4    D(10,1,2,3)          -154.8184         estimate D2E/DX2                !
 ! D5    D(10,1,2,4)            84.971          estimate D2E/DX2                !
 ! D6    D(10,1,2,5)           -37.6991         estimate D2E/DX2                !
 ! D7    D(11,1,2,3)            81.3869         estimate D2E/DX2                !
 ! D8    D(11,1,2,4)           -38.8238         estimate D2E/DX2                !
 ! D9    D(11,1,2,5)          -161.4938         estimate D2E/DX2                !
 ! D10   D(2,1,9,6)             24.3624         estimate D2E/DX2                !
 ! D11   D(2,1,9,12)           -95.7209         estimate D2E/DX2                !
 ! D12   D(2,1,9,13)           141.9675         estimate D2E/DX2                !
 ! D13   D(10,1,9,6)           144.3523         estimate D2E/DX2                !
 ! D14   D(10,1,9,12)           24.269          estimate D2E/DX2                !
 ! D15   D(10,1,9,13)          -98.0426         estimate D2E/DX2                !
 ! D16   D(11,1,9,6)           -92.8795         estimate D2E/DX2                !
 ! D17   D(11,1,9,12)          147.0372         estimate D2E/DX2                !
 ! D18   D(11,1,9,13)           24.7255         estimate D2E/DX2                !
 ! D19   D(2,1,11,17)           29.8082         estimate D2E/DX2                !
 ! D20   D(9,1,11,17)          141.4672         estimate D2E/DX2                !
 ! D21   D(10,1,11,17)         -95.079          estimate D2E/DX2                !
 ! D22   D(1,2,3,6)             34.8339         estimate D2E/DX2                !
 ! D23   D(1,2,3,7)            -80.9174         estimate D2E/DX2                !
 ! D24   D(1,2,3,8)            158.5146         estimate D2E/DX2                !
 ! D25   D(4,2,3,6)            153.4497         estimate D2E/DX2                !
 ! D26   D(4,2,3,7)             37.6984         estimate D2E/DX2                !
 ! D27   D(4,2,3,8)            -82.8696         estimate D2E/DX2                !
 ! D28   D(5,2,3,6)            -81.9278         estimate D2E/DX2                !
 ! D29   D(5,2,3,7)            162.3209         estimate D2E/DX2                !
 ! D30   D(5,2,3,8)             41.7529         estimate D2E/DX2                !
 ! D31   D(1,2,4,18)           160.2652         estimate D2E/DX2                !
 ! D32   D(3,2,4,18)            46.3977         estimate D2E/DX2                !
 ! D33   D(5,2,4,18)           -77.8061         estimate D2E/DX2                !
 ! D34   D(2,3,6,9)            -20.2302         estimate D2E/DX2                !
 ! D35   D(7,3,6,9)             93.9193         estimate D2E/DX2                !
 ! D36   D(8,3,6,9)           -145.5287         estimate D2E/DX2                !
 ! D37   D(2,3,8,20)           120.8974         estimate D2E/DX2                !
 ! D38   D(2,3,8,24)           -59.2642         estimate D2E/DX2                !
 ! D39   D(6,3,8,20)          -119.7747         estimate D2E/DX2                !
 ! D40   D(6,3,8,24)            60.0637         estimate D2E/DX2                !
 ! D41   D(7,3,8,20)             1.19           estimate D2E/DX2                !
 ! D42   D(7,3,8,24)          -178.9716         estimate D2E/DX2                !
 ! D43   D(3,6,9,1)             -2.6641         estimate D2E/DX2                !
 ! D44   D(3,6,9,12)           120.9486         estimate D2E/DX2                !
 ! D45   D(3,6,9,13)          -120.0772         estimate D2E/DX2                !
 ! D46   D(3,8,20,21)         -178.2338         estimate D2E/DX2                !
 ! D47   D(3,8,20,25)            1.5268         estimate D2E/DX2                !
 ! D48   D(24,8,20,21)           1.9208         estimate D2E/DX2                !
 ! D49   D(24,8,20,25)        -178.3186         estimate D2E/DX2                !
 ! D50   D(3,8,24,23)          178.8401         estimate D2E/DX2                !
 ! D51   D(3,8,24,28)           -0.8896         estimate D2E/DX2                !
 ! D52   D(20,8,24,23)          -1.3135         estimate D2E/DX2                !
 ! D53   D(20,8,24,28)         178.9568         estimate D2E/DX2                !
 ! D54   D(1,9,12,14)           49.4054         estimate D2E/DX2                !
 ! D55   D(1,9,12,15)          -70.1394         estimate D2E/DX2                !
 ! D56   D(1,9,12,16)          173.6699         estimate D2E/DX2                !
 ! D57   D(6,9,12,14)          -69.8406         estimate D2E/DX2                !
 ! D58   D(6,9,12,15)          170.6146         estimate D2E/DX2                !
 ! D59   D(6,9,12,16)           54.4239         estimate D2E/DX2                !
 ! D60   D(13,9,12,14)         171.3838         estimate D2E/DX2                !
 ! D61   D(13,9,12,15)          51.839          estimate D2E/DX2                !
 ! D62   D(13,9,12,16)         -64.3517         estimate D2E/DX2                !
 ! D63   D(9,12,14,19)          56.9178         estimate D2E/DX2                !
 ! D64   D(15,12,14,19)        177.2619         estimate D2E/DX2                !
 ! D65   D(16,12,14,19)        -64.9494         estimate D2E/DX2                !
 ! D66   D(8,20,21,22)          -0.9434         estimate D2E/DX2                !
 ! D67   D(25,20,21,22)        179.2921         estimate D2E/DX2                !
 ! D68   D(20,21,22,23)         -0.4799         estimate D2E/DX2                !
 ! D69   D(20,21,22,27)        179.6671         estimate D2E/DX2                !
 ! D70   D(21,22,23,24)          0.9166         estimate D2E/DX2                !
 ! D71   D(21,22,23,26)       -179.0711         estimate D2E/DX2                !
 ! D72   D(27,22,23,24)       -179.2198         estimate D2E/DX2                !
 ! D73   D(27,22,23,26)          0.7925         estimate D2E/DX2                !
 ! D74   D(22,23,24,8)           0.0444         estimate D2E/DX2                !
 ! D75   D(22,23,24,28)        179.7996         estimate D2E/DX2                !
 ! D76   D(26,23,24,8)        -179.968          estimate D2E/DX2                !
 ! D77   D(26,23,24,28)         -0.2128         estimate D2E/DX2                !
 --------------------------------------------------------------------------------
 Trust Radius=3.00D-01 FncErr=1.00D-07 GrdErr=1.00D-06 EigMax=2.50D+02 EigMin=1.00D-04
 Number of steps in this run=    166 maximum allowed number of steps=    168.
 GradGradGradGradGradGradGradGradGradGradGradGradGradGradGradGradGradGrad

                          Input orientation:                          
 ---------------------------------------------------------------------
 Center     Atomic      Atomic             Coordinates (Angstroms)
 Number     Number       Type             X           Y           Z
 ---------------------------------------------------------------------
      1          6           0       -2.739552   -0.538823    0.306272
      2          6           0       -1.317417   -0.752643    0.804912
      3          6           0       -0.504892   -0.735124   -0.495333
      4          8           0       -1.216215   -1.989870    1.497556
      5          1           0       -1.020894    0.083962    1.449044
      6          8           0       -1.177383    0.218278   -1.323472
      7          1           0       -0.597650   -1.741752   -0.948073
      8          6           0        0.938349   -0.423418   -0.328826
      9          6           0       -2.520205    0.414346   -0.869918
     10          1           0       -3.388797   -0.090736    1.074541
     11          8           0       -3.294533   -1.761234   -0.159405
     12          6           0       -2.702972    1.883970   -0.521962
     13          1           0       -3.216842    0.141867   -1.681047
     14          8           0       -2.002309    2.285491    0.623711
     15          1           0       -3.773178    2.073252   -0.335347
     16          1           0       -2.408387    2.473335   -1.410831
     17          1           0       -2.867756   -2.452095    0.365634
     18          1           0       -0.280793   -2.223786    1.511712
     19          1           0       -1.041943    2.090235    0.511384
     20          6           0        1.934266   -1.309087   -0.734035
     21          7           0        3.252665   -1.179074   -0.619531
     22          6           0        3.708312   -0.025227   -0.048236
     23          7           0        2.742956    0.914782    0.352667
     24          6           0        1.371379    0.809966    0.255899
     25          1           0        1.602529   -2.243414   -1.208850
     26          1           0        3.101879    1.768495    0.760042
     27          8           0        4.895775    0.250063    0.137264
     28          8           0        0.659526    1.750638    0.670245
 ---------------------------------------------------------------------
                    Distance matrix (angstroms):
                    1          2          3          4          5
     1  C    0.000000
     2  C    1.522113   0.000000
     3  C    2.382186   1.533343   0.000000
     4  O    2.417695   1.421523   2.460076   0.000000
     5  H    2.155823   1.096695   2.172041   2.083575   0.000000
     6  O    2.381100   2.343569   1.430746   3.582684   2.780175
     7  H    2.758290   2.137606   1.107645   2.534815   3.042784
     8  C    3.734116   2.546023   1.485877   3.229797   2.693861
     9  C    1.529728   2.369307   2.350124   3.617399   2.781128
    10  H    1.101153   2.191218   3.346139   2.916464   2.403692
    11  O    1.420967   2.419949   2.991295   2.667808   3.340852
    12  C    2.560710   3.260688   3.419345   4.614709   3.155040
    13  H    2.154201   3.253914   3.087022   4.318603   3.824004
    14  O    2.936161   3.119642   3.552271   4.433989   2.547760
    15  H    2.881492   3.913647   4.312107   5.138731   3.836195
    16  H    3.482988   4.062840   3.841307   5.458955   3.976572
    17  H    1.918481   2.341934   3.045058   2.054869   3.319075
    18  H    3.215227   1.933499   2.508897   0.964330   2.424330
    19  H    3.136223   2.871237   3.047057   4.201210   2.214674
    20  C    4.849755   3.640251   2.517122   3.920331   3.929299
    21  N    6.097024   4.805885   3.785730   5.011021   4.913000
    22  C    6.477994   5.149267   4.295921   5.522704   4.961770
    23  N    5.672126   4.412648   3.740296   5.042104   4.007352
    24  C    4.326838   3.157972   2.544022   4.009543   2.770135
    25  H    4.904579   3.847560   2.687986   3.915895   4.400390
    26  H    6.296979   5.088057   4.566494   5.771930   4.506621
    27  O    7.677833   6.328896   5.526118   6.650121   6.062617
    28  O    4.114346   3.192625   2.982189   4.265472   2.491616
                    6          7          8          9         10
     6  O    0.000000
     7  H    2.078156   0.000000
     8  C    2.424338   2.116782   0.000000
     9  C    1.430848   2.889824   3.599476   0.000000
    10  H    3.276631   3.821953   4.561174   2.188717   0.000000
    11  O    3.123435   2.809903   4.442493   2.416104   2.078959
    12  C    2.396742   4.214239   4.315155   1.521273   2.630331
    13  H    2.071978   3.308389   4.406094   1.103394   2.770729
    14  O    2.957261   4.545576   4.110108   2.449557   2.787840
    15  H    3.339981   5.001366   5.332156   2.146550   2.611202
    16  H    2.570658   4.610843   4.556595   2.131789   3.703071
    17  H    3.583480   2.717314   4.368551   3.140679   2.519930
    18  H    3.847833   2.526519   2.848721   4.200818   3.794827
    19  H    2.624741   4.124504   3.308468   2.627139   3.252922
    20  C    3.516055   2.577520   1.393002   4.778179   5.752419
    21  N    4.698239   3.905057   2.451853   5.993973   6.939984
    22  C    5.055248   4.722020   2.812469   6.297842   7.185672
    23  N    4.320141   4.461922   2.347726   5.426418   6.255443
    24  C    3.056255   3.440623   1.432011   4.070431   4.913320
    25  H    3.714967   2.271664   2.127901   4.916859   5.895866
    26  H    5.005625   5.378290   3.266646   6.008188   6.759033
    27  O    6.246440   5.943316   4.041292   7.485864   8.344385
    28  O    3.114044   4.049226   2.408818   3.777363   4.465762
                   11         12         13         14         15
    11  O    0.000000
    12  C    3.710647   0.000000
    13  H    2.437873   2.154638   0.000000
    14  O    4.319618   1.401683   3.373740   0.000000
    15  H    3.868248   1.102721   2.418815   2.025047   0.000000
    16  H    4.503654   1.106445   2.482410   2.083158   1.783083
    17  H    0.967002   4.429045   3.322560   4.822896   4.667968
    18  H    3.476955   5.184249   4.940689   4.907723   5.837201
    19  H    4.511977   1.967071   3.651449   0.986430   2.859526
    20  C    5.279676   5.634231   5.434704   5.501008   6.646359
    21  N    6.589114   6.697863   6.687767   6.415888   7.747313
    22  C    7.215672   6.706267   7.117004   6.196945   7.775522
    23  N    6.623787   5.600217   6.344492   4.946701   6.653978
    24  C    5.343621   4.284727   5.024927   3.700572   5.330284
    25  H    5.031406   6.003703   5.398043   6.071583   6.949449
    26  H    7.363318   5.945853   6.966424   5.132115   6.968440
    27  O    8.438867   7.800332   8.314597   7.208548   8.871196
    28  O    5.353144   3.570088   4.810712   2.715437   4.556771
                   16         17         18         19         20
    16  H    0.000000
    17  H    5.256112   0.000000
    18  H    5.927129   2.838661   0.000000
    19  H    2.389319   4.897714   4.493415   0.000000
    20  C    5.798569   5.057188   3.284287   4.686606   0.000000
    21  N    6.783344   6.328561   4.256635   5.514618   1.329733
    22  C    6.746368   7.021798   4.814567   5.230036   2.294745
    23  N    5.663510   6.543403   4.509662   3.966402   2.603938
    24  C    4.453248   5.350079   3.675648   2.743808   2.405659
    25  H    6.194834   4.744048   3.308889   5.360313   1.099302
    26  H    5.964270   7.321576   5.286377   4.163725   3.614844
    27  O    7.790399   8.223517   5.899652   6.227575   3.458417
    28  O    3.776938   5.495223   4.169930   1.742286   3.599845
                   21         22         23         24         25
    21  N    0.000000
    22  C    1.365780   0.000000
    23  N    2.364150   1.405792   0.000000
    24  C    2.874351   2.500260   1.378976   0.000000
    25  H    2.050138   3.271345   3.703122   3.394414   0.000000
    26  H    3.257932   2.058765   1.011734   2.041462   4.713809
    27  O    2.305424   1.232990   2.263378   3.570565   4.344528
    28  O    4.119600   3.600695   2.267199   1.250312   4.513613
                   26         27         28
    26  H    0.000000
    27  O    2.431368   0.000000
    28  O    2.444068   4.525660   0.000000
 Stoichiometry    C9H11N2O6(2)
 Framework group  C1[X(C9H11N2O6)]
 Deg. of freedom    78
 Full point group                 C1      NOp   1
 Largest Abelian subgroup         C1      NOp   1
 Largest concise Abelian subgroup C1      NOp   1
                         Standard orientation:                         
 ---------------------------------------------------------------------
 Center     Atomic      Atomic             Coordinates (Angstroms)
 Number     Number       Type             X           Y           Z
 ---------------------------------------------------------------------
      1          6           0       -2.739552   -0.538823    0.306272
      2          6           0       -1.317417   -0.752643    0.804912
      3          6           0       -0.504892   -0.735124   -0.495333
      4          8           0       -1.216215   -1.989870    1.497556
      5          1           0       -1.020894    0.083962    1.449044
      6          8           0       -1.177383    0.218278   -1.323472
      7          1           0       -0.597650   -1.741752   -0.948073
      8          6           0        0.938349   -0.423418   -0.328826
      9          6           0       -2.520205    0.414346   -0.869918
     10          1           0       -3.388797   -0.090736    1.074541
     11          8           0       -3.294533   -1.761234   -0.159405
     12          6           0       -2.702972    1.883970   -0.521962
     13          1           0       -3.216842    0.141867   -1.681047
     14          8           0       -2.002309    2.285491    0.623711
     15          1           0       -3.773178    2.073252   -0.335347
     16          1           0       -2.408387    2.473335   -1.410831
     17          1           0       -2.867756   -2.452095    0.365634
     18          1           0       -0.280793   -2.223786    1.511712
     19          1           0       -1.041943    2.090235    0.511384
     20          6           0        1.934266   -1.309087   -0.734035
     21          7           0        3.252665   -1.179074   -0.619531
     22          6           0        3.708312   -0.025227   -0.048236
     23          7           0        2.742956    0.914782    0.352667
     24          6           0        1.371379    0.809966    0.255899
     25          1           0        1.602529   -2.243414   -1.208850
     26          1           0        3.101879    1.768495    0.760042
     27          8           0        4.895775    0.250063    0.137264
     28          8           0        0.659526    1.750638    0.670245
 ---------------------------------------------------------------------
 Rotational constants (GHZ):           0.9367473           0.3072812           0.2631319
 Standard basis: Aug-CC-pVDZ (5D, 7F)
 There are   524 symmetry adapted cartesian basis functions of A   symmetry.
 There are   490 symmetry adapted basis functions of A   symmetry.
   490 basis functions,   852 primitive gaussians,   524 cartesian basis functions
    64 alpha electrons       63 beta electrons
       nuclear repulsion energy      1309.6965921421 Hartrees.
 NAtoms=   28 NActive=   28 NUniq=   28 SFac= 1.00D+00 NAtFMM=   60 NAOKFM=F Big=F
 Integral buffers will be    131072 words long.
 Raffenetti 2 integral format.
 Two-electron integral symmetry is turned on.
 Nuclear repulsion after empirical dispersion term =     1309.6764232183 Hartrees.
 One-electron integrals computed using PRISM.
 NBasis=   490 RedAO= T EigKep=  2.61D-06  NBF=   490
 NBsUse=   490 1.00D-06 EigRej= -1.00D+00 NBFU=   490
 ExpMin= 2.97D-02 ExpMax= 1.17D+04 ExpMxC= 4.01D+02 IAcc=3 IRadAn=         5 AccDes= 0.00D+00
 Harris functional with IExCor= 1009 and IRadAn=       5 diagonalized for initial guess.
 HarFok:  IExCor= 1009 AccDes= 0.00D+00 IRadAn=         5 IDoV= 1 UseB2=F ITyADJ=14
 ICtDFT=  3500011 ScaDFX=  1.000000  1.000000  1.000000  1.000000
 FoFCou: FMM=F IPFlag=           0 FMFlag=      100000 FMFlg1=           0
         NFxFlg=           0 DoJE=T BraDBF=F KetDBF=T FulRan=T
         wScrn=  0.000000 ICntrl=       500 IOpCl=  0 I1Cent=   200000004 NGrid=           0
         NMat0=    1 NMatS0=      1 NMatT0=    0 NMatD0=    1 NMtDS0=    0 NMtDT0=    0
 Petite list used in FoFCou.
 Initial guess <Sx>= 0.0000 <Sy>= 0.0000 <Sz>= 0.5000 <S**2>= 0.7500 S= 0.5000
 Requested convergence on RMS density matrix=1.00D-08 within 128 cycles.
 Requested convergence on MAX density matrix=1.00D-06.
 Requested convergence on             energy=1.00D-06.
 No special actions if energy rises.
 Restarting incremental Fock formation.
 SCF Done:  E(UPBE1PBE) =  -909.552950432     A.U. after   22 cycles
            NFock= 22  Conv=0.67D-08     -V/T= 2.0054
 <Sx>= 0.0000 <Sy>= 0.0000 <Sz>= 0.5000 <S**2>= 0.7848 S= 0.5172
 <L.S>= 0.000000000000E+00
 Annihilation of the first spin contaminant:
 S**2 before annihilation     0.7848,   after     0.7507

 **********************************************************************

            Population analysis using the SCF Density.

 **********************************************************************

 Orbital symmetries:
 Alpha Orbitals:
       Occupied  (A) (A) (A) (A) (A) (A) (A) (A) (A) (A) (A) (A)
                 (A) (A) (A) (A) (A) (A) (A) (A) (A) (A) (A) (A)
                 (A) (A) (A) (A) (A) (A) (A) (A) (A) (A) (A) (A)
                 (A) (A) (A) (A) (A) (A) (A) (A) (A) (A) (A) (A)
                 (A) (A) (A) (A) (A) (A) (A) (A) (A) (A) (A) (A)
                 (A) (A) (A) (A)
       Virtual   (A) (A) (A) (A) (A) (A) (A) (A) (A) (A) (A) (A)
                 (A) (A) (A) (A) (A) (A) (A) (A) (A) (A) (A) (A)
                 (A) (A) (A) (A) (A) (A) (A) (A) (A) (A) (A) (A)
                 (A) (A) (A) (A) (A) (A) (A) (A) (A) (A) (A) (A)
                 (A) (A) (A) (A) (A) (A) (A) (A) (A) (A) (A) (A)
                 (A) (A) (A) (A) (A) (A) (A) (A) (A) (A) (A) (A)
                 (A) (A) (A) (A) (A) (A) (A) (A) (A) (A) (A) (A)
                 (A) (A) (A) (A) (A) (A) (A) (A) (A) (A) (A) (A)
                 (A) (A) (A) (A) (A) (A) (A) (A) (A) (A) (A) (A)
                 (A) (A) (A) (A) (A) (A) (A) (A) (A) (A) (A) (A)
                 (A) (A) (A) (A) (A) (A) (A) (A) (A) (A) (A) (A)
                 (A) (A) (A) (A) (A) (A) (A) (A) (A) (A) (A) (A)
                 (A) (A) (A) (A) (A) (A) (A) (A) (A) (A) (A) (A)
                 (A) (A) (A) (A) (A) (A) (A) (A) (A) (A) (A) (A)
                 (A) (A) (A) (A) (A) (A) (A) (A) (A) (A) (A) (A)
                 (A) (A) (A) (A) (A) (A) (A) (A) (A) (A) (A) (A)
                 (A) (A) (A) (A) (A) (A) (A) (A) (A) (A) (A) (A)
                 (A) (A) (A) (A) (A) (A) (A) (A) (A) (A) (A) (A)
                 (A) (A) (A) (A) (A) (A) (A) (A) (A) (A) (A) (A)
                 (A) (A) (A) (A) (A) (A) (A) (A) (A) (A) (A) (A)
                 (A) (A) (A) (A) (A) (A) (A) (A) (A) (A) (A) (A)
                 (A) (A) (A) (A) (A) (A) (A) (A) (A) (A) (A) (A)
                 (A) (A) (A) (A) (A) (A) (A) (A) (A) (A) (A) (A)
                 (A) (A) (A) (A) (A) (A) (A) (A) (A) (A) (A) (A)
                 (A) (A) (A) (A) (A) (A) (A) (A) (A) (A) (A) (A)
                 (A) (A) (A) (A) (A) (A) (A) (A) (A) (A) (A) (A)
                 (A) (A) (A) (A) (A) (A) (A) (A) (A) (A) (A) (A)
                 (A) (A) (A) (A) (A) (A) (A) (A) (A) (A) (A) (A)
                 (A) (A) (A) (A) (A) (A) (A) (A) (A) (A) (A) (A)
                 (A) (A) (A) (A) (A) (A) (A) (A) (A) (A) (A) (A)
                 (A) (A) (A) (A) (A) (A) (A) (A) (A) (A) (A) (A)
                 (A) (A) (A) (A) (A) (A) (A) (A) (A) (A) (A) (A)
                 (A) (A) (A) (A) (A) (A) (A) (A) (A) (A) (A) (A)
                 (A) (A) (A) (A) (A) (A) (A) (A) (A) (A) (A) (A)
                 (A) (A) (A) (A) (A) (A) (A) (A) (A) (A) (A) (A)
                 (A) (A) (A) (A) (A) (A)
 Beta  Orbitals:
       Occupied  (A) (A) (A) (A) (A) (A) (A) (A) (A) (A) (A) (A)
                 (A) (A) (A) (A) (A) (A) (A) (A) (A) (A) (A) (A)
                 (A) (A) (A) (A) (A) (A) (A) (A) (A) (A) (A) (A)
                 (A) (A) (A) (A) (A) (A) (A) (A) (A) (A) (A) (A)
                 (A) (A) (A) (A) (A) (A) (A) (A) (A) (A) (A) (A)
                 (A) (A) (A)
       Virtual   (A) (A) (A) (A) (A) (A) (A) (A) (A) (A) (A) (A)
                 (A) (A) (A) (A) (A) (A) (A) (A) (A) (A) (A) (A)
                 (A) (A) (A) (A) (A) (A) (A) (A) (A) (A) (A) (A)
                 (A) (A) (A) (A) (A) (A) (A) (A) (A) (A) (A) (A)
                 (A) (A) (A) (A) (A) (A) (A) (A) (A) (A) (A) (A)
                 (A) (A) (A) (A) (A) (A) (A) (A) (A) (A) (A) (A)
                 (A) (A) (A) (A) (A) (A) (A) (A) (A) (A) (A) (A)
                 (A) (A) (A) (A) (A) (A) (A) (A) (A) (A) (A) (A)
                 (A) (A) (A) (A) (A) (A) (A) (A) (A) (A) (A) (A)
                 (A) (A) (A) (A) (A) (A) (A) (A) (A) (A) (A) (A)
                 (A) (A) (A) (A) (A) (A) (A) (A) (A) (A) (A) (A)
                 (A) (A) (A) (A) (A) (A) (A) (A) (A) (A) (A) (A)
                 (A) (A) (A) (A) (A) (A) (A) (A) (A) (A) (A) (A)
                 (A) (A) (A) (A) (A) (A) (A) (A) (A) (A) (A) (A)
                 (A) (A) (A) (A) (A) (A) (A) (A) (A) (A) (A) (A)
                 (A) (A) (A) (A) (A) (A) (A) (A) (A) (A) (A) (A)
                 (A) (A) (A) (A) (A) (A) (A) (A) (A) (A) (A) (A)
                 (A) (A) (A) (A) (A) (A) (A) (A) (A) (A) (A) (A)
                 (A) (A) (A) (A) (A) (A) (A) (A) (A) (A) (A) (A)
                 (A) (A) (A) (A) (A) (A) (A) (A) (A) (A) (A) (A)
                 (A) (A) (A) (A) (A) (A) (A) (A) (A) (A) (A) (A)
                 (A) (A) (A) (A) (A) (A) (A) (A) (A) (A) (A) (A)
                 (A) (A) (A) (A) (A) (A) (A) (A) (A) (A) (A) (A)
                 (A) (A) (A) (A) (A) (A) (A) (A) (A) (A) (A) (A)
                 (A) (A) (A) (A) (A) (A) (A) (A) (A) (A) (A) (A)
                 (A) (A) (A) (A) (A) (A) (A) (A) (A) (A) (A) (A)
                 (A) (A) (A) (A) (A) (A) (A) (A) (A) (A) (A) (A)
                 (A) (A) (A) (A) (A) (A) (A) (A) (A) (A) (A) (A)
                 (A) (A) (A) (A) (A) (A) (A) (A) (A) (A) (A) (A)
                 (A) (A) (A) (A) (A) (A) (A) (A) (A) (A) (A) (A)
                 (A) (A) (A) (A) (A) (A) (A) (A) (A) (A) (A) (A)
                 (A) (A) (A) (A) (A) (A) (A) (A) (A) (A) (A) (A)
                 (A) (A) (A) (A) (A) (A) (A) (A) (A) (A) (A) (A)
                 (A) (A) (A) (A) (A) (A) (A) (A) (A) (A) (A) (A)
                 (A) (A) (A) (A) (A) (A) (A) (A) (A) (A) (A) (A)
                 (A) (A) (A) (A) (A) (A) (A)
 The electronic state is 2-A.
 Alpha  occ. eigenvalues --  -19.27630 -19.26632 -19.25921 -19.25805 -19.23995
 Alpha  occ. eigenvalues --  -19.21270 -14.48708 -14.47207 -10.40827 -10.39993
 Alpha  occ. eigenvalues --  -10.34602 -10.33640 -10.33563 -10.32188 -10.30484
 Alpha  occ. eigenvalues --  -10.29815 -10.27977  -1.14606  -1.12616  -1.11830
 Alpha  occ. eigenvalues --   -1.10080  -1.06713  -1.04632  -1.03931  -0.98278
 Alpha  occ. eigenvalues --   -0.89925  -0.82265  -0.80437  -0.74426  -0.72438
 Alpha  occ. eigenvalues --   -0.69549  -0.66364  -0.63020  -0.62416  -0.60572
 Alpha  occ. eigenvalues --   -0.57462  -0.55703  -0.55098  -0.54509  -0.53482
 Alpha  occ. eigenvalues --   -0.52174  -0.51513  -0.49471  -0.48676  -0.48277
 Alpha  occ. eigenvalues --   -0.46890  -0.46735  -0.45522  -0.43264  -0.42493
 Alpha  occ. eigenvalues --   -0.41826  -0.41271  -0.39904  -0.37003  -0.35896
 Alpha  occ. eigenvalues --   -0.35216  -0.35014  -0.34465  -0.33819  -0.33100
 Alpha  occ. eigenvalues --   -0.31781  -0.30843  -0.30353  -0.27721
 Alpha virt. eigenvalues --   -0.08432  -0.04230  -0.02536  -0.00458  -0.00040
 Alpha virt. eigenvalues --    0.00714   0.01849   0.02494   0.02798   0.03286
 Alpha virt. eigenvalues --    0.03486   0.04649   0.04842   0.05208   0.05715
 Alpha virt. eigenvalues --    0.05979   0.06185   0.06918   0.07394   0.07901
 Alpha virt. eigenvalues --    0.08200   0.08844   0.09133   0.09561   0.09752
 Alpha virt. eigenvalues --    0.09887   0.10182   0.10399   0.10574   0.10666
 Alpha virt. eigenvalues --    0.11429   0.11698   0.12059   0.12410   0.12838
 Alpha virt. eigenvalues --    0.13386   0.13620   0.14025   0.14198   0.14459
 Alpha virt. eigenvalues --    0.14946   0.15141   0.15603   0.15961   0.16447
 Alpha virt. eigenvalues --    0.16792   0.17169   0.17939   0.18051   0.18371
 Alpha virt. eigenvalues --    0.18706   0.18834   0.19523   0.19749   0.20220
 Alpha virt. eigenvalues --    0.20596   0.20714   0.21435   0.21994   0.22110
 Alpha virt. eigenvalues --    0.22430   0.22924   0.23174   0.23903   0.23972
 Alpha virt. eigenvalues --    0.24065   0.24779   0.24863   0.25321   0.25666
 Alpha virt. eigenvalues --    0.25997   0.26125   0.26631   0.26715   0.26853
 Alpha virt. eigenvalues --    0.27186   0.27504   0.28001   0.28198   0.28387
 Alpha virt. eigenvalues --    0.28694   0.29370   0.29766   0.30481   0.31120
 Alpha virt. eigenvalues --    0.31374   0.31588   0.31744   0.32387   0.32778
 Alpha virt. eigenvalues --    0.33271   0.33433   0.33719   0.34356   0.34741
 Alpha virt. eigenvalues --    0.35388   0.35634   0.35727   0.36491   0.36734
 Alpha virt. eigenvalues --    0.36831   0.37538   0.38319   0.38789   0.38978
 Alpha virt. eigenvalues --    0.39443   0.39690   0.40644   0.41765   0.41972
 Alpha virt. eigenvalues --    0.42505   0.42989   0.43416   0.44148   0.44733
 Alpha virt. eigenvalues --    0.45091   0.45509   0.45740   0.46560   0.47056
 Alpha virt. eigenvalues --    0.47344   0.48205   0.48281   0.48745   0.49017
 Alpha virt. eigenvalues --    0.50861   0.51449   0.51849   0.52548   0.52812
 Alpha virt. eigenvalues --    0.52914   0.53902   0.54101   0.54501   0.55337
 Alpha virt. eigenvalues --    0.55654   0.56165   0.56259   0.56887   0.57209
 Alpha virt. eigenvalues --    0.58030   0.58708   0.59668   0.60029   0.60772
 Alpha virt. eigenvalues --    0.61180   0.61884   0.62093   0.62800   0.63145
 Alpha virt. eigenvalues --    0.63386   0.64432   0.65129   0.65374   0.66016
 Alpha virt. eigenvalues --    0.66089   0.66548   0.67113   0.67497   0.68113
 Alpha virt. eigenvalues --    0.68208   0.68564   0.69124   0.69726   0.70352
 Alpha virt. eigenvalues --    0.70985   0.71771   0.72489   0.72811   0.73409
 Alpha virt. eigenvalues --    0.74249   0.74340   0.75352   0.76098   0.76591
 Alpha virt. eigenvalues --    0.77304   0.77514   0.78292   0.79138   0.79376
 Alpha virt. eigenvalues --    0.80019   0.81441   0.81861   0.82406   0.83190
 Alpha virt. eigenvalues --    0.83845   0.84138   0.85216   0.85540   0.86368
 Alpha virt. eigenvalues --    0.87315   0.88310   0.88967   0.89169   0.89470
 Alpha virt. eigenvalues --    0.90635   0.91020   0.92191   0.92840   0.94558
 Alpha virt. eigenvalues --    0.94879   0.95575   0.96658   0.97339   0.97827
 Alpha virt. eigenvalues --    0.99275   0.99983   1.00743   1.02250   1.02289
 Alpha virt. eigenvalues --    1.02994   1.03517   1.05882   1.06000   1.06984
 Alpha virt. eigenvalues --    1.07369   1.08272   1.08471   1.10547   1.11735
 Alpha virt. eigenvalues --    1.12312   1.13609   1.14049   1.14620   1.14894
 Alpha virt. eigenvalues --    1.16378   1.16654   1.17226   1.18389   1.18990
 Alpha virt. eigenvalues --    1.19679   1.20717   1.22595   1.23397   1.23734
 Alpha virt. eigenvalues --    1.24486   1.25328   1.26188   1.28576   1.29067
 Alpha virt. eigenvalues --    1.29195   1.31116   1.32550   1.33047   1.33657
 Alpha virt. eigenvalues --    1.34669   1.35433   1.36097   1.37017   1.37842
 Alpha virt. eigenvalues --    1.38954   1.40362   1.40669   1.41769   1.42789
 Alpha virt. eigenvalues --    1.44878   1.45530   1.46224   1.47521   1.49025
 Alpha virt. eigenvalues --    1.50542   1.50771   1.51385   1.51997   1.52980
 Alpha virt. eigenvalues --    1.54849   1.55616   1.55798   1.56468   1.58364
 Alpha virt. eigenvalues --    1.59800   1.59976   1.60838   1.62133   1.62752
 Alpha virt. eigenvalues --    1.63216   1.64570   1.65517   1.66605   1.67900
 Alpha virt. eigenvalues --    1.70153   1.70797   1.71250   1.71720   1.72464
 Alpha virt. eigenvalues --    1.72836   1.74347   1.75768   1.76291   1.76560
 Alpha virt. eigenvalues --    1.77336   1.78891   1.79646   1.80123   1.82348
 Alpha virt. eigenvalues --    1.83258   1.83730   1.85060   1.86197   1.86926
 Alpha virt. eigenvalues --    1.88042   1.88726   1.90349   1.91186   1.92583
 Alpha virt. eigenvalues --    1.93214   1.95141   1.95195   1.96286   1.96830
 Alpha virt. eigenvalues --    1.98548   1.99823   2.00829   2.01820   2.03014
 Alpha virt. eigenvalues --    2.03270   2.03481   2.05347   2.05768   2.06701
 Alpha virt. eigenvalues --    2.07580   2.08406   2.09364   2.10146   2.12317
 Alpha virt. eigenvalues --    2.13268   2.14292   2.14939   2.15609   2.18895
 Alpha virt. eigenvalues --    2.19800   2.20278   2.21726   2.22592   2.25376
 Alpha virt. eigenvalues --    2.26312   2.27009   2.28365   2.30514   2.32081
 Alpha virt. eigenvalues --    2.33041   2.35468   2.36259   2.37210   2.37919
 Alpha virt. eigenvalues --    2.38780   2.39667   2.41077   2.42657   2.44014
 Alpha virt. eigenvalues --    2.44982   2.46423   2.47976   2.48327   2.50532
 Alpha virt. eigenvalues --    2.50820   2.52943   2.53820   2.56434   2.57378
 Alpha virt. eigenvalues --    2.58427   2.59693   2.60786   2.62572   2.64491
 Alpha virt. eigenvalues --    2.66478   2.69379   2.70204   2.70789   2.74290
 Alpha virt. eigenvalues --    2.75220   2.76743   2.80293   2.81495   2.86295
 Alpha virt. eigenvalues --    2.88282   2.89100   2.89594   2.91818   2.94659
 Alpha virt. eigenvalues --    2.97007   2.98871   3.03666   3.10925   3.13750
 Alpha virt. eigenvalues --    3.16877   3.20413   3.23029   3.29787   3.30940
 Alpha virt. eigenvalues --    3.32264   3.37378   3.37619   3.38827   3.39246
 Alpha virt. eigenvalues --    3.43840   3.45367   3.47137   3.48204   3.49488
 Alpha virt. eigenvalues --    3.50815   3.52184   3.52974   3.53966   3.54254
 Alpha virt. eigenvalues --    3.56984   3.59409   3.60775   3.62596   3.63663
 Alpha virt. eigenvalues --    3.65856   3.67527   3.71304   3.72460   3.73712
 Alpha virt. eigenvalues --    3.76866   3.78890   3.84914   3.86148   3.93615
 Alpha virt. eigenvalues --    4.00857   4.06810   4.15656   4.20037   4.28171
 Alpha virt. eigenvalues --    4.64691
  Beta  occ. eigenvalues --  -19.27625 -19.26518 -19.25608 -19.25143 -19.23988
  Beta  occ. eigenvalues --  -19.21262 -14.48732 -14.46402 -10.41007 -10.40098
  Beta  occ. eigenvalues --  -10.34893 -10.33687 -10.32765 -10.32105 -10.30478
  Beta  occ. eigenvalues --  -10.29815 -10.27977  -1.13936  -1.12339  -1.11194
  Beta  occ. eigenvalues --   -1.09942  -1.06682  -1.04550  -1.02830  -0.97682
  Beta  occ. eigenvalues --   -0.88374  -0.82115  -0.80144  -0.74308  -0.72268
  Beta  occ. eigenvalues --   -0.69287  -0.66267  -0.62789  -0.62068  -0.60246
  Beta  occ. eigenvalues --   -0.57336  -0.55573  -0.54830  -0.54324  -0.52319
  Beta  occ. eigenvalues --   -0.52089  -0.51147  -0.49238  -0.48311  -0.47979
  Beta  occ. eigenvalues --   -0.46539  -0.45410  -0.44855  -0.42982  -0.42426
  Beta  occ. eigenvalues --   -0.41157  -0.39871  -0.39381  -0.36587  -0.35292
  Beta  occ. eigenvalues --   -0.34790  -0.33950  -0.33722  -0.32656  -0.32448
  Beta  occ. eigenvalues --   -0.30935  -0.30334  -0.27676
  Beta virt. eigenvalues --   -0.20939  -0.07275  -0.03068  -0.01864  -0.00448
  Beta virt. eigenvalues --    0.00082   0.00734   0.01876   0.02514   0.02844
  Beta virt. eigenvalues --    0.03310   0.03509   0.04711   0.05109   0.05506
  Beta virt. eigenvalues --    0.05833   0.05991   0.06254   0.07338   0.07628
  Beta virt. eigenvalues --    0.07995   0.08234   0.08863   0.09223   0.09609
  Beta virt. eigenvalues --    0.09838   0.09923   0.10244   0.10510   0.10597
  Beta virt. eigenvalues --    0.10753   0.11472   0.11792   0.12131   0.12454
  Beta virt. eigenvalues --    0.12957   0.13472   0.13776   0.14126   0.14281
  Beta virt. eigenvalues --    0.14508   0.14981   0.15209   0.15653   0.16140
  Beta virt. eigenvalues --    0.16576   0.16937   0.17302   0.18107   0.18136
  Beta virt. eigenvalues --    0.18428   0.18767   0.18918   0.19541   0.19821
  Beta virt. eigenvalues --    0.20267   0.20719   0.20831   0.21495   0.22062
  Beta virt. eigenvalues --    0.22329   0.22524   0.22970   0.23315   0.23951
  Beta virt. eigenvalues --    0.24077   0.24232   0.24917   0.24964   0.25430
  Beta virt. eigenvalues --    0.25749   0.26107   0.26188   0.26659   0.26768
  Beta virt. eigenvalues --    0.26998   0.27289   0.27600   0.28097   0.28226
  Beta virt. eigenvalues --    0.28503   0.28797   0.29568   0.29826   0.30526
  Beta virt. eigenvalues --    0.31194   0.31443   0.31670   0.31822   0.32460
  Beta virt. eigenvalues --    0.32870   0.33325   0.33530   0.33853   0.34471
  Beta virt. eigenvalues --    0.34818   0.35490   0.35674   0.35797   0.36552
  Beta virt. eigenvalues --    0.36880   0.36915   0.37590   0.38467   0.38877
  Beta virt. eigenvalues --    0.39085   0.39561   0.39789   0.40719   0.41868
  Beta virt. eigenvalues --    0.42094   0.42622   0.43132   0.43545   0.44231
  Beta virt. eigenvalues --    0.44831   0.45183   0.45578   0.45832   0.46645
  Beta virt. eigenvalues --    0.47158   0.47413   0.48312   0.48387   0.48875
  Beta virt. eigenvalues --    0.49097   0.50934   0.51574   0.51940   0.52574
  Beta virt. eigenvalues --    0.52924   0.53048   0.53981   0.54167   0.54644
  Beta virt. eigenvalues --    0.55361   0.55825   0.56263   0.56497   0.56991
  Beta virt. eigenvalues --    0.57370   0.58196   0.58966   0.59845   0.60157
  Beta virt. eigenvalues --    0.60922   0.61242   0.61996   0.62424   0.62957
  Beta virt. eigenvalues --    0.63350   0.63514   0.64505   0.65246   0.65498
  Beta virt. eigenvalues --    0.66074   0.66163   0.66648   0.67173   0.67643
  Beta virt. eigenvalues --    0.68325   0.68430   0.68639   0.69247   0.69790
  Beta virt. eigenvalues --    0.70414   0.71066   0.71942   0.72572   0.72872
  Beta virt. eigenvalues --    0.73531   0.74266   0.74465   0.75488   0.76291
  Beta virt. eigenvalues --    0.76680   0.77443   0.77716   0.78397   0.79256
  Beta virt. eigenvalues --    0.79478   0.80269   0.81563   0.81983   0.82594
  Beta virt. eigenvalues --    0.83297   0.83971   0.84365   0.85288   0.85627
  Beta virt. eigenvalues --    0.86470   0.87586   0.88443   0.89141   0.89433
  Beta virt. eigenvalues --    0.89645   0.90763   0.91247   0.92319   0.93013
  Beta virt. eigenvalues --    0.94857   0.95299   0.95827   0.96933   0.97630
  Beta virt. eigenvalues --    0.98002   0.99667   1.00160   1.01052   1.02423
  Beta virt. eigenvalues --    1.02535   1.03124   1.03831   1.05963   1.06597
  Beta virt. eigenvalues --    1.07143   1.07622   1.08358   1.08670   1.10715
  Beta virt. eigenvalues --    1.11984   1.12479   1.13688   1.14164   1.14880
  Beta virt. eigenvalues --    1.15002   1.16570   1.16810   1.17404   1.18449
  Beta virt. eigenvalues --    1.19054   1.19836   1.20858   1.22886   1.23523
  Beta virt. eigenvalues --    1.23895   1.24586   1.25477   1.26231   1.28803
  Beta virt. eigenvalues --    1.29241   1.29289   1.31268   1.32705   1.33135
  Beta virt. eigenvalues --    1.34117   1.34882   1.35535   1.36427   1.37458
  Beta virt. eigenvalues --    1.38014   1.39536   1.40483   1.40933   1.42114
  Beta virt. eigenvalues --    1.43196   1.45115   1.45718   1.46495   1.47755
  Beta virt. eigenvalues --    1.49076   1.50740   1.51090   1.51861   1.52271
  Beta virt. eigenvalues --    1.53159   1.55240   1.55716   1.56197   1.56653
  Beta virt. eigenvalues --    1.58559   1.59967   1.60133   1.61142   1.62358
  Beta virt. eigenvalues --    1.63001   1.63428   1.64686   1.65673   1.66727
  Beta virt. eigenvalues --    1.68076   1.70347   1.70927   1.71625   1.71817
  Beta virt. eigenvalues --    1.72561   1.73041   1.74516   1.76023   1.76469
  Beta virt. eigenvalues --    1.76685   1.77558   1.78970   1.79802   1.80226
  Beta virt. eigenvalues --    1.82478   1.83458   1.83930   1.85152   1.86297
  Beta virt. eigenvalues --    1.87013   1.88170   1.88842   1.90450   1.91350
  Beta virt. eigenvalues --    1.92858   1.93446   1.95251   1.95810   1.96344
  Beta virt. eigenvalues --    1.97107   1.98696   2.00138   2.01029   2.01998
  Beta virt. eigenvalues --    2.03172   2.03510   2.03642   2.05430   2.05854
  Beta virt. eigenvalues --    2.06849   2.07780   2.08602   2.09454   2.10357
  Beta virt. eigenvalues --    2.12478   2.13402   2.14463   2.15184   2.15756
  Beta virt. eigenvalues --    2.19130   2.19934   2.20474   2.21955   2.22749
  Beta virt. eigenvalues --    2.25612   2.26569   2.27267   2.28597   2.30642
  Beta virt. eigenvalues --    2.32212   2.33390   2.35677   2.36465   2.37406
  Beta virt. eigenvalues --    2.38121   2.39643   2.39923   2.41159   2.42938
  Beta virt. eigenvalues --    2.44138   2.45315   2.46654   2.48180   2.48707
  Beta virt. eigenvalues --    2.50947   2.51063   2.53137   2.54068   2.56570
  Beta virt. eigenvalues --    2.57534   2.58616   2.60495   2.61123   2.62773
  Beta virt. eigenvalues --    2.64644   2.66526   2.69536   2.70286   2.70868
  Beta virt. eigenvalues --    2.74406   2.75385   2.76817   2.80374   2.81556
  Beta virt. eigenvalues --    2.86349   2.88420   2.89234   2.90018   2.91999
  Beta virt. eigenvalues --    2.94754   2.97113   2.99258   3.03861   3.11181
  Beta virt. eigenvalues --    3.13873   3.17007   3.20515   3.23661   3.29962
  Beta virt. eigenvalues --    3.31104   3.33955   3.37734   3.38684   3.39717
  Beta virt. eigenvalues --    3.40477   3.44052   3.45850   3.47533   3.48356
  Beta virt. eigenvalues --    3.49571   3.50996   3.52365   3.53115   3.54049
  Beta virt. eigenvalues --    3.54630   3.57148   3.59563   3.60970   3.62711
  Beta virt. eigenvalues --    3.63902   3.65986   3.67671   3.71442   3.73032
  Beta virt. eigenvalues --    3.73933   3.77299   3.79282   3.85034   3.86557
  Beta virt. eigenvalues --    3.93829   4.01338   4.06936   4.15683   4.20086
  Beta virt. eigenvalues --    4.28278   4.64829
          Condensed to atoms (all electrons):
               1          2          3          4          5          6
     1  C    8.856501  -2.114163   0.173549   0.109002   0.079499   0.178854
     2  C   -2.114163   8.513384  -1.484749  -0.412367  -0.453120  -0.073728
     3  C    0.173549  -1.484749  18.645851   0.164695  -0.524860  -0.748507
     4  O    0.109002  -0.412367   0.164695   8.557604  -0.152688  -0.007988
     5  H    0.079499  -0.453120  -0.524860  -0.152688   2.385409   0.067814
     6  O    0.178854  -0.073728  -0.748507  -0.007988   0.067814   9.437125
     7  H   -0.240732   0.468497  -2.169510  -0.020205   0.157621   0.044001
     8  C    0.227624   0.050654  -3.971191   0.026969   0.109366   0.096592
     9  C   -1.219825   0.588821  -3.187648   0.020323   0.013326  -0.004105
    10  H   -0.870108   0.457424   0.245789   0.004519  -0.107808  -0.005275
    11  O   -0.480896   0.176195  -0.191969  -0.012823  -0.006024   0.022131
    12  C   -0.103555   0.017710   0.280938  -0.015167   0.024082   0.016308
    13  H    0.090373   0.084691   0.566714  -0.002387  -0.002980  -0.301509
    14  O   -0.036697  -0.020354  -0.100437   0.003389  -0.007344  -0.021688
    15  H    0.061918  -0.012666   0.003106  -0.001530   0.020636   0.106501
    16  H    0.008852  -0.019988  -0.006148   0.000696  -0.007307  -0.030348
    17  H    0.127375  -0.171108   0.031990   0.047020   0.027948   0.006296
    18  H    0.003607  -0.026828  -0.059340   0.368675  -0.027572  -0.001472
    19  H    0.038699  -0.018038   0.024482   0.000364  -0.001843   0.020740
    20  C    0.006119  -0.274146  -1.387654   0.007515  -0.049494  -0.038598
    21  N    0.004228  -0.003977   0.181320  -0.001743   0.003166  -0.000426
    22  C    0.001699  -0.001912  -0.550434   0.004472   0.003288   0.006892
    23  N    0.017095  -0.070487   0.575263   0.000666  -0.002355  -0.037619
    24  C   -0.102976   0.058381  -1.717431   0.001449  -0.038366   0.122203
    25  H   -0.027754   0.098688  -0.091727  -0.003447   0.014765   0.030636
    26  H   -0.001001   0.004509  -0.031215   0.000050   0.002482   0.000344
    27  O   -0.000459  -0.001366   0.028089  -0.000065   0.000334  -0.000063
    28  O    0.062084  -0.022144   0.114252  -0.005153   0.044120  -0.019405
               7          8          9         10         11         12
     1  C   -0.240732   0.227624  -1.219825  -0.870108  -0.480896  -0.103555
     2  C    0.468497   0.050654   0.588821   0.457424   0.176195   0.017710
     3  C   -2.169510  -3.971191  -3.187648   0.245789  -0.191969   0.280938
     4  O   -0.020205   0.026969   0.020323   0.004519  -0.012823  -0.015167
     5  H    0.157621   0.109366   0.013326  -0.107808  -0.006024   0.024082
     6  O    0.044001   0.096592  -0.004105  -0.005275   0.022131   0.016308
     7  H    2.946815   0.288421   0.208037   0.000052   0.032649  -0.000750
     8  C    0.288421  13.078090   0.513929  -0.056562   0.027306  -0.116479
     9  C    0.208037   0.513929   9.628305  -0.166820   0.306635  -0.346717
    10  H    0.000052  -0.056562  -0.166820   1.906670  -0.096083  -0.060876
    11  O    0.032649   0.027306   0.306635  -0.096083   8.727439  -0.020577
    12  C   -0.000750  -0.116479  -0.346717  -0.060876  -0.020577   4.995779
    13  H    0.001278  -0.125313  -0.843670   0.068498  -0.067431  -0.064978
    14  O    0.004988   0.049128   0.086916   0.050249   0.002845   0.034912
    15  H   -0.004443   0.000447  -0.247144  -0.048749   0.007383   0.283579
    16  H    0.006766   0.010423   0.177396   0.027823  -0.001537   0.066031
    17  H    0.001532  -0.001496  -0.087912  -0.017115   0.280436   0.009816
    18  H    0.004617   0.013013   0.001182  -0.000090   0.002128   0.000014
    19  H   -0.002924  -0.004100  -0.078777  -0.016636  -0.001061  -0.004454
    20  C    0.082786  -2.748742  -0.010545   0.012860   0.000086  -0.026931
    21  N   -0.012370   0.140531  -0.018594  -0.000417   0.000074   0.005680
    22  C    0.004058   0.099536   0.015829   0.000342  -0.000121  -0.009294
    23  N   -0.004132  -0.106006   0.032405   0.000705  -0.000115  -0.023662
    24  C   -0.045767  -3.118303  -0.184020   0.014211  -0.001655   0.052654
    25  H   -0.040972   0.220228  -0.000604  -0.000594   0.000564   0.001188
    26  H    0.001432   0.181238   0.001201   0.000128  -0.000035  -0.000224
    27  O    0.000432   0.000720   0.000101  -0.000063   0.000004   0.000228
    28  O    0.002163   0.065054  -0.015348  -0.005379  -0.000507  -0.007744
              13         14         15         16         17         18
     1  C    0.090373  -0.036697   0.061918   0.008852   0.127375   0.003607
     2  C    0.084691  -0.020354  -0.012666  -0.019988  -0.171108  -0.026828
     3  C    0.566714  -0.100437   0.003106  -0.006148   0.031990  -0.059340
     4  O   -0.002387   0.003389  -0.001530   0.000696   0.047020   0.368675
     5  H   -0.002980  -0.007344   0.020636  -0.007307   0.027948  -0.027572
     6  O   -0.301509  -0.021688   0.106501  -0.030348   0.006296  -0.001472
     7  H    0.001278   0.004988  -0.004443   0.006766   0.001532   0.004617
     8  C   -0.125313   0.049128   0.000447   0.010423  -0.001496   0.013013
     9  C   -0.843670   0.086916  -0.247144   0.177396  -0.087912   0.001182
    10  H    0.068498   0.050249  -0.048749   0.027823  -0.017115  -0.000090
    11  O   -0.067431   0.002845   0.007383  -0.001537   0.280436   0.002128
    12  C   -0.064978   0.034912   0.283579   0.066031   0.009816   0.000014
    13  H    2.100037   0.028698  -0.134775   0.006213  -0.006636   0.000575
    14  O    0.028698   8.523418  -0.186043  -0.045328  -0.001278  -0.000564
    15  H   -0.134775  -0.186043   1.779424  -0.358783   0.004170  -0.000797
    16  H    0.006213  -0.045328  -0.358783   1.437737  -0.000929   0.000094
    17  H   -0.006636  -0.001278   0.004170  -0.000929   0.586114  -0.007722
    18  H    0.000575  -0.000564  -0.000797   0.000094  -0.007722   0.558370
    19  H    0.007916   0.165564   0.018781  -0.049392   0.000642   0.001127
    20  C    0.018001   0.006502  -0.007615   0.000311  -0.002574   0.024438
    21  N   -0.001475  -0.000184   0.000368   0.000232   0.000727  -0.003236
    22  C    0.000785   0.001124  -0.000622  -0.000018   0.000221   0.002279
    23  N    0.000317  -0.012445  -0.001440  -0.000989  -0.000416  -0.001756
    24  C    0.017014   0.038747  -0.003906   0.017520   0.002616   0.004629
    25  H    0.001115   0.000591   0.000064  -0.000098   0.000274  -0.007100
    26  H    0.000232   0.000188  -0.000122   0.000171  -0.000036  -0.000045
    27  O   -0.000019  -0.000007   0.000018   0.000026   0.000002  -0.000038
    28  O   -0.001328  -0.056230  -0.000463   0.000095   0.000392  -0.001475
              19         20         21         22         23         24
     1  C    0.038699   0.006119   0.004228   0.001699   0.017095  -0.102976
     2  C   -0.018038  -0.274146  -0.003977  -0.001912  -0.070487   0.058381
     3  C    0.024482  -1.387654   0.181320  -0.550434   0.575263  -1.717431
     4  O    0.000364   0.007515  -0.001743   0.004472   0.000666   0.001449
     5  H   -0.001843  -0.049494   0.003166   0.003288  -0.002355  -0.038366
     6  O    0.020740  -0.038598  -0.000426   0.006892  -0.037619   0.122203
     7  H   -0.002924   0.082786  -0.012370   0.004058  -0.004132  -0.045767
     8  C   -0.004100  -2.748742   0.140531   0.099536  -0.106006  -3.118303
     9  C   -0.078777  -0.010545  -0.018594   0.015829   0.032405  -0.184020
    10  H   -0.016636   0.012860  -0.000417   0.000342   0.000705   0.014211
    11  O   -0.001061   0.000086   0.000074  -0.000121  -0.000115  -0.001655
    12  C   -0.004454  -0.026931   0.005680  -0.009294  -0.023662   0.052654
    13  H    0.007916   0.018001  -0.001475   0.000785   0.000317   0.017014
    14  O    0.165564   0.006502  -0.000184   0.001124  -0.012445   0.038747
    15  H    0.018781  -0.007615   0.000368  -0.000622  -0.001440  -0.003906
    16  H   -0.049392   0.000311   0.000232  -0.000018  -0.000989   0.017520
    17  H    0.000642  -0.002574   0.000727   0.000221  -0.000416   0.002616
    18  H    0.001127   0.024438  -0.003236   0.002279  -0.001756   0.004629
    19  H    0.593814   0.025239  -0.001718   0.000907   0.001096  -0.034275
    20  C    0.025239  13.062578  -0.597181  -0.497658   0.309767  -1.919921
    21  N   -0.001718  -0.597181   7.858928  -0.072657  -0.010415   0.150514
    22  C    0.000907  -0.497658  -0.072657   6.292511  -0.042835   0.089316
    23  N    0.001096   0.309767  -0.010415  -0.042835   7.919287  -1.132770
    24  C   -0.034275  -1.919921   0.150514   0.089316  -1.132770  13.396502
    25  H   -0.001816  -0.593164  -0.017555  -0.003034  -0.035267   0.127167
    26  H   -0.003884  -0.160536   0.027405  -0.163259   0.393813  -0.206782
    27  O    0.000266   0.035444  -0.050830   0.082331  -0.157391   0.075214
    28  O    0.030107  -0.052030   0.004701  -0.007456  -0.215081  -0.092084
              25         26         27         28
     1  C   -0.027754  -0.001001  -0.000459   0.062084
     2  C    0.098688   0.004509  -0.001366  -0.022144
     3  C   -0.091727  -0.031215   0.028089   0.114252
     4  O   -0.003447   0.000050  -0.000065  -0.005153
     5  H    0.014765   0.002482   0.000334   0.044120
     6  O    0.030636   0.000344  -0.000063  -0.019405
     7  H   -0.040972   0.001432   0.000432   0.002163
     8  C    0.220228   0.181238   0.000720   0.065054
     9  C   -0.000604   0.001201   0.000101  -0.015348
    10  H   -0.000594   0.000128  -0.000063  -0.005379
    11  O    0.000564  -0.000035   0.000004  -0.000507
    12  C    0.001188  -0.000224   0.000228  -0.007744
    13  H    0.001115   0.000232  -0.000019  -0.001328
    14  O    0.000591   0.000188  -0.000007  -0.056230
    15  H    0.000064  -0.000122   0.000018  -0.000463
    16  H   -0.000098   0.000171   0.000026   0.000095
    17  H    0.000274  -0.000036   0.000002   0.000392
    18  H   -0.007100  -0.000045  -0.000038  -0.001475
    19  H   -0.001816  -0.003884   0.000266   0.030107
    20  C   -0.593164  -0.160536   0.035444  -0.052030
    21  N   -0.017555   0.027405  -0.050830   0.004701
    22  C   -0.003034  -0.163259   0.082331  -0.007456
    23  N   -0.035267   0.393813  -0.157391  -0.215081
    24  C    0.127167  -0.206782   0.075214  -0.092084
    25  H    1.950434  -0.002499   0.002293  -0.006085
    26  H   -0.002499   1.051415  -0.003405  -0.029010
    27  O    0.002293  -0.003405   8.556181  -0.004872
    28  O   -0.006085  -0.029010  -0.004872   9.095247
          Atomic-Atomic Spin Densities.
               1          2          3          4          5          6
     1  C    0.047494  -0.007462  -0.050269  -0.005485  -0.009739   0.014675
     2  C   -0.007462   0.045050   0.061484  -0.001127   0.012897  -0.015361
     3  C   -0.050269   0.061484  -0.043314   0.005914   0.022308  -0.074066
     4  O   -0.005485  -0.001127   0.005914   0.005555  -0.000042  -0.000837
     5  H   -0.009739   0.012897   0.022308  -0.000042  -0.007264  -0.004292
     6  O    0.014675  -0.015361  -0.074066  -0.000837  -0.004292   0.073924
     7  H   -0.000138  -0.005637  -0.034081  -0.000721  -0.000624   0.005575
     8  C    0.028560  -0.047727  -0.060207   0.000631  -0.018035   0.003722
     9  C   -0.018712  -0.005637  -0.008248   0.002050   0.001350  -0.006252
    10  H   -0.012172   0.000873   0.004614   0.000575   0.001854  -0.001294
    11  O   -0.005767   0.001976   0.006514   0.000063   0.000688  -0.001579
    12  C   -0.000865   0.003903   0.008553  -0.000288   0.000486  -0.002102
    13  H    0.005811  -0.000317  -0.006106   0.000018  -0.000815   0.002864
    14  O    0.001904  -0.000804   0.001721  -0.000043  -0.000234  -0.000150
    15  H   -0.000639   0.000496   0.000119  -0.000015   0.000063  -0.000083
    16  H    0.000212   0.000047   0.000092   0.000016  -0.000114  -0.000095
    17  H    0.001002  -0.000329  -0.001385  -0.000102  -0.000256   0.000258
    18  H    0.002158  -0.000462  -0.007589  -0.002044  -0.000200   0.000418
    19  H    0.002919  -0.000069  -0.009071  -0.000269  -0.000976   0.002442
    20  C    0.007315   0.003954   0.015395  -0.003033   0.002044   0.014701
    21  N   -0.000438  -0.001336   0.011199   0.000316   0.000855  -0.000712
    22  C   -0.000160  -0.000952   0.009350  -0.000090  -0.000988   0.000738
    23  N   -0.001932  -0.002293   0.013113   0.000329   0.001431  -0.001561
    24  C    0.005756  -0.004238   0.078881  -0.000605  -0.004865   0.005144
    25  H    0.001436   0.001124  -0.015521   0.000205  -0.000246   0.003531
    26  H    0.000034   0.000042   0.000450  -0.000002  -0.000123   0.000020
    27  O    0.000012   0.000414  -0.001341  -0.000014  -0.000051  -0.000015
    28  O   -0.000464  -0.002130   0.000668   0.000408   0.000015   0.005281
               7          8          9         10         11         12
     1  C   -0.000138   0.028560  -0.018712  -0.012172  -0.005767  -0.000865
     2  C   -0.005637  -0.047727  -0.005637   0.000873   0.001976   0.003903
     3  C   -0.034081  -0.060207  -0.008248   0.004614   0.006514   0.008553
     4  O   -0.000721   0.000631   0.002050   0.000575   0.000063  -0.000288
     5  H   -0.000624  -0.018035   0.001350   0.001854   0.000688   0.000486
     6  O    0.005575   0.003722  -0.006252  -0.001294  -0.001579  -0.002102
     7  H    0.012814  -0.001808  -0.000196   0.000461  -0.000671   0.000551
     8  C   -0.001808   0.494034   0.003706  -0.001966  -0.003532  -0.000972
     9  C   -0.000196   0.003706   0.022267   0.001300   0.001311  -0.005164
    10  H    0.000461  -0.001966   0.001300   0.010520   0.000774   0.000665
    11  O   -0.000671  -0.003532   0.001311   0.000774   0.003879   0.000028
    12  C    0.000551  -0.000972  -0.005164   0.000665   0.000028   0.000401
    13  H   -0.000977   0.001914   0.001252  -0.000798  -0.000416  -0.000760
    14  O   -0.000014  -0.000410  -0.000166  -0.000593  -0.000072  -0.000551
    15  H    0.000055   0.000111  -0.000176   0.000107   0.000013   0.000343
    16  H   -0.000086  -0.000190   0.001137   0.000092   0.000015  -0.000455
    17  H    0.000071   0.000387   0.000074   0.000015   0.000000  -0.000045
    18  H    0.001042   0.006399  -0.000568   0.000013  -0.000231   0.000057
    19  H   -0.000085   0.003496   0.000063  -0.000565  -0.000184  -0.000860
    20  C    0.022386   0.337229   0.004166  -0.000073  -0.000074  -0.000811
    21  N    0.001696  -0.016382  -0.000578  -0.000013   0.000012   0.000080
    22  C   -0.000064  -0.025220   0.000726  -0.000028  -0.000000   0.000099
    23  N   -0.000160  -0.027358  -0.000618  -0.000106   0.000052   0.000498
    24  C   -0.000338   0.090140   0.000488  -0.000144  -0.000513  -0.002390
    25  H    0.004133   0.049483   0.001029  -0.000028  -0.000188  -0.000226
    26  H    0.000028   0.001773  -0.000020   0.000001  -0.000002  -0.000009
    27  O   -0.000065   0.006009   0.000011   0.000001  -0.000000  -0.000010
    28  O   -0.000618  -0.011959   0.000170   0.000004   0.000011   0.000040
              13         14         15         16         17         18
     1  C    0.005811   0.001904  -0.000639   0.000212   0.001002   0.002158
     2  C   -0.000317  -0.000804   0.000496   0.000047  -0.000329  -0.000462
     3  C   -0.006106   0.001721   0.000119   0.000092  -0.001385  -0.007589
     4  O    0.000018  -0.000043  -0.000015   0.000016  -0.000102  -0.002044
     5  H   -0.000815  -0.000234   0.000063  -0.000114  -0.000256  -0.000200
     6  O    0.002864  -0.000150  -0.000083  -0.000095   0.000258   0.000418
     7  H   -0.000977  -0.000014   0.000055  -0.000086   0.000071   0.001042
     8  C    0.001914  -0.000410   0.000111  -0.000190   0.000387   0.006399
     9  C    0.001252  -0.000166  -0.000176   0.001137   0.000074  -0.000568
    10  H   -0.000798  -0.000593   0.000107   0.000092   0.000015   0.000013
    11  O   -0.000416  -0.000072   0.000013   0.000015   0.000000  -0.000231
    12  C   -0.000760  -0.000551   0.000343  -0.000455  -0.000045   0.000057
    13  H    0.001696  -0.000124  -0.000111  -0.000320   0.000110  -0.000040
    14  O   -0.000124   0.003682   0.000069  -0.000007   0.000014  -0.000000
    15  H   -0.000111   0.000069  -0.000292   0.000051  -0.000009   0.000003
    16  H   -0.000320  -0.000007   0.000051   0.000134   0.000002  -0.000001
    17  H    0.000110   0.000014  -0.000009   0.000002  -0.000228   0.000056
    18  H   -0.000040  -0.000000   0.000003  -0.000001   0.000056   0.002478
    19  H    0.000351   0.000148  -0.000122   0.000146   0.000041   0.000064
    20  C   -0.000074   0.000326  -0.000009  -0.000042   0.000204   0.001384
    21  N   -0.000021  -0.000017  -0.000002  -0.000005  -0.000053  -0.000304
    22  C   -0.000003  -0.000040   0.000017  -0.000005   0.000003   0.000097
    23  N   -0.000023   0.000196   0.000023   0.000002  -0.000013  -0.000127
    24  C   -0.000336  -0.000816  -0.000072  -0.000112   0.000029   0.000755
    25  H    0.000186   0.000012  -0.000001  -0.000008   0.000048   0.000273
    26  H   -0.000006  -0.000051   0.000002  -0.000005  -0.000001   0.000001
    27  O    0.000001   0.000001  -0.000001   0.000002   0.000001   0.000003
    28  O    0.000221  -0.000941   0.000014  -0.000008   0.000002  -0.000129
              19         20         21         22         23         24
     1  C    0.002919   0.007315  -0.000438  -0.000160  -0.001932   0.005756
     2  C   -0.000069   0.003954  -0.001336  -0.000952  -0.002293  -0.004238
     3  C   -0.009071   0.015395   0.011199   0.009350   0.013113   0.078881
     4  O   -0.000269  -0.003033   0.000316  -0.000090   0.000329  -0.000605
     5  H   -0.000976   0.002044   0.000855  -0.000988   0.001431  -0.004865
     6  O    0.002442   0.014701  -0.000712   0.000738  -0.001561   0.005144
     7  H   -0.000085   0.022386   0.001696  -0.000064  -0.000160  -0.000338
     8  C    0.003496   0.337229  -0.016382  -0.025220  -0.027358   0.090140
     9  C    0.000063   0.004166  -0.000578   0.000726  -0.000618   0.000488
    10  H   -0.000565  -0.000073  -0.000013  -0.000028  -0.000106  -0.000144
    11  O   -0.000184  -0.000074   0.000012  -0.000000   0.000052  -0.000513
    12  C   -0.000860  -0.000811   0.000080   0.000099   0.000498  -0.002390
    13  H    0.000351  -0.000074  -0.000021  -0.000003  -0.000023  -0.000336
    14  O    0.000148   0.000326  -0.000017  -0.000040   0.000196  -0.000816
    15  H   -0.000122  -0.000009  -0.000002   0.000017   0.000023  -0.000072
    16  H    0.000146  -0.000042  -0.000005  -0.000005   0.000002  -0.000112
    17  H    0.000041   0.000204  -0.000053   0.000003  -0.000013   0.000029
    18  H    0.000064   0.001384  -0.000304   0.000097  -0.000127   0.000755
    19  H    0.000343   0.000026   0.000058   0.000399  -0.000377   0.001576
    20  C    0.000026  -0.855352  -0.038394   0.075735   0.000393   0.144687
    21  N    0.000058  -0.038394   0.468495   0.005311   0.001302  -0.002647
    22  C    0.000399   0.075735   0.005311  -0.204671   0.025163   0.008918
    23  N   -0.000377   0.000393   0.001302   0.025163  -0.027029   0.020453
    24  C    0.001576   0.144687  -0.002647   0.008918   0.020453  -0.454843
    25  H    0.000119  -0.072117  -0.005844   0.002778  -0.002914   0.007698
    26  H    0.000016   0.006472   0.000529  -0.004699  -0.002494  -0.003315
    27  O   -0.000032  -0.006494  -0.015786  -0.004190  -0.002744  -0.005358
    28  O   -0.001501   0.015435   0.000850  -0.001794   0.004389  -0.031724
              25         26         27         28
     1  C    0.001436   0.000034   0.000012  -0.000464
     2  C    0.001124   0.000042   0.000414  -0.002130
     3  C   -0.015521   0.000450  -0.001341   0.000668
     4  O    0.000205  -0.000002  -0.000014   0.000408
     5  H   -0.000246  -0.000123  -0.000051   0.000015
     6  O    0.003531   0.000020  -0.000015   0.005281
     7  H    0.004133   0.000028  -0.000065  -0.000618
     8  C    0.049483   0.001773   0.006009  -0.011959
     9  C    0.001029  -0.000020   0.000011   0.000170
    10  H   -0.000028   0.000001   0.000001   0.000004
    11  O   -0.000188  -0.000002  -0.000000   0.000011
    12  C   -0.000226  -0.000009  -0.000010   0.000040
    13  H    0.000186  -0.000006   0.000001   0.000221
    14  O    0.000012  -0.000051   0.000001  -0.000941
    15  H   -0.000001   0.000002  -0.000001   0.000014
    16  H   -0.000008  -0.000005   0.000002  -0.000008
    17  H    0.000048  -0.000001   0.000001   0.000002
    18  H    0.000273   0.000001   0.000003  -0.000129
    19  H    0.000119   0.000016  -0.000032  -0.001501
    20  C   -0.072117   0.006472  -0.006494   0.015435
    21  N   -0.005844   0.000529  -0.015786   0.000850
    22  C    0.002778  -0.004699  -0.004190  -0.001794
    23  N   -0.002914  -0.002494  -0.002744   0.004389
    24  C    0.007698  -0.003315  -0.005358  -0.031724
    25  H    0.023927   0.000222  -0.000092   0.000395
    26  H    0.000222   0.002664  -0.000283  -0.002753
    27  O   -0.000092  -0.000283   0.281321   0.000051
    28  O    0.000395  -0.002753   0.000051   0.141345
 Mulliken charges and spin densities:
               1          2
     1  C    1.151089   0.005047
     2  C    0.662186   0.036380
     3  C    1.186780  -0.070823
     4  O   -0.681845   0.001363
     5  H   -0.572095  -0.004873
     6  O   -0.865710   0.024896
     7  H   -0.714343   0.002529
     8  C    1.048924   0.811829
     9  C    0.817322  -0.005233
    10  H   -0.336697   0.004089
    11  O   -0.705042   0.002109
    12  C    1.012487   0.000198
    13  H   -0.439955   0.003179
    14  O   -0.508661   0.003040
    15  H   -0.277298  -0.000044
    16  H   -0.239520   0.000496
    17  H    0.169651  -0.000103
    18  H    0.153282   0.003506
    19  H    0.289173  -0.001903
    20  C    0.775142  -0.324619
    21  N   -0.585097   0.408172
    22  C    0.743709  -0.113570
    23  N   -0.395233  -0.002405
    24  C    0.430119  -0.147792
    25  H   -0.616294  -0.000586
    26  H   -0.062553  -0.001511
    27  O   -0.563104   0.251355
    28  O   -0.876418   0.115277
 Sum of Mulliken charges =  -0.00000   1.00000
 Mulliken charges and spin densities with hydrogens summed into heavy atoms:
               1          2
     1  C    0.814392   0.009136
     2  C    0.090091   0.031507
     3  C    0.472438  -0.068294
     4  O   -0.528563   0.004869
     6  O   -0.865710   0.024896
     8  C    1.048924   0.811829
     9  C    0.377367  -0.002054
    11  O   -0.535392   0.002006
    12  C    0.495668   0.000649
    14  O   -0.219488   0.001137
    20  C    0.158849  -0.325205
    21  N   -0.585097   0.408172
    22  C    0.743709  -0.113570
    23  N   -0.457786  -0.003917
    24  C    0.430119  -0.147792
    27  O   -0.563104   0.251355
    28  O   -0.876418   0.115277
 Electronic spatial extent (au):  <R**2>=           4111.2249
 Charge=             -0.0000 electrons
 Dipole moment (field-independent basis, Debye):
    X=             -0.3180    Y=             -2.0213    Z=             -0.2497  Tot=              2.0614
 Quadrupole moment (field-independent basis, Debye-Ang):
   XX=           -122.5517   YY=           -100.5166   ZZ=            -99.6087
   XY=              1.6156   XZ=              3.7848   YZ=             -3.7483
 Traceless Quadrupole moment (field-independent basis, Debye-Ang):
   XX=            -14.9927   YY=              7.0425   ZZ=              7.9503
   XY=              1.6156   XZ=              3.7848   YZ=             -3.7483
 Octapole moment (field-independent basis, Debye-Ang**2):
  XXX=           -136.9277  YYY=            -24.1927  ZZZ=              5.3186  XYY=             18.7819
  XXY=             41.2127  XXZ=              6.8631  XZZ=              5.7741  YZZ=             -0.4158
  YYZ=             -6.8592  XYZ=              9.2456
 Hexadecapole moment (field-independent basis, Debye-Ang**3):
 XXXX=          -4532.4582 YYYY=          -1070.4401 ZZZZ=           -427.0270 XXXY=             11.9320
 XXXZ=             22.0956 YYYX=             79.6491 YYYZ=            -28.4657 ZZZX=             14.9665
 ZZZY=              3.4131 XXYY=           -827.3877 XXZZ=           -677.2731 YYZZ=           -251.3428
 XXYZ=            -37.5408 YYXZ=             29.7782 ZZXY=              5.0770
 N-N= 1.309676423218D+03 E-N=-4.748576105431D+03  KE= 9.046528899212D+02
                          Isotropic Fermi Contact Couplings
        Atom                 a.u.       MegaHertz       Gauss      10(-4) cm-1
     1  C(13)             -0.00119      -1.34225      -0.47895      -0.44773
     2  C(13)              0.01290      14.50690       5.17642       4.83898
     3  C(13)             -0.01621     -18.21760      -6.50049      -6.07674
     4  O(17)              0.00328      -1.98705      -0.70903      -0.66281
     5  H(1)              -0.00052      -2.30269      -0.82166      -0.76809
     6  O(17)              0.01796     -10.88826      -3.88520      -3.63193
     7  H(1)               0.00157       7.03201       2.50920       2.34563
     8  C(13)              0.06871      77.23967      27.56104      25.76438
     9  C(13)             -0.00158      -1.77923      -0.63487      -0.59349
    10  H(1)               0.00188       8.41205       3.00163       2.80596
    11  O(17)              0.00040      -0.23952      -0.08547      -0.07990
    12  C(13)             -0.00030      -0.33191      -0.11843      -0.11071
    13  H(1)               0.00153       6.84658       2.44303       2.28377
    14  O(17)              0.00054      -0.32543      -0.11612      -0.10855
    15  H(1)               0.00000       0.01975       0.00705       0.00659
    16  H(1)               0.00022       0.98324       0.35084       0.32797
    17  H(1)              -0.00003      -0.12114      -0.04323      -0.04041
    18  H(1)               0.00034       1.53556       0.54793       0.51221
    19  H(1)              -0.00003      -0.12432      -0.04436      -0.04147
[...]
 69,-0.00023127,0.00006909,0.00023893,0.00179004,-0.00030310,0.00010715
 ,0.00053303,0.00038483,0.00019638,0.02037442,-0.00544456,-0.00040390,-
 0.00076207,0.00015665,0.00032398,0.00011300,-0.00001510,-0.00003506,0.
 00055210,0.00037999,0.00009138,-0.00019694,0.00003801,-0.00040789,0.00
 020809,0.00000218,0.00001338,0.00095512,-0.00017992,0.00017955,0.00013
 807,-0.00001934,-0.00000944,-0.00006449,-0.00000099,0.00006512,-0.0002
 1505,-0.00014886,0.00002315,-0.00004104,-0.00016757,0.00015781,-0.0013
 6293,0.00034201,0.00007641,-0.06481636,-0.03456592,-0.01594085,-0.0596
 4032,0.02654899,0.01039923,0.90582482,-0.00001252,-0.00020231,-0.00224
 313,0.00086561,-0.00039704,0.00449740,0.00207388,-0.00044048,-0.005454
 20,-0.00025547,0.00005041,-0.00068498,0.00028630,0.00028973,-0.0004734
 8,0.00222046,-0.00304703,0.00040892,-0.00127630,-0.00043353,-0.0001806
 1,0.00463815,-0.01510572,-0.00181513,-0.00064747,0.00064538,0.00102251
 ,0.00061497,-0.00008136,0.00036011,0.00040086,0.00006591,0.00009406,0.
 00103231,0.00101742,0.00160571,0.00034470,-0.00013756,-0.00022912,-0.0
 0318443,-0.00095600,-0.00089313,-0.00023230,-0.00018390,-0.00022458,0.
 00003039,-0.00012061,-0.00013485,-0.00030334,-0.00009166,0.00010439,0.
 00018224,0.00024341,0.00019254,0.00477274,-0.00010088,-0.00012821,-0.0
 3066719,-0.00382991,-0.00103880,-0.03270488,-0.20098276,-0.04308948,0.
 05152361,0.51196462,0.00001989,-0.00009567,-0.00063638,-0.00006518,-0.
 00047579,0.00146788,0.00010275,-0.00063627,-0.00069886,-0.00034834,0.0
 0021926,-0.00045626,0.00025092,0.00013441,-0.00027767,0.00154697,-0.00
 117100,0.00001394,-0.00032540,-0.00039673,-0.00014615,0.00386429,-0.00
 351021,-0.00819075,-0.00053690,0.00027587,0.00077928,0.00018379,-0.000
 00848,0.00007146,0.00006752,0.00002432,-0.00007248,0.00036605,0.000380
 16,0.00063507,0.00021227,-0.00005659,-0.00015443,-0.00110354,-0.000273
 18,-0.00060959,-0.00007321,-0.00007558,-0.00010870,-0.00001278,-0.0000
 0786,-0.00007274,-0.00004114,-0.00002467,0.00006451,0.00022187,0.00009
 394,0.00008327,0.00159251,-0.00020364,0.00042864,-0.01443757,-0.000147
 19,-0.00631565,-0.00957929,-0.04088583,-0.09117168,0.04870753,0.106897
 43,0.25008424,0.00041639,0.00028191,-0.00060110,-0.00002039,0.00097255
 ,0.00148322,0.00329558,-0.00058623,-0.00202724,-0.00008570,-0.00113580
 ,0.00024476,0.00037439,0.00038980,-0.00064732,-0.00010168,-0.00171460,
 -0.00055919,-0.00091733,-0.00051399,-0.00015676,-0.02552849,-0.0238504
 2,-0.00940995,0.00048478,0.00039798,0.00032849,0.00016509,0.00001256,0
 .00009175,-0.00040581,-0.00062794,-0.00012116,0.00122424,0.00076436,0.
 00230983,-0.00000432,-0.00015556,-0.00017892,-0.00466922,-0.00024282,-
 0.00105921,-0.00043306,-0.00014241,-0.00027303,0.00008151,-0.00005436,
 -0.00029302,0.00006128,0.00013855,0.00000306,-0.00004634,0.00027940,-0
 .00016429,0.00746085,-0.00135922,-0.00027940,-0.00669104,0.00072218,0.
 00026613,0.01614354,0.00264014,0.00196473,-0.14379170,0.02650862,0.002
 84487,0.74279287,-0.00011169,-0.00014635,0.00041160,0.00071446,-0.0003
 1227,-0.00164649,0.00199191,-0.00689700,-0.00157774,-0.00011341,0.0003
 6741,0.00028756,-0.00014665,-0.00016650,0.00055923,-0.00045659,0.00200
 897,0.00029180,-0.00176661,-0.00017073,-0.00015085,-0.03764540,0.00100
 355,-0.00471532,0.00048436,-0.00035245,-0.00036471,-0.00023362,0.00000
 185,-0.00004034,-0.00021521,0.00034482,0.00017758,-0.00069055,-0.00063
 395,-0.00129400,-0.00010948,0.00010674,0.00006107,0.00294630,0.0003408
 7,0.00070210,0.00021728,0.00012820,0.00023536,-0.00000103,0.00005103,0
 .00015172,0.00017563,0.00000184,-0.00007133,-0.00005191,-0.00010924,-0
 .00001813,-0.00426605,0.00074795,-0.00019066,0.00982775,-0.00098321,0.
 00013424,0.01125670,-0.04577511,-0.02051802,0.05754910,-0.20775789,-0.
 04946443,0.05007894,0.71867994,-0.00016829,-0.00003317,0.00010062,0.00
 018333,0.00009802,-0.00047752,0.00058434,-0.00359637,0.00065256,0.0000
 8703,-0.00004208,0.00023706,-0.00016564,-0.00007632,0.00012878,-0.0000
 1923,0.00115118,0.00032976,-0.00056698,0.00008613,-0.00012294,-0.01600
 147,-0.00513778,0.00838569,0.00030164,-0.00017619,-0.00027663,-0.00008
 045,-0.00001654,0.00000235,-0.00006098,0.00009891,0.00010976,-0.000392
 41,-0.00025580,-0.00057958,-0.00009351,0.00001751,0.00007638,0.0012016
 3,0.00018786,0.00008557,0.00004419,0.00006518,0.00006610,-0.00000784,0
 .00000741,0.00004852,0.00002809,0.00001517,-0.00004050,-0.00014076,-0.
 00005722,-0.00005321,-0.00168425,-0.00004826,0.00063750,0.00323751,-0.
 00057014,0.00012238,0.00431513,-0.02070000,0.00714229,0.01703157,-0.05
 393056,-0.07450203,0.04356575,0.24919646,0.15921235,-0.00103349,-0.000
 52795,0.00035197,0.00084399,-0.00290364,-0.00278548,-0.00434198,-0.034
 66589,-0.01021632,0.00015320,0.00248883,-0.00039770,-0.00172134,-0.000
 55325,0.00248522,0.00294808,0.00455934,0.00135420,-0.00566311,0.000009
 98,0.00008784,-0.12628611,-0.05314435,-0.02419012,-0.00125476,0.000001
 07,-0.00009784,-0.00023108,0.00007598,-0.00010726,0.00049990,0.0014305
 2,0.00074743,-0.00192561,-0.00066962,-0.00221577,0.00037409,0.00010320
 ,0.00010820,0.00364937,-0.00035260,0.00086113,0.00046213,0.00012149,0.
 00011025,-0.00013598,0.00010540,0.00026771,-0.00000470,-0.00021151,-0.
 00011253,0.00006888,-0.00039886,0.00037784,-0.00615402,0.00317059,0.00
 130193,0.02807383,0.02287269,0.00825913,-0.00797348,-0.02039946,-0.007
 34960,-0.05365058,0.06160627,0.02074484,-0.28165194,-0.06296164,-0.029
 66283,0.72197330,0.00045491,-0.00047051,-0.00242151,-0.00056137,0.0000
 4912,0.00473665,-0.01165873,0.00519892,-0.00665394,0.00010353,-0.00080
 186,-0.00072771,0.00080692,0.00083348,-0.00170062,0.00168377,-0.006740
 80,0.00001612,0.00175645,0.00090372,-0.00005722,-0.04513534,-0.1670735
 9,-0.03443260,-0.00061044,0.00079125,0.00111622,0.00084814,-0.00004966
 ,0.00045843,0.00034215,-0.00050043,-0.00018601,0.00241162,0.00190352,0
 .00347353,0.00029003,-0.00029030,-0.00026332,-0.00886335,-0.00049612,-
 0.00151786,-0.00055018,-0.00040131,-0.00050829,0.00003684,-0.00020912,
 -0.00035340,-0.00050773,-0.00008607,0.00012093,0.00020918,0.00027127,0
 .00021841,0.01233308,-0.00330089,-0.00081938,0.01926042,-0.02997369,-0
 .01327757,-0.01728400,-0.00487050,-0.00083081,0.00672799,0.03415072,0.
 01563504,-0.02470524,-0.14432196,-0.03303795,-0.14775114,0.72359748,0.
 00079274,-0.00050888,-0.00075305,-0.00227979,-0.00050001,0.00332521,-0
 .00271524,0.00396957,0.00116271,-0.00034497,0.00003020,-0.00088006,0.0
 0129164,0.00030426,-0.00121780,0.00239757,-0.00551175,0.00031123,0.000
 31710,-0.00041170,0.00109873,-0.02295157,-0.03694234,-0.09256250,-0.00
 117393,0.00066497,0.00091083,0.00031252,0.00003139,0.00011683,0.000160
 60,-0.00005531,-0.00037045,0.00121087,0.00089599,0.00177177,0.00036583
 ,-0.00001190,-0.00020527,-0.00408420,-0.00031970,-0.00058263,-0.000179
 08,-0.00019658,-0.00026786,0.00000254,-0.00001939,-0.00018765,-0.00007
 569,-0.00005307,0.00015356,0.00040589,0.00026705,0.00011819,0.00562799
 ,-0.00094036,-0.00109531,0.01011020,-0.01233155,0.00504160,-0.00756974
 ,-0.00009817,-0.00574523,0.00161801,0.01677083,-0.00460444,-0.01555414
 ,-0.03595385,-0.06648675,-0.05298106,0.21702624,0.27512376,-0.00004778
 ,0.00008665,0.00010630,-0.00029534,0.00005344,-0.00015609,0.00086048,0
 .00287862,0.00127986,0.00004124,-0.00006378,-0.00009862,0.00004161,0.0
 0001831,-0.00010974,0.00018927,-0.00077409,0.00000769,-0.00031361,-0.0
 0063752,-0.00042295,0.00757042,0.01882823,0.00663593,-0.00020353,0.000
 01780,0.00008473,0.00000211,-0.00000268,-0.00002992,0.00010734,-0.0000
 5288,-0.00005900,0.00003485,0.00003981,0.00003670,0.00002153,0.0000057
 1,0.00000630,-0.00006314,-0.00005127,-0.00003033,0.00000626,-0.0000102
 0,-0.00001565,-0.00000501,0.00000081,0.00000301,-0.00006454,-0.0000071
 3,0.00002769,0.00004043,-0.00005066,0.00000590,0.00011166,0.00000584,0
 .00000274,-0.07243785,-0.06718503,-0.02604407,-0.02080323,-0.03308104,
 -0.01191482,-0.00267636,0.00152036,-0.00074402,0.00064003,-0.00102381,
 -0.00021253,-0.00441480,0.00103827,-0.00012226,0.09268730,-0.00001609,
 -0.00006326,-0.00012551,0.00004900,0.00004920,0.00022585,-0.00151381,-
 0.00062114,0.00034046,-0.00019715,0.00007992,0.00009574,-0.00011770,-0
 .00001358,0.00014753,-0.00017923,0.00047185,0.00015011,0.00117464,0.00
 079351,0.00038126,-0.00870606,-0.01497070,-0.00887751,0.00020591,0.000
 06055,0.00007411,-0.00002122,-0.00000968,0.00003047,-0.00007556,0.0000
 6179,0.00005312,-0.00010165,-0.00004026,-0.00007582,0.00003416,-0.0000
 0353,-0.00003412,0.00015029,0.00006056,0.00005574,0.00000524,0.0000201
 9,0.00002344,0.00000236,0.00000003,0.00000632,0.00006065,0.00001525,-0
 .00000401,-0.00003116,0.00003104,-0.00000732,-0.00025480,0.00000802,-0
 .00000603,-0.06600252,-0.28061193,-0.08577993,-0.00845125,0.00177009,0
 .00155026,0.00154729,0.00383785,-0.00385668,0.00010374,0.00023807,0.00
 056040,0.00439618,0.00064486,-0.00109538,0.07878033,0.29040514,0.00005
 905,-0.00003884,-0.00023495,0.00046843,-0.00064660,0.00056151,0.000446
 14,0.00126051,-0.00239312,-0.00041165,0.00038787,-0.00006794,-0.000041
 48,0.00003032,-0.00000424,-0.00045163,0.00022707,0.00016910,0.00041195
 ,-0.00010389,0.00010617,-0.00286559,-0.00788703,0.00584990,0.00007087,
 0.00010254,-0.00007908,0.00005488,-0.00000610,0.00003712,-0.00003751,0
 .00008121,-0.00001678,-0.00005882,-0.00002429,-0.00001824,-0.00001516,
 0.00001423,-0.00000495,0.00004785,0.00003436,0.00000636,0.00000241,0.0
 0001454,0.00001563,-0.00000149,0.00000456,-0.00000106,0.00007351,-0.00
 001735,0.00003056,0.00004537,0.00001304,-0.00001038,-0.00009687,-0.000
 01210,0.00001058,-0.02650327,-0.08521213,-0.07713878,-0.00302334,-0.00
 025890,-0.00309156,-0.00050907,-0.00355517,0.01290808,-0.00009097,0.00
 042908,-0.00111358,0.00093430,-0.00145708,0.00548575,0.03152717,0.0959
 1574,0.06270731,-0.00005358,-0.00004561,-0.00003010,0.00012643,-0.0000
 7576,-0.00011744,0.00069872,-0.00172091,-0.00057537,0.00002693,0.00006
 580,0.00002665,-0.00002837,-0.00001674,0.00008450,0.00013260,0.0002779
 7,0.00010833,-0.00053335,-0.00007689,-0.00004215,-0.00641867,0.0009965
 4,0.00011597,0.00002905,-0.00002717,-0.00001420,-0.00001503,-0.0000028
 6,0.00000691,0.00000578,0.00007888,0.00004866,-0.00011872,-0.00006712,
 -0.00017524,0.00000071,0.00001176,0.00000537,0.00036504,0.00003331,0.0
 0008956,0.00003299,0.00001603,0.00002359,-0.00000565,0.00000294,0.0000
 2255,-0.00000116,-0.00000592,-0.00001130,-0.00002352,-0.00002241,0.000
 01415,-0.00049130,0.00008230,0.00000731,-0.00158610,0.00002966,-0.0000
 6771,-0.00227005,0.00650696,0.00183327,0.01917928,0.01855017,0.0083038
 8,-0.12402853,-0.11993709,-0.05068391,-0.00665949,-0.03463396,-0.01419
 531,0.00013351,-0.00002126,0.00003379,0.11849396,-0.00004326,-0.000033
 47,-0.00008540,-0.00007860,-0.00014579,0.00015963,0.00033478,0.0004117
 6,-0.00016725,0.00006676,0.00009190,-0.00002469,-0.00004482,0.00000190
 ,0.00002434,0.00018555,-0.00007068,0.00005320,0.00004354,-0.00003637,0
 .00006041,0.00059923,0.00266828,-0.00106947,-0.00016275,0.00004031,0.0
 0004070,0.00003157,-0.00000017,0.00001325,0.00010647,0.00005823,0.0000
 2822,-0.00003667,0.00002286,-0.00009994,0.00003152,0.00000420,0.000004
 13,0.00022049,-0.00012057,0.00001474,0.00002662,-0.00000315,0.00000552
 ,-0.00000584,-0.00000338,0.00002846,-0.00004666,-0.00002715,-0.0000001
 1,-0.00003624,-0.00002698,0.00002713,-0.00039636,0.00018556,0.00005326
 ,0.00098955,0.00043344,0.00058040,0.00327517,-0.00127775,-0.00229747,-
 0.00963507,-0.01805164,-0.00691249,-0.11997295,-0.34068651,-0.12907416
 ,-0.00420689,0.00342450,0.00036628,-0.00022247,-0.00015542,0.00025255,
 0.12969535,0.35313137,-0.00003145,-0.00002295,-0.00004503,0.00007417,-
 0.00002270,0.00014483,0.00006967,-0.00032237,0.00031881,-0.00003753,0.
 00009567,-0.00010401,-0.00001174,-0.00004659,0.00003098,0.00006018,0.0
 0018084,-0.00008300,0.00004486,0.00005095,-0.00007428,-0.00003387,-0.0
 0102572,0.00490575,-0.00007931,-0.00001486,0.00000129,0.00001829,0.000
 00004,0.00000487,0.00001023,0.00003426,-0.00001209,0.00001359,-0.00003
 018,0.00003768,0.00000362,-0.00000459,0.00000069,0.00005575,-0.0000106
 7,-0.00004618,0.00001231,0.00000354,-0.00000174,-0.00001181,0.00001580
 ,-0.00001984,-0.00000172,-0.00000490,0.00001335,0.00004240,0.00000963,
 0.00003730,-0.00015144,0.00006189,0.00001242,0.00025954,0.00046851,-0.
 00061837,0.00070273,-0.00189947,0.00466752,-0.00324202,-0.00417543,-0.
 00289048,-0.05069522,-0.13129395,-0.07203422,-0.00231480,-0.00025286,0
 .00133059,-0.00004010,0.00021137,-0.00078497,0.05479457,0.13498109,0.0
 7184484,0.00029092,0.00020524,0.00059248,-0.00047860,0.00081637,-0.001
 02489,0.00121771,-0.00044191,0.00061399,0.00000330,-0.00076966,0.00049
 575,0.00013072,-0.00003230,-0.00016662,-0.00141667,0.00044840,-0.00022
 443,-0.00017521,-0.00006573,-0.00005560,-0.01199084,0.00257192,0.00011
 541,0.00075139,-0.00014039,-0.00034971,-0.00017976,0.00002818,-0.00006
 772,-0.00049490,-0.00043181,-0.00011820,0.00016568,-0.00005002,0.00042
 816,-0.00019056,-0.00001152,0.00000591,-0.00100082,0.00024562,-0.00013
 369,-0.00013158,0.00001561,-0.00001291,0.00004835,0.00001266,-0.000078
 21,0.00019306,0.00014852,-0.00003984,-0.00006438,0.00012002,-0.0001771
 9,0.00147243,-0.00046213,-0.00008983,0.02545850,-0.01088512,-0.0020750
 7,-0.06767686,-0.06138097,-0.02521165,-0.62932786,-0.08031891,-0.05318
 880,-0.10271964,0.02384606,0.00218807,0.02327379,0.01465168,0.00556040
 ,-0.00180296,-0.00047752,-0.00012289,-0.00141264,-0.00243866,-0.000413
 15,0.77610961,0.00005987,0.00009673,0.00070023,-0.00017623,0.00026327,
 -0.00137932,-0.00043911,0.00003620,0.00159182,0.00001328,-0.00011995,0
 .00026773,-0.00006843,-0.00008389,0.00011965,-0.00096574,0.00096919,-0
 .00016550,0.00041161,0.00018838,0.00009292,0.00037891,0.00142693,0.000
 48020,0.00039575,-0.00021759,-0.00038764,-0.00020227,0.00002361,-0.000
 10850,-0.00022723,-0.00008754,-0.00004492,-0.00024685,-0.00029913,-0.0
 0035339,-0.00014415,0.00003527,0.00006682,0.00066393,0.00033133,0.0002
 2409,0.00003403,0.00005580,0.00006544,0.00000524,0.00003584,0.00001680
 ,0.00014010,0.00005355,-0.00003592,-0.00004348,-0.00003725,-0.00009580
 ,-0.00098472,-0.00007246,0.00001100,0.00017874,-0.00673713,-0.00309491
 ,-0.06049723,-0.01495958,-0.01513821,-0.09358304,-0.10719470,-0.015261
 10,0.05079358,0.01725805,0.00090688,-0.01099903,-0.00606002,-0.0042322
 9,-0.00177128,-0.00024816,0.00038574,-0.00292562,0.00240868,0.00191245
 ,0.11389721,0.11462923,0.00003820,0.00006718,0.00032294,-0.00010053,0.
 00025416,-0.00073044,-0.00019890,-0.00001432,0.00056736,0.00011277,-0.
 00018272,0.00022163,-0.00004028,-0.00002458,0.00005719,-0.00042531,0.0
 0032176,-0.00003970,0.00014340,0.00010797,0.00002902,-0.00051788,0.001
 03129,-0.00036569,0.00020324,-0.00006853,-0.00013308,-0.00009342,0.000
 01322,-0.00004813,-0.00008926,-0.00007548,0.00000546,-0.00008385,-0.00
 009803,-0.00014150,-0.00005081,0.00001387,0.00001881,0.00018840,0.0001
 0088,0.00016346,0.00000783,0.00001906,0.00002883,0.00000936,0.00000183
 ,0.00001757,0.00004035,0.00002747,-0.00003498,-0.00008762,-0.00000944,
 -0.00006494,-0.00025650,0.00001056,-0.00013561,0.00151895,-0.00380274,
 0.00145254,-0.02505843,-0.01512990,0.01447724,-0.05720244,-0.01473085,
 -0.08263070,0.01215063,-0.00051170,0.02141069,-0.00288846,-0.00385052,
 0.00517355,-0.00056175,0.00055562,-0.00167321,-0.00108784,0.00202019,-
 0.00247230,0.07289197,0.03379448,0.04601231,0.00088956,0.00020519,-0.0
 0127670,-0.00083005,0.00104511,0.00344605,-0.00213198,0.00677104,-0.00
 234001,-0.00011443,-0.00190459,0.00001094,0.00027287,-0.00015766,-0.00
 177165,-0.00091891,-0.00691510,-0.00247592,0.00065622,-0.00030403,-0.0
 0009664,0.01375504,0.02018276,0.00917328,0.00038843,0.00075215,0.00060
 579,0.00047087,0.00002713,0.00022627,-0.00031539,-0.00096682,-0.000314
 51,0.00211658,0.00169181,0.00541573,0.00000689,-0.00027916,-0.00026062
 ,-0.01463196,0.00186853,-0.00166647,-0.00093264,-0.00032986,-0.0009979
 2,0.00000545,-0.00007044,-0.00071880,-0.00011252,0.00010848,0.00007225
 ,0.00003700,0.00035967,-0.00019026,0.00082709,-0.00446696,-0.00110448,
 0.00276120,-0.00496991,-0.00106290,-0.00175279,0.00800805,0.00239605,0
 .00940546,-0.02756883,-0.00857377,-0.08204536,0.07064226,0.02717279,-0
 .27921812,0.22930653,0.09405310,0.00064009,-0.00034282,0.00005401,0.00
 442115,0.00172064,0.00090229,-0.01005216,0.00630219,0.00143814,0.35640
 239,0.00012336,-0.00024825,0.00157487,-0.00031107,0.00061409,-0.002288
 02,0.00388481,-0.00121573,0.00484892,-0.00026889,-0.00018856,0.0003985
 3,-0.00060918,-0.00133280,0.00027498,-0.00321620,0.00347140,-0.0016222
 4,0.00011380,0.00038178,0.00013822,0.02858337,-0.05252769,-0.03016866,
 0.00129848,-0.00082334,-0.00090768,-0.00061418,-0.00001588,-0.00023455
 ,-0.00057314,0.00035980,-0.00005159,-0.00179170,-0.00189228,-0.0037416
 1,-0.00039342,0.00030331,0.00026806,0.01044190,0.00279314,0.00135591,0
 .00056136,0.00040925,0.00060195,-0.00016734,0.00013325,0.00031075,0.00
 042182,0.00007572,-0.00006504,-0.00007022,-0.00014508,-0.00021487,-0.0
 1218616,-0.00102534,0.00127533,-0.01362506,-0.00278382,-0.00188279,0.0
 0512081,-0.00142001,-0.00046439,-0.00157979,0.00684954,-0.00019701,0.0
 4097725,0.00703385,-0.00563859,0.23880429,-0.40612202,-0.14114453,0.00
 165963,-0.00181027,0.00006615,0.00323164,-0.00224397,0.00110122,0.0008
 9918,-0.00169465,0.00015926,-0.30071535,0.45306459,-0.00069714,0.00059
 713,0.00074856,0.00113152,-0.00053107,-0.00295831,0.00048649,0.0004605
 2,-0.00060722,0.00033255,0.00054123,0.00072242,-0.00062580,0.00001094,
 0.00099829,-0.00403784,-0.00101150,-0.00145565,0.00013188,-0.00001318,
 0.00004584,0.01318494,-0.02972432,0.00698403,0.00163711,-0.00038309,-0
 .00084300,-0.00028933,-0.00005301,-0.00009316,0.00023041,0.00012428,0.
 00037642,-0.00006943,-0.00088374,-0.00197041,-0.00035839,0.00008513,0.
 00019376,0.00408699,0.00010204,0.00366473,0.00024369,0.00017909,0.0004
 3785,0.00016271,-0.00007061,0.00039632,0.00000296,-0.00003510,-0.00011
 368,-0.00027282,-0.00034220,-0.00001544,-0.00467463,0.00132828,-0.0038
 9452,-0.00645586,-0.00188038,-0.00025032,0.00228880,-0.00065993,-0.000
 31865,-0.00148591,0.00102781,0.00700263,0.01685767,-0.00482630,0.01693
 860,0.09732780,-0.14045294,-0.12616531,0.00083786,-0.00051525,-0.00125
 523,0.00148150,0.00101750,-0.00416442,0.00065830,-0.00033876,-0.001488
 32,-0.12211603,0.17624743,0.10708421\\0.00000272,0.00000279,0.00000268
 ,0.00000395,-0.00000309,-0.00000979,-0.00000792,0.00000294,0.00001028,
 0.00000251,0.00000063,0.00000555,0.00000006,0.00000310,-0.00000030,-0.
 00000274,-0.00000004,-0.00000257,0.00000104,0.00000005,-0.00000093,0.0
 0000550,-0.00001122,-0.00000197,-0.00000063,0.00000274,0.00000044,-0.0
 0000004,-0.00000101,-0.00000016,-0.00000211,-0.00000070,-0.00000249,0.
 00000362,-0.00000372,0.00000020,-0.00000186,0.00000081,-0.00000040,0.0
 0000065,0.00000206,0.00000087,-0.00000105,-0.00000140,-0.00000050,-0.0
 0000074,0.00000016,-0.00000053,-0.00000015,0.00000119,0.00000089,-0.00
 000079,-0.00000223,0.00000005,-0.00000009,-0.00000255,-0.00000179,-0.0
 0000011,0.00000246,0.00000400,-0.00000223,-0.00000278,-0.00000199,0.00
 000661,0.00000206,0.00000157,-0.00000335,-0.00000061,0.00000268,-0.000
 00459,0.00001004,-0.00000377,-0.00000062,0.00000030,-0.00000223,0.0000
 0146,-0.00000015,-0.00000085,-0.00000279,0.00000018,-0.00000111,0.0000
 0369,-0.00000202,0.00000215\\\@
 The archive entry for this job was punched.


 THE MORE PROGRESS PHYSICAL SCIENCES MAKE, THE MORE THEY TEND TO ENTER
 THE DOMAIN OF MATHEMATICS, WHICH IS A KIND OF CENTRE TO WHICH THEY ALL
 CONVERGE.  WE MAY EVEN JUDGE THE DEGREE OF PERFECTION TO WHICH A 
 SCIENCE HAS ARRIVED BY THE FACILITY WITH WHICH IT MAY BE SUBMITTED
 TO CALCULATION.

                               -- ADOLPHE QUETELET, 1796-1874
 Job cpu time:       0 days 17 hours 35 minutes 18.8 seconds.
 Elapsed time:       0 days  0 hours 26 minutes 37.3 seconds.
 File lengths (MBytes):  RWF=   1167 Int=      0 D2E=      0 Chk=     28 Scr=      1
 Normal termination of Gaussian 16 at Sun Oct 27 23:22:13 2024.
