 Entering Gaussian System, Link 0=g16
 Input=PseudoUridineAnSallgPBE0aVDZ.gjf
 Output=PseudoUridineAnSallgPBE0aVDZ.log
 Initial command:
 /sw/contrib/chem-src/g16/c01/g16/l1.exe "/scr/Gau-57666.inp" -scrdir="/scr/"
 Entering Link 1 = /sw/contrib/chem-src/g16/c01/g16/l1.exe PID=     57667.
  
 Copyright (c) 1988-2019, Gaussian, Inc.  All Rights Reserved.
  
 This is part of the Gaussian(R) 16 program.  It is based on
 the Gaussian(R) 09 system (copyright 2009, Gaussian, Inc.),
 the Gaussian(R) 03 system (copyright 2003, Gaussian, Inc.),
 the Gaussian(R) 98 system (copyright 1998, Gaussian, Inc.),
 the Gaussian(R) 94 system (copyright 1995, Gaussian, Inc.),
 the Gaussian 92(TM) system (copyright 1992, Gaussian, Inc.),
 the Gaussian 90(TM) system (copyright 1990, Gaussian, Inc.),
 the Gaussian 88(TM) system (copyright 1988, Gaussian, Inc.),
 the Gaussian 86(TM) system (copyright 1986, Carnegie Mellon
 University), and the Gaussian 82(TM) system (copyright 1983,
 Carnegie Mellon University). Gaussian is a federally registered
 trademark of Gaussian, Inc.
  
 This software contains proprietary and confidential information,
 including trade secrets, belonging to Gaussian, Inc.
  
 This software is provided under written license and may be
 used, copied, transmitted, or stored only in accord with that
 written license.
  
 The following legend is applicable only to US Government
 contracts under FAR:
  
                    RESTRICTED RIGHTS LEGEND
  
 Use, reproduction and disclosure by the US Government is
 subject to restrictions as set forth in subparagraphs (a)
 and (c) of the Commercial Computer Software - Restricted
 Rights clause in FAR 52.227-19.
  
 Gaussian, Inc.
 340 Quinnipiac St., Bldg. 40, Wallingford CT 06492
  
  
 ---------------------------------------------------------------
 Warning -- This program may not be used in any manner that
 competes with the business of Gaussian, Inc. or will provide
 assistance to any competitor of Gaussian, Inc.  The licensee
 of this program is prohibited from giving any competitor of
 Gaussian, Inc. access to this program.  By using this program,
 the user acknowledges that Gaussian, Inc. is engaged in the
 business of creating and licensing software in the field of
 computational chemistry and represents and warrants to the
 licensee that it is not a competitor of Gaussian, Inc. and that
 it will not use this program in any manner prohibited above.
 ---------------------------------------------------------------
  

 Cite this work as:
 Gaussian 16, Revision C.01,
 M. J. Frisch, G. W. Trucks, H. B. Schlegel, G. E. Scuseria, 
 M. A. Robb, J. R. Cheeseman, G. Scalmani, V. Barone, 
 G. A. Petersson, H. Nakatsuji, X. Li, M. Caricato, A. V. Marenich, 
 J. Bloino, B. G. Janesko, R. Gomperts, B. Mennucci, H. P. Hratchian, 
 J. V. Ortiz, A. F. Izmaylov, J. L. Sonnenberg, D. Williams-Young, 
 F. Ding, F. Lipparini, F. Egidi, J. Goings, B. Peng, A. Petrone, 
 T. Henderson, D. Ranasinghe, V. G. Zakrzewski, J. Gao, N. Rega, 
 G. Zheng, W. Liang, M. Hada, M. Ehara, K. Toyota, R. Fukuda, 
 J. Hasegawa, M. Ishida, T. Nakajima, Y. Honda, O. Kitao, H. Nakai, 
 T. Vreven, K. Throssell, J. A. Montgomery, Jr., J. E. Peralta, 
 F. Ogliaro, M. J. Bearpark, J. J. Heyd, E. N. Brothers, K. N. Kudin, 
 V. N. Staroverov, T. A. Keith, R. Kobayashi, J. Normand, 
 K. Raghavachari, A. P. Rendell, J. C. Burant, S. S. Iyengar, 
 J. Tomasi, M. Cossi, J. M. Millam, M. Klene, C. Adamo, R. Cammi, 
 J. W. Ochterski, R. L. Martin, K. Morokuma, O. Farkas, 
 J. B. Foresman, and D. J. Fox, Gaussian, Inc., Wallingford CT, 2019.
 
 ******************************************
 Gaussian 16:  EM64L-G16RevC.01  3-Jul-2019
                27-Oct-2024 
 ******************************************
 %nprocshared=40
 Will use up to   40 processors via shared memory.
 %mem=50gb
 ------------------------------------------------------
 # PBE1PBE/aug-cc-pVDZ opt freq EmpiricalDispersion=GD3
 ------------------------------------------------------
 1/18=20,19=15,26=3,38=1/1,3;
 2/9=110,12=2,17=6,18=5,40=1/2;
 3/5=16,7=10,11=2,25=1,30=1,71=1,74=-13,124=31/1,2,3;
 4//1;
 5/5=2,38=5/2;
 6/7=2,8=2,9=2,10=2,28=1/1;
 7//1,2,3,16;
 1/18=20,19=15,26=3/3(2);
 2/9=110/2;
 99//99;
 2/9=110/2;
 3/5=16,7=10,11=2,25=1,30=1,71=1,74=-13,124=31/1,2,3;
 4/5=5,16=3,69=1/1;
 5/5=2,38=5/2;
 7//1,2,3,16;
 1/18=20,19=15,26=3/3(-5);
 2/9=110/2;
 6/7=2,8=2,9=2,10=2,19=2,28=1/1;
 99/9=1/99;
 ----
 blah
 ----
 Symbolic Z-matrix:
 Charge =  0 Multiplicity = 2
 C                    -2.73176  -0.53499   0.30625 
 C                    -1.30981  -0.74036   0.80992 
 C                    -0.50208  -0.73479  -0.4936 
 O                    -1.21375  -1.97345   1.51334 
 H                    -1.01077   0.10272   1.44284 
 O                    -1.17564   0.19161  -1.33967 
 H                    -0.58753  -1.7526   -0.92547 
 C                     0.94311  -0.40671  -0.33549 
 C                    -2.51588   0.40445  -0.87955 
 H                    -3.38068  -0.08017   1.07017 
 O                    -3.28503  -1.76419  -0.14836 
 C                    -2.69061   1.8778   -0.54255 
 H                    -3.21478   0.12658  -1.68664 
 O                    -2.01267   2.2773    0.61316 
 H                    -3.76447   2.07506  -0.38294 
 H                    -2.37346   2.4574   -1.43072 
 H                    -2.87785  -2.44866   0.39905 
 H                    -0.27533  -2.15447   1.63316 
 H                    -1.04615   2.07316   0.52117 
 C                     1.88595  -1.28501  -0.75819 
 N                     3.20276  -1.02078  -0.587 
 C                     3.66635   0.16491   0.04331 
 N                     2.74666   1.05629   0.45371 
 C                     1.41894   0.85014   0.2906 
 H                     1.62826  -2.2251   -1.25154 
 H                     3.92063  -1.66058  -0.89013 
 O                     4.89362   0.27123   0.15785 
 O                     0.58733   1.70566   0.67742 
 

 GradGradGradGradGradGradGradGradGradGradGradGradGradGradGradGradGradGrad
 Berny optimization.
 Initialization pass.
                           ----------------------------
                           !    Initial Parameters    !
                           ! (Angstroms and Degrees)  !
 --------------------------                            --------------------------
 ! Name  Definition              Value          Derivative Info.                !
 --------------------------------------------------------------------------------
 ! R1    R(1,2)                  1.5224         estimate D2E/DX2                !
 ! R2    R(1,9)                  1.5282         estimate D2E/DX2                !
 ! R3    R(1,10)                 1.1007         estimate D2E/DX2                !
 ! R4    R(1,11)                 1.4226         estimate D2E/DX2                !
 ! R5    R(2,3)                  1.5335         estimate D2E/DX2                !
 ! R6    R(2,4)                  1.4229         estimate D2E/DX2                !
 ! R7    R(2,5)                  1.0958         estimate D2E/DX2                !
 ! R8    R(3,6)                  1.424          estimate D2E/DX2                !
 ! R9    R(3,7)                  1.1089         estimate D2E/DX2                !
 ! R10   R(3,8)                  1.4904         estimate D2E/DX2                !
 ! R11   R(4,18)                 0.9632         estimate D2E/DX2                !
 ! R12   R(6,9)                  1.4329         estimate D2E/DX2                !
 ! R13   R(8,20)                 1.3561         estimate D2E/DX2                !
 ! R14   R(8,24)                 1.4826         estimate D2E/DX2                !
 ! R15   R(9,12)                 1.5215         estimate D2E/DX2                !
 ! R16   R(9,13)                 1.1032         estimate D2E/DX2                !
 ! R17   R(11,17)                0.9664         estimate D2E/DX2                !
 ! R18   R(12,14)                1.3982         estimate D2E/DX2                !
 ! R19   R(12,15)                1.1034         estimate D2E/DX2                !
 ! R20   R(12,16)                1.107          estimate D2E/DX2                !
 ! R21   R(14,19)                0.9921         estimate D2E/DX2                !
 ! R22   R(20,21)                1.3539         estimate D2E/DX2                !
 ! R23   R(20,25)                1.0925         estimate D2E/DX2                !
 ! R24   R(21,22)                1.4206         estimate D2E/DX2                !
 ! R25   R(21,26)                1.0083         estimate D2E/DX2                !
 ! R26   R(22,23)                1.3449         estimate D2E/DX2                !
 ! R27   R(22,27)                1.2372         estimate D2E/DX2                !
 ! R28   R(23,24)                1.3535         estimate D2E/DX2                !
 ! R29   R(24,28)                1.2542         estimate D2E/DX2                !
 ! A1    A(2,1,9)              101.9874         estimate D2E/DX2                !
 ! A2    A(2,1,10)             112.134          estimate D2E/DX2                !
 ! A3    A(2,1,11)             110.6353         estimate D2E/DX2                !
 ! A4    A(9,1,10)             111.5802         estimate D2E/DX2                !
 ! A5    A(9,1,11)             109.7648         estimate D2E/DX2                !
 ! A6    A(10,1,11)            110.4596         estimate D2E/DX2                !
 ! A7    A(1,2,3)              102.1374         estimate D2E/DX2                !
 ! A8    A(1,2,4)              110.0913         estimate D2E/DX2                !
 ! A9    A(1,2,5)              110.0097         estimate D2E/DX2                !
 ! A10   A(3,2,4)              112.8188         estimate D2E/DX2                !
 ! A11   A(3,2,5)              110.1466         estimate D2E/DX2                !
 ! A12   A(4,2,5)              111.2716         estimate D2E/DX2                !
 ! A13   A(2,3,6)              104.9672         estimate D2E/DX2                !
 ! A14   A(2,3,7)              106.685          estimate D2E/DX2                !
 ! A15   A(2,3,8)              114.9218         estimate D2E/DX2                !
 ! A16   A(6,3,7)              109.2241         estimate D2E/DX2                !
 ! A17   A(6,3,8)              112.2405         estimate D2E/DX2                !
 ! A18   A(7,3,8)              108.5469         estimate D2E/DX2                !
 ! A19   A(2,4,18)             106.867          estimate D2E/DX2                !
 ! A20   A(3,6,9)              110.3814         estimate D2E/DX2                !
 ! A21   A(3,8,20)             119.9029         estimate D2E/DX2                !
 ! A22   A(3,8,24)             122.8629         estimate D2E/DX2                !
 ! A23   A(20,8,24)            117.2288         estimate D2E/DX2                !
 ! A24   A(1,9,6)              106.8569         estimate D2E/DX2                !
 ! A25   A(1,9,12)             114.0298         estimate D2E/DX2                !
 ! A26   A(1,9,13)             108.8651         estimate D2E/DX2                !
 ! A27   A(6,9,12)             108.8074         estimate D2E/DX2                !
 ! A28   A(6,9,13)             108.6762         estimate D2E/DX2                !
 ! A29   A(12,9,13)            109.4628         estimate D2E/DX2                !
 ! A30   A(1,11,17)            105.4925         estimate D2E/DX2                !
 ! A31   A(9,12,14)            113.8343         estimate D2E/DX2                !
 ! A32   A(9,12,15)            108.4768         estimate D2E/DX2                !
 ! A33   A(9,12,16)            107.242          estimate D2E/DX2                !
 ! A34   A(14,12,15)           107.5323         estimate D2E/DX2                !
 ! A35   A(14,12,16)           112.005          estimate D2E/DX2                !
 ! A36   A(15,12,16)           107.535          estimate D2E/DX2                !
 ! A37   A(12,14,19)           109.6904         estimate D2E/DX2                !
 ! A38   A(8,20,21)            120.6895         estimate D2E/DX2                !
 ! A39   A(8,20,25)            122.2817         estimate D2E/DX2                !
 ! A40   A(21,20,25)           117.028          estimate D2E/DX2                !
 ! A41   A(20,21,22)           122.4375         estimate D2E/DX2                !
 ! A42   A(20,21,26)           122.0475         estimate D2E/DX2                !
 ! A43   A(22,21,26)           115.5112         estimate D2E/DX2                !
 ! A44   A(21,22,23)           117.7373         estimate D2E/DX2                !
 ! A45   A(21,22,27)           115.8826         estimate D2E/DX2                !
 ! A46   A(23,22,27)           126.38           estimate D2E/DX2                !
 ! A47   A(22,23,24)           122.2142         estimate D2E/DX2                !
 ! A48   A(8,24,23)            119.6591         estimate D2E/DX2                !
 ! A49   A(8,24,28)            119.7152         estimate D2E/DX2                !
 ! A50   A(23,24,28)           120.621          estimate D2E/DX2                !
 ! D1    D(9,1,2,3)            -35.3611         estimate D2E/DX2                !
 ! D2    D(9,1,2,4)           -155.4309         estimate D2E/DX2                !
 ! D3    D(9,1,2,5)             81.5912         estimate D2E/DX2                !
 ! D4    D(10,1,2,3)          -154.8516         estimate D2E/DX2                !
 ! D5    D(10,1,2,4)            85.0786         estimate D2E/DX2                !
 ! D6    D(10,1,2,5)           -37.8993         estimate D2E/DX2                !
 ! D7    D(11,1,2,3)            81.3413         estimate D2E/DX2                !
 ! D8    D(11,1,2,4)           -38.7285         estimate D2E/DX2                !
 ! D9    D(11,1,2,5)          -161.7064         estimate D2E/DX2                !
 ! D10   D(2,1,9,6)             25.1196         estimate D2E/DX2                !
 ! D11   D(2,1,9,12)           -95.1401         estimate D2E/DX2                !
 ! D12   D(2,1,9,13)           142.3213         estimate D2E/DX2                !
 ! D13   D(10,1,9,6)           144.9999         estimate D2E/DX2                !
 ! D14   D(10,1,9,12)           24.7402         estimate D2E/DX2                !
 ! D15   D(10,1,9,13)          -97.7984         estimate D2E/DX2                !
 ! D16   D(11,1,9,6)           -92.2108         estimate D2E/DX2                !
 ! D17   D(11,1,9,12)          147.5295         estimate D2E/DX2                !
 ! D18   D(11,1,9,13)           24.9909         estimate D2E/DX2                !
 ! D19   D(2,1,11,17)           31.299          estimate D2E/DX2                !
 ! D20   D(9,1,11,17)          143.0851         estimate D2E/DX2                !
 ! D21   D(10,1,11,17)         -93.4655         estimate D2E/DX2                !
 ! D22   D(1,2,3,6)             34.2797         estimate D2E/DX2                !
 ! D23   D(1,2,3,7)            -81.5652         estimate D2E/DX2                !
 ! D24   D(1,2,3,8)            158.0753         estimate D2E/DX2                !
 ! D25   D(4,2,3,6)            152.424          estimate D2E/DX2                !
 ! D26   D(4,2,3,7)             36.5791         estimate D2E/DX2                !
 ! D27   D(4,2,3,8)            -83.7804         estimate D2E/DX2                !
 ! D28   D(5,2,3,6)            -82.574          estimate D2E/DX2                !
 ! D29   D(5,2,3,7)            161.5811         estimate D2E/DX2                !
 ! D30   D(5,2,3,8)             41.2216         estimate D2E/DX2                !
 ! D31   D(1,2,4,18)           167.3137         estimate D2E/DX2                !
 ! D32   D(3,2,4,18)            53.9361         estimate D2E/DX2                !
 ! D33   D(5,2,4,18)           -70.4515         estimate D2E/DX2                !
 ! D34   D(2,3,6,9)            -19.2398         estimate D2E/DX2                !
 ! D35   D(7,3,6,9)             94.8373         estimate D2E/DX2                !
 ! D36   D(8,3,6,9)           -144.7294         estimate D2E/DX2                !
 ! D37   D(2,3,8,20)           122.1843         estimate D2E/DX2                !
 ! D38   D(2,3,8,24)           -56.9463         estimate D2E/DX2                !
 ! D39   D(6,3,8,20)          -117.9693         estimate D2E/DX2                !
 ! D40   D(6,3,8,24)            62.9001         estimate D2E/DX2                !
 ! D41   D(7,3,8,20)             2.8552         estimate D2E/DX2                !
 ! D42   D(7,3,8,24)          -176.2754         estimate D2E/DX2                !
 ! D43   D(3,6,9,1)             -3.7929         estimate D2E/DX2                !
 ! D44   D(3,6,9,12)           119.7587         estimate D2E/DX2                !
 ! D45   D(3,6,9,13)          -121.1192         estimate D2E/DX2                !
 ! D46   D(3,8,20,21)         -178.0561         estimate D2E/DX2                !
 ! D47   D(3,8,20,25)            2.2783         estimate D2E/DX2                !
 ! D48   D(24,8,20,21)           1.1226         estimate D2E/DX2                !
 ! D49   D(24,8,20,25)        -178.543          estimate D2E/DX2                !
 ! D50   D(3,8,24,23)          177.1467         estimate D2E/DX2                !
 ! D51   D(3,8,24,28)           -2.0705         estimate D2E/DX2                !
 ! D52   D(20,8,24,23)          -2.0058         estimate D2E/DX2                !
 ! D53   D(20,8,24,28)         178.777          estimate D2E/DX2                !
 ! D54   D(1,9,12,14)           47.7427         estimate D2E/DX2                !
 ! D55   D(1,9,12,15)          -71.9167         estimate D2E/DX2                !
 ! D56   D(1,9,12,16)          172.2144         estimate D2E/DX2                !
 ! D57   D(6,9,12,14)          -71.4174         estimate D2E/DX2                !
 ! D58   D(6,9,12,15)          168.9233         estimate D2E/DX2                !
 ! D59   D(6,9,12,16)           53.0544         estimate D2E/DX2                !
 ! D60   D(13,9,12,14)         169.9536         estimate D2E/DX2                !
 ! D61   D(13,9,12,15)          50.2942         estimate D2E/DX2                !
 ! D62   D(13,9,12,16)         -65.5747         estimate D2E/DX2                !
 ! D63   D(9,12,14,19)          57.0977         estimate D2E/DX2                !
 ! D64   D(15,12,14,19)        177.2903         estimate D2E/DX2                !
 ! D65   D(16,12,14,19)        -64.7751         estimate D2E/DX2                !
 ! D66   D(8,20,21,22)           0.5063         estimate D2E/DX2                !
 ! D67   D(8,20,21,26)         179.7647         estimate D2E/DX2                !
 ! D68   D(25,20,21,22)       -179.8111         estimate D2E/DX2                !
 ! D69   D(25,20,21,26)         -0.5526         estimate D2E/DX2                !
 ! D70   D(20,21,22,23)         -1.3372         estimate D2E/DX2                !
 ! D71   D(20,21,22,27)        178.7222         estimate D2E/DX2                !
 ! D72   D(26,21,22,23)        179.3592         estimate D2E/DX2                !
 ! D73   D(26,21,22,27)         -0.5814         estimate D2E/DX2                !
 ! D74   D(21,22,23,24)          0.3948         estimate D2E/DX2                !
 ! D75   D(27,22,23,24)       -179.6715         estimate D2E/DX2                !
 ! D76   D(22,23,24,8)           1.2317         estimate D2E/DX2                !
 ! D77   D(22,23,24,28)       -179.5583         estimate D2E/DX2                !
 --------------------------------------------------------------------------------
 Trust Radius=3.00D-01 FncErr=1.00D-07 GrdErr=1.00D-06 EigMax=2.50D+02 EigMin=1.00D-04
 Number of steps in this run=    166 maximum allowed number of steps=    168.
 GradGradGradGradGradGradGradGradGradGradGradGradGradGradGradGradGradGrad

                          Input orientation:                          
 ---------------------------------------------------------------------
 Center     Atomic      Atomic             Coordinates (Angstroms)
 Number     Number       Type             X           Y           Z
 ---------------------------------------------------------------------
      1          6           0       -2.731757   -0.534992    0.306249
      2          6           0       -1.309812   -0.740361    0.809916
      3          6           0       -0.502078   -0.734786   -0.493597
      4          8           0       -1.213747   -1.973445    1.513338
      5          1           0       -1.010773    0.102724    1.442837
      6          8           0       -1.175640    0.191606   -1.339667
      7          1           0       -0.587531   -1.752600   -0.925465
      8          6           0        0.943111   -0.406705   -0.335485
      9          6           0       -2.515875    0.404452   -0.879551
     10          1           0       -3.380676   -0.080165    1.070168
     11          8           0       -3.285026   -1.764187   -0.148356
     12          6           0       -2.690613    1.877803   -0.542547
     13          1           0       -3.214782    0.126580   -1.686636
     14          8           0       -2.012667    2.277298    0.613161
     15          1           0       -3.764472    2.075057   -0.382935
     16          1           0       -2.373462    2.457401   -1.430722
     17          1           0       -2.877846   -2.448662    0.399046
     18          1           0       -0.275329   -2.154467    1.633163
     19          1           0       -1.046150    2.073162    0.521170
     20          6           0        1.885945   -1.285005   -0.758191
     21          7           0        3.202758   -1.020778   -0.587002
     22          6           0        3.666349    0.164914    0.043307
     23          7           0        2.746664    1.056287    0.453705
     24          6           0        1.418936    0.850141    0.290595
     25          1           0        1.628262   -2.225098   -1.251538
     26          1           0        3.920627   -1.660583   -0.890130
     27          8           0        4.893617    0.271232    0.157852
     28          8           0        0.587331    1.705661    0.677415
 ---------------------------------------------------------------------
                    Distance matrix (angstroms):
                    1          2          3          4          5
     1  C    0.000000
     2  C    1.522427   0.000000
     3  C    2.377213   1.533496   0.000000
     4  O    2.414656   1.422859   2.463440   0.000000
     5  H    2.158773   1.095813   2.170247   2.087258   0.000000
     6  O    2.378757   2.346758   1.423981   3.581695   2.788801
     7  H    2.756337   2.134916   1.108944   2.527584   3.038127
     8  C    3.732685   2.549300   1.490372   3.244204   2.690652
     9  C    1.528163   2.370545   2.345677   3.616054   2.783857
    10  H    1.100698   2.189079   3.340691   2.911441   2.405986
    11  O    1.422566   2.422390   2.987249   2.663684   3.345068
    12  C    2.558071   3.254313   3.408475   4.608677   3.148733
    13  H    2.154665   3.257801   3.086107   4.319037   3.827770
    14  O    2.918949   3.104671   3.546751   4.417851   2.533955
    15  H    2.890299   3.921075   4.307050   5.147079   3.847908
    16  H    3.478485   4.046911   3.817111   5.444706   3.957116
    17  H    1.921480   2.354960   3.062426   2.058325   3.329419
    18  H    3.227606   1.935868   2.567103   0.963201   2.381599
    19  H    3.112865   2.840564   3.034854   4.169834   2.175626
    20  C    4.797783   3.601175   2.464834   3.904086   3.893750
    21  N    6.020993   4.732156   3.717032   4.982421   4.810026
    22  C    6.441643   5.115603   4.298082   5.527107   4.882420
    23  N    5.706751   4.450823   3.828792   5.097740   4.000750
    24  C    4.375739   3.200852   2.610986   4.049538   2.791018
    25  H    4.928785   3.884111   2.708109   3.973019   4.432033
    26  H    6.852189   5.576240   4.535930   5.677705   5.733297
    27  O    7.669312   6.319101   5.527204   6.646489   6.044949
    28  O    4.021770   3.098343   2.917852   4.180726   2.389396
                    6          7          8          9         10
     6  O    0.000000
     7  H    2.073010   0.000000
     8  C    2.419806   2.121880   0.000000
     9  C    1.432913   2.893699   3.594241   0.000000
    10  H    3.277705   3.818540   4.558248   2.187267   0.000000
    11  O    3.113496   2.807225   4.444650   2.414381   2.080836
    12  C    2.402874   4.213004   4.297185   1.521469   2.628816
    13  H    2.069472   3.318606   4.404325   1.103209   2.769518
    14  O    2.977291   4.542957   4.103709   2.447235   2.763682
    15  H    3.341373   5.003824   5.321911   2.143955   2.627506
    16  H    2.564546   4.600972   4.516891   2.130416   3.702455
    17  H    3.590493   2.735758   4.394182   3.147395   2.512573
    18  H    3.892600   2.608744   2.900835   4.228693   3.776622
    19  H    2.649478   4.115767   3.292531   2.628061   3.223077
    20  C    3.448449   2.522838   1.356107   4.716462   5.703668
    21  N    4.605079   3.875101   2.355069   5.900816   6.853654
    22  C    5.035691   4.765593   2.808248   6.255313   7.125663
    23  N    4.398673   4.572615   2.452747   5.467795   6.262256
    24  C    3.134206   3.504136   1.482581   4.129239   4.950705
    25  H    3.702714   2.288955   2.148287   4.922071   5.922881
    26  H    5.441013   4.509235   3.278024   6.759663   7.723310
    27  O    6.251782   5.942428   4.038499   7.482949   8.331850
    28  O    3.077182   3.988621   2.369522   3.707718   4.369040
                   11         12         13         14         15
    11  O    0.000000
    12  C    3.711173   0.000000
    13  H    2.438491   2.156496   0.000000
    14  O    4.304928   1.398166   3.370421   0.000000
    15  H    3.876170   1.103430   2.407978   2.025322   0.000000
    16  H    4.505243   1.106966   2.491192   2.083283   1.782962
    17  H    0.966411   4.431699   3.330986   4.809270   4.675643
    18  H    3.519148   5.179432   4.986444   4.868191   5.841887
    19  H    4.492892   1.968227   3.656030   0.992113   2.864731
    20  C    5.228810   5.567292   5.373267   5.456169   6.584683
    21  N    6.544953   6.567767   6.611388   6.286363   7.626803
    22  C    7.216632   6.609703   7.095360   6.085895   7.684233
    23  N    6.685719   5.588505   6.401894   4.916048   6.643249
    24  C    5.399504   4.317245   5.089629   3.730513   5.368592
    25  H    5.056664   5.999095   5.401368   6.083176   6.951790
    26  H    7.244474   7.506629   7.398813   7.278102   8.559965
    27  O    8.433676   7.784097   8.316802   7.206134   8.860516
    28  O    5.264683   3.501836   4.747452   2.662872   4.494328
                   16         17         18         19         20
    16  H    0.000000
    17  H    5.260410   0.000000
    18  H    5.921054   2.895288   0.000000
    19  H    2.391501   4.880258   4.438867   0.000000
    20  C    5.709680   5.038551   3.338509   4.638020   0.000000
    21  N    6.625996   6.323361   4.279191   5.371567   1.353927
    22  C    6.626279   7.055765   4.841900   5.106605   2.431975
    23  N    5.632928   6.627425   4.564264   3.927343   2.773297
    24  C    4.464135   5.418136   3.701445   2.761448   2.424231
    25  H    6.162118   4.804104   3.456899   5.363768   1.092505
    26  H    7.540928   6.964358   4.921075   6.371930   2.073258
    27  O    7.753279   8.237210   5.897335   6.217699   3.508148
    28  O    3.711556   5.416949   4.069180   1.681585   3.562506
                   21         22         23         24         25
    21  N    0.000000
    22  C    1.420588   0.000000
    23  N    2.367550   1.344914   0.000000
    24  C    2.729933   2.362531   1.353500   0.000000
    25  H    2.090701   3.397437   3.863439   3.446605   0.000000
    26  H    1.008252   2.066011   3.250456   3.735814   2.388353
    27  O    2.254573   1.237179   2.305048   3.525077   4.345180
    28  O    3.984053   3.500906   2.265933   1.254237   4.500585
                   26         27         28
    26  H    0.000000
    27  O    2.403515   0.000000
    28  O    4.989956   4.568548   0.000000
 Stoichiometry    C9H11N2O6(2)
 Framework group  C1[X(C9H11N2O6)]
 Deg. of freedom    78
 Full point group                 C1      NOp   1
 Largest Abelian subgroup         C1      NOp   1
 Largest concise Abelian subgroup C1      NOp   1
                         Standard orientation:                         
 ---------------------------------------------------------------------
 Center     Atomic      Atomic             Coordinates (Angstroms)
 Number     Number       Type             X           Y           Z
 ---------------------------------------------------------------------
      1          6           0       -2.731757   -0.534992    0.306249
      2          6           0       -1.309812   -0.740361    0.809916
      3          6           0       -0.502078   -0.734786   -0.493597
      4          8           0       -1.213747   -1.973445    1.513338
      5          1           0       -1.010773    0.102724    1.442837
      6          8           0       -1.175640    0.191606   -1.339667
      7          1           0       -0.587531   -1.752600   -0.925465
      8          6           0        0.943111   -0.406705   -0.335485
      9          6           0       -2.515875    0.404452   -0.879551
     10          1           0       -3.380676   -0.080165    1.070168
     11          8           0       -3.285026   -1.764187   -0.148356
     12          6           0       -2.690613    1.877803   -0.542547
     13          1           0       -3.214782    0.126580   -1.686636
     14          8           0       -2.012667    2.277298    0.613161
     15          1           0       -3.764472    2.075057   -0.382935
     16          1           0       -2.373462    2.457401   -1.430722
     17          1           0       -2.877846   -2.448662    0.399046
     18          1           0       -0.275329   -2.154467    1.633163
     19          1           0       -1.046150    2.073162    0.521170
     20          6           0        1.885945   -1.285005   -0.758191
     21          7           0        3.202758   -1.020778   -0.587002
     22          6           0        3.666349    0.164914    0.043307
     23          7           0        2.746664    1.056287    0.453705
     24          6           0        1.418936    0.850141    0.290595
     25          1           0        1.628262   -2.225098   -1.251538
     26          1           0        3.920627   -1.660583   -0.890130
     27          8           0        4.893617    0.271232    0.157852
     28          8           0        0.587331    1.705661    0.677415
 ---------------------------------------------------------------------
 Rotational constants (GHZ):           0.9410881           0.3077639           0.2649514
 Standard basis: Aug-CC-pVDZ (5D, 7F)
 There are   524 symmetry adapted cartesian basis functions of A   symmetry.
 There are   490 symmetry adapted basis functions of A   symmetry.
   490 basis functions,   852 primitive gaussians,   524 cartesian basis functions
    64 alpha electrons       63 beta electrons
       nuclear repulsion energy      1310.6636543310 Hartrees.
 NAtoms=   28 NActive=   28 NUniq=   28 SFac= 1.00D+00 NAtFMM=   60 NAOKFM=F Big=F
 Integral buffers will be    131072 words long.
 Raffenetti 2 integral format.
 Two-electron integral symmetry is turned on.
 Nuclear repulsion after empirical dispersion term =     1310.6436070357 Hartrees.
 One-electron integrals computed using PRISM.
 NBasis=   490 RedAO= T EigKep=  2.09D-06  NBF=   490
 NBsUse=   490 1.00D-06 EigRej= -1.00D+00 NBFU=   490
 ExpMin= 2.97D-02 ExpMax= 1.17D+04 ExpMxC= 4.01D+02 IAcc=3 IRadAn=         5 AccDes= 0.00D+00
 Harris functional with IExCor= 1009 and IRadAn=       5 diagonalized for initial guess.
 HarFok:  IExCor= 1009 AccDes= 0.00D+00 IRadAn=         5 IDoV= 1 UseB2=F ITyADJ=14
 ICtDFT=  3500011 ScaDFX=  1.000000  1.000000  1.000000  1.000000
 FoFCou: FMM=F IPFlag=           0 FMFlag=      100000 FMFlg1=           0
         NFxFlg=           0 DoJE=T BraDBF=F KetDBF=T FulRan=T
         wScrn=  0.000000 ICntrl=       500 IOpCl=  0 I1Cent=   200000004 NGrid=           0
         NMat0=    1 NMatS0=      1 NMatT0=    0 NMatD0=    1 NMtDS0=    0 NMtDT0=    0
 Petite list used in FoFCou.
 Initial guess <Sx>= 0.0000 <Sy>= 0.0000 <Sz>= 0.5000 <S**2>= 0.7500 S= 0.5000
 Requested convergence on RMS density matrix=1.00D-08 within 128 cycles.
 Requested convergence on MAX density matrix=1.00D-06.
 Requested convergence on             energy=1.00D-06.
 No special actions if energy rises.
 Restarting incremental Fock formation.
 SCF Done:  E(UPBE1PBE) =  -909.517644398     A.U. after   36 cycles
            NFock= 36  Conv=0.50D-08     -V/T= 2.0054
 <Sx>= 0.0000 <Sy>= 0.0000 <Sz>= 0.5000 <S**2>= 0.7716 S= 0.5108
 <L.S>= 0.000000000000E+00
 Annihilation of the first spin contaminant:
 S**2 before annihilation     0.7716,   after     0.7503

 **********************************************************************

            Population analysis using the SCF Density.

 **********************************************************************

 Orbital symmetries:
 Alpha Orbitals:
       Occupied  (A) (A) (A) (A) (A) (A) (A) (A) (A) (A) (A) (A)
                 (A) (A) (A) (A) (A) (A) (A) (A) (A) (A) (A) (A)
                 (A) (A) (A) (A) (A) (A) (A) (A) (A) (A) (A) (A)
                 (A) (A) (A) (A) (A) (A) (A) (A) (A) (A) (A) (A)
                 (A) (A) (A) (A) (A) (A) (A) (A) (A) (A) (A) (A)
                 (A) (A) (A) (A)
       Virtual   (A) (A) (A) (A) (A) (A) (A) (A) (A) (A) (A) (A)
                 (A) (A) (A) (A) (A) (A) (A) (A) (A) (A) (A) (A)
                 (A) (A) (A) (A) (A) (A) (A) (A) (A) (A) (A) (A)
                 (A) (A) (A) (A) (A) (A) (A) (A) (A) (A) (A) (A)
                 (A) (A) (A) (A) (A) (A) (A) (A) (A) (A) (A) (A)
                 (A) (A) (A) (A) (A) (A) (A) (A) (A) (A) (A) (A)
                 (A) (A) (A) (A) (A) (A) (A) (A) (A) (A) (A) (A)
                 (A) (A) (A) (A) (A) (A) (A) (A) (A) (A) (A) (A)
                 (A) (A) (A) (A) (A) (A) (A) (A) (A) (A) (A) (A)
                 (A) (A) (A) (A) (A) (A) (A) (A) (A) (A) (A) (A)
                 (A) (A) (A) (A) (A) (A) (A) (A) (A) (A) (A) (A)
                 (A) (A) (A) (A) (A) (A) (A) (A) (A) (A) (A) (A)
                 (A) (A) (A) (A) (A) (A) (A) (A) (A) (A) (A) (A)
                 (A) (A) (A) (A) (A) (A) (A) (A) (A) (A) (A) (A)
                 (A) (A) (A) (A) (A) (A) (A) (A) (A) (A) (A) (A)
                 (A) (A) (A) (A) (A) (A) (A) (A) (A) (A) (A) (A)
                 (A) (A) (A) (A) (A) (A) (A) (A) (A) (A) (A) (A)
                 (A) (A) (A) (A) (A) (A) (A) (A) (A) (A) (A) (A)
                 (A) (A) (A) (A) (A) (A) (A) (A) (A) (A) (A) (A)
                 (A) (A) (A) (A) (A) (A) (A) (A) (A) (A) (A) (A)
                 (A) (A) (A) (A) (A) (A) (A) (A) (A) (A) (A) (A)
                 (A) (A) (A) (A) (A) (A) (A) (A) (A) (A) (A) (A)
                 (A) (A) (A) (A) (A) (A) (A) (A) (A) (A) (A) (A)
                 (A) (A) (A) (A) (A) (A) (A) (A) (A) (A) (A) (A)
                 (A) (A) (A) (A) (A) (A) (A) (A) (A) (A) (A) (A)
                 (A) (A) (A) (A) (A) (A) (A) (A) (A) (A) (A) (A)
                 (A) (A) (A) (A) (A) (A) (A) (A) (A) (A) (A) (A)
                 (A) (A) (A) (A) (A) (A) (A) (A) (A) (A) (A) (A)
                 (A) (A) (A) (A) (A) (A) (A) (A) (A) (A) (A) (A)
                 (A) (A) (A) (A) (A) (A) (A) (A) (A) (A) (A) (A)
                 (A) (A) (A) (A) (A) (A) (A) (A) (A) (A) (A) (A)
                 (A) (A) (A) (A) (A) (A) (A) (A) (A) (A) (A) (A)
                 (A) (A) (A) (A) (A) (A) (A) (A) (A) (A) (A) (A)
                 (A) (A) (A) (A) (A) (A) (A) (A) (A) (A) (A) (A)
                 (A) (A) (A) (A) (A) (A) (A) (A) (A) (A) (A) (A)
                 (A) (A) (A) (A) (A) (A)
 Beta  Orbitals:
       Occupied  (A) (A) (A) (A) (A) (A) (A) (A) (A) (A) (A) (A)
                 (A) (A) (A) (A) (A) (A) (A) (A) (A) (A) (A) (A)
                 (A) (A) (A) (A) (A) (A) (A) (A) (A) (A) (A) (A)
                 (A) (A) (A) (A) (A) (A) (A) (A) (A) (A) (A) (A)
                 (A) (A) (A) (A) (A) (A) (A) (A) (A) (A) (A) (A)
                 (A) (A) (A)
       Virtual   (A) (A) (A) (A) (A) (A) (A) (A) (A) (A) (A) (A)
                 (A) (A) (A) (A) (A) (A) (A) (A) (A) (A) (A) (A)
                 (A) (A) (A) (A) (A) (A) (A) (A) (A) (A) (A) (A)
                 (A) (A) (A) (A) (A) (A) (A) (A) (A) (A) (A) (A)
                 (A) (A) (A) (A) (A) (A) (A) (A) (A) (A) (A) (A)
                 (A) (A) (A) (A) (A) (A) (A) (A) (A) (A) (A) (A)
                 (A) (A) (A) (A) (A) (A) (A) (A) (A) (A) (A) (A)
                 (A) (A) (A) (A) (A) (A) (A) (A) (A) (A) (A) (A)
                 (A) (A) (A) (A) (A) (A) (A) (A) (A) (A) (A) (A)
                 (A) (A) (A) (A) (A) (A) (A) (A) (A) (A) (A) (A)
                 (A) (A) (A) (A) (A) (A) (A) (A) (A) (A) (A) (A)
                 (A) (A) (A) (A) (A) (A) (A) (A) (A) (A) (A) (A)
                 (A) (A) (A) (A) (A) (A) (A) (A) (A) (A) (A) (A)
                 (A) (A) (A) (A) (A) (A) (A) (A) (A) (A) (A) (A)
                 (A) (A) (A) (A) (A) (A) (A) (A) (A) (A) (A) (A)
                 (A) (A) (A) (A) (A) (A) (A) (A) (A) (A) (A) (A)
                 (A) (A) (A) (A) (A) (A) (A) (A) (A) (A) (A) (A)
                 (A) (A) (A) (A) (A) (A) (A) (A) (A) (A) (A) (A)
                 (A) (A) (A) (A) (A) (A) (A) (A) (A) (A) (A) (A)
                 (A) (A) (A) (A) (A) (A) (A) (A) (A) (A) (A) (A)
                 (A) (A) (A) (A) (A) (A) (A) (A) (A) (A) (A) (A)
                 (A) (A) (A) (A) (A) (A) (A) (A) (A) (A) (A) (A)
                 (A) (A) (A) (A) (A) (A) (A) (A) (A) (A) (A) (A)
                 (A) (A) (A) (A) (A) (A) (A) (A) (A) (A) (A) (A)
                 (A) (A) (A) (A) (A) (A) (A) (A) (A) (A) (A) (A)
                 (A) (A) (A) (A) (A) (A) (A) (A) (A) (A) (A) (A)
                 (A) (A) (A) (A) (A) (A) (A) (A) (A) (A) (A) (A)
                 (A) (A) (A) (A) (A) (A) (A) (A) (A) (A) (A) (A)
                 (A) (A) (A) (A) (A) (A) (A) (A) (A) (A) (A) (A)
                 (A) (A) (A) (A) (A) (A) (A) (A) (A) (A) (A) (A)
                 (A) (A) (A) (A) (A) (A) (A) (A) (A) (A) (A) (A)
                 (A) (A) (A) (A) (A) (A) (A) (A) (A) (A) (A) (A)
                 (A) (A) (A) (A) (A) (A) (A) (A) (A) (A) (A) (A)
                 (A) (A) (A) (A) (A) (A) (A) (A) (A) (A) (A) (A)
                 (A) (A) (A) (A) (A) (A) (A) (A) (A) (A) (A) (A)
                 (A) (A) (A) (A) (A) (A) (A)
 The electronic state is 2-A.
 Alpha  occ. eigenvalues --  -19.27225 -19.27164 -19.27137 -19.23973 -19.22237
 Alpha  occ. eigenvalues --  -19.20918 -14.51281 -14.43607 -10.40549 -10.36928
 Alpha  occ. eigenvalues --  -10.36042 -10.33140 -10.31475 -10.31138 -10.30252
 Alpha  occ. eigenvalues --  -10.29973 -10.27919  -1.14818  -1.12478  -1.09947
 Alpha  occ. eigenvalues --   -1.08839  -1.06574  -1.05056  -1.04169  -0.96464
 Alpha  occ. eigenvalues --   -0.88790  -0.82068  -0.80453  -0.73351  -0.70429
 Alpha  occ. eigenvalues --   -0.69851  -0.66441  -0.63045  -0.61928  -0.61715
 Alpha  occ. eigenvalues --   -0.57326  -0.55594  -0.54757  -0.53426  -0.53036
 Alpha  occ. eigenvalues --   -0.51729  -0.51355  -0.50440  -0.49287  -0.47055
 Alpha  occ. eigenvalues --   -0.46047  -0.44913  -0.44560  -0.43325  -0.42739
 Alpha  occ. eigenvalues --   -0.42105  -0.40873  -0.39960  -0.36347  -0.35422
 Alpha  occ. eigenvalues --   -0.34931  -0.33572  -0.33049  -0.32576  -0.31567
 Alpha  occ. eigenvalues --   -0.31004  -0.30080  -0.29546  -0.27530
 Alpha virt. eigenvalues --   -0.07610  -0.03779  -0.03379  -0.01582  -0.00249
 Alpha virt. eigenvalues --    0.00701   0.01766   0.02329   0.02727   0.03834
 Alpha virt. eigenvalues --    0.04173   0.04552   0.05190   0.05419   0.05472
 Alpha virt. eigenvalues --    0.06026   0.06326   0.06558   0.07481   0.08036
 Alpha virt. eigenvalues --    0.08330   0.08645   0.08915   0.09455   0.09846
 Alpha virt. eigenvalues --    0.09949   0.10045   0.10483   0.11062   0.11174
 Alpha virt. eigenvalues --    0.11284   0.12151   0.12204   0.12878   0.12979
 Alpha virt. eigenvalues --    0.13463   0.13938   0.14193   0.14418   0.14730
 Alpha virt. eigenvalues --    0.15268   0.15501   0.15692   0.16211   0.16420
 Alpha virt. eigenvalues --    0.16776   0.17423   0.18029   0.18244   0.18572
 Alpha virt. eigenvalues --    0.18785   0.19149   0.19769   0.20204   0.20330
 Alpha virt. eigenvalues --    0.20848   0.21306   0.21631   0.22143   0.22294
 Alpha virt. eigenvalues --    0.22735   0.23025   0.23589   0.24012   0.24349
 Alpha virt. eigenvalues --    0.24667   0.25090   0.25209   0.25475   0.26122
 Alpha virt. eigenvalues --    0.26297   0.26521   0.26739   0.26836   0.27393
 Alpha virt. eigenvalues --    0.27634   0.28049   0.28248   0.28421   0.28827
 Alpha virt. eigenvalues --    0.28849   0.29530   0.30172   0.30514   0.31522
 Alpha virt. eigenvalues --    0.31772   0.31925   0.32108   0.32584   0.33286
 Alpha virt. eigenvalues --    0.33470   0.33776   0.34226   0.34768   0.34840
 Alpha virt. eigenvalues --    0.35439   0.35809   0.35910   0.37057   0.37620
 Alpha virt. eigenvalues --    0.37786   0.38154   0.38793   0.39091   0.39307
 Alpha virt. eigenvalues --    0.39944   0.40611   0.41145   0.41823   0.42211
 Alpha virt. eigenvalues --    0.43071   0.43434   0.43504   0.44041   0.44319
 Alpha virt. eigenvalues --    0.45142   0.45735   0.46202   0.47115   0.47366
 Alpha virt. eigenvalues --    0.47601   0.48000   0.48289   0.48706   0.50026
 Alpha virt. eigenvalues --    0.51162   0.51385   0.51892   0.52416   0.53023
 Alpha virt. eigenvalues --    0.53255   0.54204   0.54542   0.54581   0.55184
 Alpha virt. eigenvalues --    0.55962   0.56450   0.56806   0.56995   0.57981
 Alpha virt. eigenvalues --    0.58519   0.59040   0.59487   0.60390   0.61099
 Alpha virt. eigenvalues --    0.61534   0.61681   0.62086   0.62810   0.63599
 Alpha virt. eigenvalues --    0.64508   0.64983   0.65234   0.65863   0.66377
 Alpha virt. eigenvalues --    0.66585   0.66996   0.67157   0.67818   0.68519
 Alpha virt. eigenvalues --    0.68573   0.69254   0.69507   0.69702   0.70884
 Alpha virt. eigenvalues --    0.71501   0.72171   0.72572   0.72999   0.73358
 Alpha virt. eigenvalues --    0.74004   0.74547   0.75287   0.76343   0.76983
 Alpha virt. eigenvalues --    0.77978   0.78201   0.78497   0.79445   0.80250
 Alpha virt. eigenvalues --    0.80717   0.81883   0.82028   0.83025   0.83524
 Alpha virt. eigenvalues --    0.83721   0.84935   0.85878   0.86012   0.87064
 Alpha virt. eigenvalues --    0.87935   0.88139   0.88755   0.89884   0.90704
 Alpha virt. eigenvalues --    0.91393   0.91539   0.92585   0.93299   0.94422
 Alpha virt. eigenvalues --    0.95256   0.96396   0.96942   0.98107   0.98236
 Alpha virt. eigenvalues --    0.99452   1.00723   1.01185   1.01533   1.02571
 Alpha virt. eigenvalues --    1.03420   1.03567   1.05929   1.06659   1.07263
 Alpha virt. eigenvalues --    1.08120   1.08667   1.09702   1.10948   1.11607
 Alpha virt. eigenvalues --    1.12581   1.13272   1.14126   1.14621   1.15242
 Alpha virt. eigenvalues --    1.16748   1.16915   1.17572   1.18014   1.19430
 Alpha virt. eigenvalues --    1.20583   1.21277   1.21539   1.23693   1.24705
 Alpha virt. eigenvalues --    1.25223   1.26113   1.27220   1.28263   1.29474
 Alpha virt. eigenvalues --    1.29962   1.31346   1.31920   1.33928   1.34091
 Alpha virt. eigenvalues --    1.35502   1.36449   1.36827   1.37682   1.38509
 Alpha virt. eigenvalues --    1.39689   1.41081   1.41597   1.42328   1.43046
 Alpha virt. eigenvalues --    1.45347   1.46651   1.47421   1.48378   1.49357
 Alpha virt. eigenvalues --    1.49984   1.50843   1.51584   1.52852   1.54142
 Alpha virt. eigenvalues --    1.55331   1.55796   1.56281   1.56902   1.59152
 Alpha virt. eigenvalues --    1.59429   1.60513   1.61099   1.62970   1.64110
 Alpha virt. eigenvalues --    1.64748   1.65071   1.66337   1.68402   1.69337
 Alpha virt. eigenvalues --    1.70243   1.70785   1.71454   1.72308   1.72789
 Alpha virt. eigenvalues --    1.73056   1.75196   1.76355   1.77164   1.77446
 Alpha virt. eigenvalues --    1.78248   1.79213   1.79610   1.81702   1.82314
 Alpha virt. eigenvalues --    1.84412   1.84782   1.85996   1.86110   1.86763
 Alpha virt. eigenvalues --    1.87604   1.90590   1.91145   1.91792   1.92226
 Alpha virt. eigenvalues --    1.93881   1.95151   1.95580   1.96597   1.98725
 Alpha virt. eigenvalues --    1.98964   1.99928   2.00888   2.01769   2.02824
 Alpha virt. eigenvalues --    2.04043   2.05453   2.05932   2.06424   2.07005
 Alpha virt. eigenvalues --    2.08619   2.09495   2.09662   2.10207   2.12228
 Alpha virt. eigenvalues --    2.12635   2.13415   2.15967   2.17293   2.17881
 Alpha virt. eigenvalues --    2.18566   2.21829   2.23132   2.23612   2.24591
 Alpha virt. eigenvalues --    2.26538   2.28352   2.28771   2.29615   2.31845
 Alpha virt. eigenvalues --    2.33539   2.34079   2.36003   2.37757   2.38510
 Alpha virt. eigenvalues --    2.40071   2.40980   2.41284   2.43764   2.44502
 Alpha virt. eigenvalues --    2.44945   2.47268   2.47812   2.48912   2.51146
 Alpha virt. eigenvalues --    2.51817   2.52228   2.53419   2.55449   2.57596
 Alpha virt. eigenvalues --    2.59404   2.60653   2.62086   2.62786   2.66589
 Alpha virt. eigenvalues --    2.67839   2.69021   2.71567   2.71946   2.75944
 Alpha virt. eigenvalues --    2.77717   2.78966   2.80087   2.82100   2.85244
 Alpha virt. eigenvalues --    2.87638   2.89116   2.90190   2.93330   2.95713
 Alpha virt. eigenvalues --    2.97160   2.99062   3.03815   3.11785   3.13523
 Alpha virt. eigenvalues --    3.17672   3.19010   3.25668   3.27760   3.30535
 Alpha virt. eigenvalues --    3.32252   3.37293   3.37683   3.38345   3.41337
 Alpha virt. eigenvalues --    3.43922   3.47720   3.48747   3.49429   3.51471
 Alpha virt. eigenvalues --    3.52107   3.52313   3.54417   3.55148   3.56269
 Alpha virt. eigenvalues --    3.58008   3.59899   3.60991   3.62724   3.64738
 Alpha virt. eigenvalues --    3.65884   3.68348   3.70743   3.74208   3.74928
 Alpha virt. eigenvalues --    3.77332   3.77384   3.85547   3.87474   3.94661
 Alpha virt. eigenvalues --    4.03840   4.08484   4.15675   4.19984   4.29283
 Alpha virt. eigenvalues --    4.65784
  Beta  occ. eigenvalues --  -19.27134 -19.26986 -19.26137 -19.23954 -19.22127
  Beta  occ. eigenvalues --  -19.20848 -14.51049 -14.43059 -10.40766 -10.37014
  Beta  occ. eigenvalues --  -10.35990 -10.33152 -10.31420 -10.30854 -10.30251
  Beta  occ. eigenvalues --  -10.29961 -10.27907  -1.13423  -1.12176  -1.09783
  Beta  occ. eigenvalues --   -1.08382  -1.06515  -1.04263  -1.03878  -0.95331
  Beta  occ. eigenvalues --   -0.88044  -0.81918  -0.80183  -0.73096  -0.70143
  Beta  occ. eigenvalues --   -0.69601  -0.66319  -0.62884  -0.61632  -0.61413
  Beta  occ. eigenvalues --   -0.57173  -0.55399  -0.54589  -0.53128  -0.51813
  Beta  occ. eigenvalues --   -0.51506  -0.50930  -0.49589  -0.48920  -0.46845
  Beta  occ. eigenvalues --   -0.45784  -0.44697  -0.43533  -0.42678  -0.41971
  Beta  occ. eigenvalues --   -0.40776  -0.40358  -0.39831  -0.35784  -0.34717
  Beta  occ. eigenvalues --   -0.34187  -0.33282  -0.31682  -0.31033  -0.30806
  Beta  occ. eigenvalues --   -0.28970  -0.28361  -0.26805
  Beta virt. eigenvalues --   -0.22638  -0.06473  -0.03575  -0.02495  -0.01445
  Beta virt. eigenvalues --   -0.00213   0.00732   0.01791   0.02380   0.02746
  Beta virt. eigenvalues --    0.03852   0.04243   0.04581   0.05218   0.05501
  Beta virt. eigenvalues --    0.05655   0.06162   0.06371   0.06567   0.07670
  Beta virt. eigenvalues --    0.08105   0.08475   0.08704   0.08991   0.09496
  Beta virt. eigenvalues --    0.09880   0.10005   0.10137   0.10542   0.11127
  Beta virt. eigenvalues --    0.11249   0.11383   0.12207   0.12290   0.12962
  Beta virt. eigenvalues --    0.13065   0.13569   0.14029   0.14218   0.14451
  Beta virt. eigenvalues --    0.14787   0.15328   0.15568   0.15789   0.16306
  Beta virt. eigenvalues --    0.16496   0.16863   0.17504   0.18072   0.18306
  Beta virt. eigenvalues --    0.18621   0.18861   0.19207   0.19840   0.20284
  Beta virt. eigenvalues --    0.20385   0.20930   0.21397   0.21679   0.22204
  Beta virt. eigenvalues --    0.22410   0.22880   0.23177   0.23776   0.24069
  Beta virt. eigenvalues --    0.24413   0.24747   0.25231   0.25310   0.25551
  Beta virt. eigenvalues --    0.26220   0.26350   0.26597   0.26787   0.26957
  Beta virt. eigenvalues --    0.27480   0.27740   0.28108   0.28323   0.28484
  Beta virt. eigenvalues --    0.28875   0.28930   0.29630   0.30267   0.30594
  Beta virt. eigenvalues --    0.31574   0.31878   0.31986   0.32178   0.32645
  Beta virt. eigenvalues --    0.33351   0.33551   0.33829   0.34344   0.34880
  Beta virt. eigenvalues --    0.34904   0.35501   0.35885   0.36062   0.37108
  Beta virt. eigenvalues --    0.37733   0.37863   0.38267   0.38888   0.39195
  Beta virt. eigenvalues --    0.39365   0.40000   0.40695   0.41267   0.41935
  Beta virt. eigenvalues --    0.42399   0.43126   0.43498   0.43597   0.44153
  Beta virt. eigenvalues --    0.44425   0.45188   0.45817   0.46258   0.47199
  Beta virt. eigenvalues --    0.47437   0.47677   0.48072   0.48368   0.48804
  Beta virt. eigenvalues --    0.50087   0.51285   0.51449   0.51974   0.52502
  Beta virt. eigenvalues --    0.53096   0.53395   0.54255   0.54631   0.54651
  Beta virt. eigenvalues --    0.55342   0.56053   0.56526   0.56860   0.57083
  Beta virt. eigenvalues --    0.58058   0.58668   0.59258   0.59630   0.60510
  Beta virt. eigenvalues --    0.61236   0.61627   0.61816   0.62237   0.62869
  Beta virt. eigenvalues --    0.63851   0.64600   0.65074   0.65297   0.65940
  Beta virt. eigenvalues --    0.66535   0.66656   0.67072   0.67270   0.67878
  Beta virt. eigenvalues --    0.68635   0.68683   0.69346   0.69610   0.69787
  Beta virt. eigenvalues --    0.70998   0.71602   0.72260   0.72660   0.73093
  Beta virt. eigenvalues --    0.73456   0.74150   0.74691   0.75422   0.76449
  Beta virt. eigenvalues --    0.77095   0.78195   0.78295   0.78798   0.79534
  Beta virt. eigenvalues --    0.80387   0.80947   0.81966   0.82169   0.83138
  Beta virt. eigenvalues --    0.83639   0.83827   0.85170   0.85982   0.86064
  Beta virt. eigenvalues --    0.87208   0.88069   0.88281   0.88917   0.90011
  Beta virt. eigenvalues --    0.90821   0.91556   0.91777   0.92736   0.93431
  Beta virt. eigenvalues --    0.94711   0.95438   0.96643   0.97061   0.98213
  Beta virt. eigenvalues --    0.98494   1.00035   1.00871   1.01318   1.01745
  Beta virt. eigenvalues --    1.02732   1.03530   1.03999   1.06413   1.06779
  Beta virt. eigenvalues --    1.07434   1.08254   1.08770   1.10012   1.11129
  Beta virt. eigenvalues --    1.11761   1.12669   1.13467   1.14199   1.14762
  Beta virt. eigenvalues --    1.15347   1.16963   1.17011   1.17713   1.18139
  Beta virt. eigenvalues --    1.19525   1.20783   1.21386   1.21650   1.23888
  Beta virt. eigenvalues --    1.24820   1.25354   1.26238   1.27354   1.28362
  Beta virt. eigenvalues --    1.29565   1.30122   1.31520   1.32098   1.34142
  Beta virt. eigenvalues --    1.34241   1.35844   1.36660   1.36994   1.37829
  Beta virt. eigenvalues --    1.38757   1.39817   1.41240   1.41783   1.42712
  Beta virt. eigenvalues --    1.43660   1.45537   1.46831   1.47604   1.48524
  Beta virt. eigenvalues --    1.50015   1.50144   1.51420   1.51712   1.53283
  Beta virt. eigenvalues --    1.54362   1.55528   1.55951   1.56558   1.57101
  Beta virt. eigenvalues --    1.59309   1.59572   1.60665   1.61246   1.63064
  Beta virt. eigenvalues --    1.64293   1.64911   1.65123   1.66488   1.68579
  Beta virt. eigenvalues --    1.69507   1.70349   1.70906   1.71605   1.72448
  Beta virt. eigenvalues --    1.72942   1.73222   1.75361   1.76485   1.77269
  Beta virt. eigenvalues --    1.77791   1.78357   1.79337   1.79722   1.81760
  Beta virt. eigenvalues --    1.82430   1.84567   1.84983   1.86112   1.86190
  Beta virt. eigenvalues --    1.86961   1.87773   1.90638   1.91212   1.91917
  Beta virt. eigenvalues --    1.92376   1.93984   1.95454   1.95712   1.96679
  Beta virt. eigenvalues --    1.98820   1.99095   2.00101   2.01031   2.01982
  Beta virt. eigenvalues --    2.02950   2.04201   2.05587   2.06042   2.06613
  Beta virt. eigenvalues --    2.07154   2.08731   2.09664   2.09868   2.10339
  Beta virt. eigenvalues --    2.12354   2.12742   2.13513   2.16097   2.17399
  Beta virt. eigenvalues --    2.18094   2.18914   2.22048   2.23243   2.23850
  Beta virt. eigenvalues --    2.24710   2.26667   2.28486   2.28888   2.29749
  Beta virt. eigenvalues --    2.32085   2.33662   2.34177   2.36180   2.37943
  Beta virt. eigenvalues --    2.39231   2.40415   2.41144   2.41393   2.43954
  Beta virt. eigenvalues --    2.44749   2.45344   2.47509   2.48061   2.49470
  Beta virt. eigenvalues --    2.51535   2.51962   2.52617   2.53687   2.55600
  Beta virt. eigenvalues --    2.57710   2.59573   2.60857   2.62337   2.63489
  Beta virt. eigenvalues --    2.66745   2.67950   2.69105   2.71692   2.72021
  Beta virt. eigenvalues --    2.76075   2.77842   2.79148   2.80176   2.82177
  Beta virt. eigenvalues --    2.85524   2.88075   2.89203   2.90300   2.93731
  Beta virt. eigenvalues --    2.95945   2.97286   2.99471   3.04106   3.11876
  Beta virt. eigenvalues --    3.13786   3.17821   3.19144   3.25923   3.28275
  Beta virt. eigenvalues --    3.32097   3.33510   3.38228   3.39799   3.40119
  Beta virt. eigenvalues --    3.41819   3.43971   3.47853   3.48940   3.49501
  Beta virt. eigenvalues --    3.51550   3.52278   3.52918   3.54524   3.55292
  Beta virt. eigenvalues --    3.56448   3.58181   3.60176   3.61211   3.62962
  Beta virt. eigenvalues --    3.64968   3.66119   3.68595   3.70996   3.74399
  Beta virt. eigenvalues --    3.75275   3.77546   3.78337   3.85771   3.87803
  Beta virt. eigenvalues --    3.94952   4.04018   4.08580   4.15709   4.20056
  Beta virt. eigenvalues --    4.29361   4.65873
          Condensed to atoms (all electrons):
               1          2          3          4          5          6
     1  C    9.078383  -2.343478   0.264976   0.132355   0.085784   0.186866
     2  C   -2.343478   8.812940  -1.632747  -0.424974  -0.568126  -0.067222
     3  C    0.264976  -1.632747  18.893309   0.117563  -0.385279  -0.848822
     4  O    0.132355  -0.424974   0.117563   8.563920  -0.132314  -0.003914
     5  H    0.085784  -0.568126  -0.385279  -0.132314   2.396667   0.064672
     6  O    0.186866  -0.067222  -0.848822  -0.003914   0.064672   9.446540
     7  H   -0.255006   0.475408  -1.930961  -0.020212   0.153795   0.068540
     8  C    0.269677  -0.097509  -3.873737   0.031338   0.081767   0.135959
     9  C   -1.249833   0.714129  -3.815691   0.041233  -0.024165   0.036482
    10  H   -0.911024   0.488686   0.278623  -0.001069  -0.106223  -0.010581
    11  O   -0.493926   0.203462  -0.261856  -0.015327  -0.005362   0.026702
    12  C   -0.092340  -0.005527   0.371206  -0.017208   0.043095   0.014153
    13  H    0.045653   0.106817   0.644843  -0.003419  -0.002052  -0.314051
    14  O   -0.047562  -0.014407  -0.096556   0.002350  -0.011602  -0.024687
    15  H    0.078643  -0.014361  -0.025456  -0.001251   0.021015   0.110593
    16  H    0.005409  -0.021698   0.017299   0.000365  -0.006979  -0.036899
    17  H    0.143921  -0.188294   0.050670   0.047522   0.027418   0.005184
    18  H   -0.016434   0.032202  -0.097599   0.355920  -0.047290  -0.000882
    19  H    0.031364  -0.017358   0.012129   0.001817  -0.005056   0.017977
    20  C   -0.063871  -0.147769  -1.779304   0.015222  -0.046674   0.013263
    21  N    0.013622  -0.017579   0.181747  -0.003035   0.003785  -0.020699
    22  C    0.006094   0.004221  -0.365856   0.003413  -0.006168   0.002622
    23  N    0.022985  -0.016121   0.356320  -0.000135   0.014766  -0.011576
    24  C   -0.114563   0.018680  -1.256171  -0.008313  -0.071638   0.049950
    25  H   -0.019113   0.097677   0.077661  -0.004334   0.016697   0.030248
    26  H   -0.000760  -0.003154  -0.018848  -0.000178  -0.000739  -0.000975
    27  O   -0.000597  -0.000223   0.022555  -0.000051   0.000889   0.000155
    28  O    0.077529  -0.051071   0.067031  -0.003972   0.074910  -0.008409
               7          8          9         10         11         12
     1  C   -0.255006   0.269677  -1.249833  -0.911024  -0.493926  -0.092340
     2  C    0.475408  -0.097509   0.714129   0.488686   0.203462  -0.005527
     3  C   -1.930961  -3.873737  -3.815691   0.278623  -0.261856   0.371206
     4  O   -0.020212   0.031338   0.041233  -0.001069  -0.015327  -0.017208
     5  H    0.153795   0.081767  -0.024165  -0.106223  -0.005362   0.043095
     6  O    0.068540   0.135959   0.036482  -0.010581   0.026702   0.014153
     7  H    2.789695   0.120096   0.251988   0.002490   0.034330  -0.005166
     8  C    0.120096  13.081117   0.667589  -0.078981   0.063203  -0.115579
     9  C    0.251988   0.667589   9.858903  -0.152771   0.309227  -0.384454
    10  H    0.002490  -0.078981  -0.152771   1.909337  -0.095140  -0.071987
    11  O    0.034330   0.063203   0.309227  -0.095140   8.734230  -0.021894
    12  C   -0.005166  -0.115579  -0.384454  -0.071987  -0.021894   4.985198
    13  H    0.008572  -0.190144  -0.818199   0.065986  -0.063873  -0.059543
    14  O    0.006027   0.060030   0.109904   0.050927   0.003092   0.020092
    15  H   -0.007684   0.010754  -0.246955  -0.047998   0.006190   0.304539
    16  H    0.009002   0.009259   0.173024   0.027592  -0.001519   0.059960
    17  H    0.002299  -0.001001  -0.096317  -0.019718   0.279362   0.012122
    18  H    0.001152   0.023315   0.005497   0.000715   0.004396  -0.001300
    19  H   -0.003283  -0.006489  -0.062255  -0.016976  -0.000264  -0.009648
    20  C    0.147764  -3.325883   0.109428   0.011027   0.000651  -0.069232
    21  N   -0.006654   0.181546  -0.035917  -0.000075  -0.000176   0.008045
    22  C    0.011808   0.231302   0.009352   0.001097   0.000204  -0.006552
    23  N    0.009783   0.206468   0.052675   0.000377  -0.000545  -0.020833
    24  C   -0.116428  -2.960580  -0.234330   0.021657   0.001449   0.047130
    25  H   -0.056041   0.320494   0.018205  -0.001540   0.001909   0.001299
    26  H    0.000082   0.049714  -0.001542   0.000091  -0.000035  -0.000000
    27  O    0.000261   0.058802   0.000158  -0.000075   0.000002   0.000206
    28  O    0.004900  -0.048283  -0.015596  -0.008539  -0.001215  -0.007149
              13         14         15         16         17         18
     1  C    0.045653  -0.047562   0.078643   0.005409   0.143921  -0.016434
     2  C    0.106817  -0.014407  -0.014361  -0.021698  -0.188294   0.032202
     3  C    0.644843  -0.096556  -0.025456   0.017299   0.050670  -0.097599
     4  O   -0.003419   0.002350  -0.001251   0.000365   0.047522   0.355920
     5  H   -0.002052  -0.011602   0.021015  -0.006979   0.027418  -0.047290
     6  O   -0.314051  -0.024687   0.110593  -0.036899   0.005184  -0.000882
     7  H    0.008572   0.006027  -0.007684   0.009002   0.002299   0.001152
     8  C   -0.190144   0.060030   0.010754   0.009259  -0.001001   0.023315
     9  C   -0.818199   0.109904  -0.246955   0.173024  -0.096317   0.005497
    10  H    0.065986   0.050927  -0.047998   0.027592  -0.019718   0.000715
    11  O   -0.063873   0.003092   0.006190  -0.001519   0.279362   0.004396
    12  C   -0.059543   0.020092   0.304539   0.059960   0.012122  -0.001300
    13  H    2.077024   0.028947  -0.141371   0.008809  -0.008570   0.000274
    14  O    0.028947   8.539071  -0.188704  -0.045473  -0.001669  -0.000287
    15  H   -0.141371  -0.188704   1.770146  -0.358894   0.004554  -0.000850
    16  H    0.008809  -0.045473  -0.358894   1.428180  -0.000908   0.000087
    17  H   -0.008570  -0.001669   0.004554  -0.000908   0.587050  -0.008588
    18  H    0.000274  -0.000287  -0.000850   0.000087  -0.008588   0.585455
    19  H    0.007378   0.159818   0.016863  -0.047214   0.000649   0.000977
    20  C    0.021445   0.010307  -0.009544  -0.000023  -0.006630   0.046241
    21  N   -0.002112  -0.000239   0.000368   0.000609   0.000475  -0.007972
    22  C    0.000266   0.001650  -0.001052   0.001310  -0.000018   0.001925
    23  N    0.001101  -0.008934  -0.001208   0.000353  -0.000359  -0.001526
    24  C    0.017228   0.023877  -0.006896   0.012146   0.002200  -0.003607
    25  H   -0.001139   0.000098   0.000675  -0.000508   0.000346  -0.005933
    26  H    0.000100   0.000063  -0.000076   0.000127  -0.000058  -0.000080
    27  O   -0.000016  -0.000032   0.000022   0.000014   0.000003  -0.000147
    28  O   -0.000934  -0.066555  -0.000150   0.004116   0.000693  -0.002097
              19         20         21         22         23         24
     1  C    0.031364  -0.063871   0.013622   0.006094   0.022985  -0.114563
     2  C   -0.017358  -0.147769  -0.017579   0.004221  -0.016121   0.018680
     3  C    0.012129  -1.779304   0.181747  -0.365856   0.356320  -1.256171
     4  O    0.001817   0.015222  -0.003035   0.003413  -0.000135  -0.008313
     5  H   -0.005056  -0.046674   0.003785  -0.006168   0.014766  -0.071638
     6  O    0.017977   0.013263  -0.020699   0.002622  -0.011576   0.049950
     7  H   -0.003283   0.147764  -0.006654   0.011808   0.009783  -0.116428
     8  C   -0.006489  -3.325883   0.181546   0.231302   0.206468  -2.960580
     9  C   -0.062255   0.109428  -0.035917   0.009352   0.052675  -0.234330
    10  H   -0.016976   0.011027  -0.000075   0.001097   0.000377   0.021657
    11  O   -0.000264   0.000651  -0.000176   0.000204  -0.000545   0.001449
    12  C   -0.009648  -0.069232   0.008045  -0.006552  -0.020833   0.047130
    13  H    0.007378   0.021445  -0.002112   0.000266   0.001101   0.017228
    14  O    0.159818   0.010307  -0.000239   0.001650  -0.008934   0.023877
    15  H    0.016863  -0.009544   0.000368  -0.001052  -0.001208  -0.006896
    16  H   -0.047214  -0.000023   0.000609   0.001310   0.000353   0.012146
    17  H    0.000649  -0.006630   0.000475  -0.000018  -0.000359   0.002200
    18  H    0.000977   0.046241  -0.007972   0.001925  -0.001526  -0.003607
    19  H    0.568080   0.026663  -0.003133   0.000753  -0.001392  -0.006448
    20  C    0.026663  13.255526  -0.791896  -0.177361  -0.084686  -0.937746
    21  N   -0.003133  -0.791896   7.447967  -0.102610   0.011167   0.159132
    22  C    0.000753  -0.177361  -0.102610   6.212248   0.071201  -0.603852
    23  N   -0.001392  -0.084686   0.011167   0.071201   8.307561  -1.048023
    24  C   -0.006448  -0.937746   0.159132  -0.603852  -1.048023  12.687329
    25  H   -0.001839  -1.014085   0.173620   0.008995  -0.003418   0.006333
    26  H   -0.000318  -0.241965   0.461070  -0.177953   0.008166  -0.023653
    27  O    0.000143  -0.016836  -0.123227   0.057261  -0.090936   0.070802
    28  O    0.013274  -0.118160   0.011990   0.055681  -0.202372   0.061554
              25         26         27         28
     1  C   -0.019113  -0.000760  -0.000597   0.077529
     2  C    0.097677  -0.003154  -0.000223  -0.051071
     3  C    0.077661  -0.018848   0.022555   0.067031
     4  O   -0.004334  -0.000178  -0.000051  -0.003972
     5  H    0.016697  -0.000739   0.000889   0.074910
     6  O    0.030248  -0.000975   0.000155  -0.008409
     7  H   -0.056041   0.000082   0.000261   0.004900
     8  C    0.320494   0.049714   0.058802  -0.048283
     9  C    0.018205  -0.001542   0.000158  -0.015596
    10  H   -0.001540   0.000091  -0.000075  -0.008539
    11  O    0.001909  -0.000035   0.000002  -0.001215
    12  C    0.001299  -0.000000   0.000206  -0.007149
    13  H   -0.001139   0.000100  -0.000016  -0.000934
    14  O    0.000098   0.000063  -0.000032  -0.066555
    15  H    0.000675  -0.000076   0.000022  -0.000150
    16  H   -0.000508   0.000127   0.000014   0.004116
    17  H    0.000346  -0.000058   0.000003   0.000693
    18  H   -0.005933  -0.000080  -0.000147  -0.002097
    19  H   -0.001839  -0.000318   0.000143   0.013274
    20  C   -1.014085  -0.241965  -0.016836  -0.118160
    21  N    0.173620   0.461070  -0.123227   0.011990
    22  C    0.008995  -0.177953   0.057261   0.055681
    23  N   -0.003418   0.008166  -0.090936  -0.202372
    24  C    0.006333  -0.023653   0.070802   0.061554
    25  H    2.072497  -0.052943   0.002106  -0.002181
    26  H   -0.052943   1.080769  -0.009133   0.002430
    27  O    0.002106  -0.009133   8.580716  -0.007988
    28  O   -0.002181   0.002430  -0.007988   9.038962
          Atomic-Atomic Spin Densities.
               1          2          3          4          5          6
     1  C    0.053396  -0.004136  -0.055329  -0.004740   0.004599   0.015930
     2  C   -0.004136   0.029308   0.034386  -0.002381  -0.000407  -0.011619
     3  C   -0.055329   0.034386   0.274259   0.007415  -0.014839  -0.075624
     4  O   -0.004740  -0.002381   0.007415   0.003250  -0.001592  -0.000697
     5  H    0.004599  -0.000407  -0.014839  -0.001592  -0.000561   0.003282
     6  O    0.015930  -0.011619  -0.075624  -0.000697   0.003282   0.128279
     7  H    0.003211  -0.008702  -0.076708   0.000418  -0.000245   0.005879
     8  C    0.013001   0.003318  -0.134386  -0.001738   0.003430   0.013582
     9  C   -0.045409  -0.008751   0.049495   0.002975  -0.004292  -0.029408
    10  H   -0.007725   0.002851   0.001416   0.000369  -0.000146   0.000031
    11  O   -0.008948   0.000110   0.008059   0.000308  -0.000324  -0.000577
    12  C    0.003625   0.000354  -0.006491  -0.000476   0.000198   0.000713
    13  H    0.014485  -0.002518  -0.004849   0.000016  -0.000476   0.001308
    14  O    0.002942   0.000611  -0.003920  -0.000260   0.001230   0.002035
    15  H    0.000988   0.000003  -0.000812  -0.000026  -0.000015   0.000060
    16  H    0.001044   0.000106  -0.001770  -0.000002  -0.000093   0.001685
    17  H    0.002246   0.000450  -0.002657  -0.000251   0.000080   0.000274
    18  H    0.000903  -0.000143  -0.005508  -0.000858   0.000863   0.000082
    19  H    0.002724  -0.000158  -0.008568  -0.000179   0.000313   0.002388
    20  C    0.007562  -0.000358  -0.043981  -0.001247   0.000260   0.010058
    21  N   -0.000701  -0.000474   0.016757   0.000195   0.000240  -0.000628
    22  C   -0.000605   0.001948   0.006275  -0.000105   0.000690   0.001270
    23  N   -0.000731  -0.001193   0.001651   0.000106  -0.000622   0.001046
    24  C    0.005778  -0.002835  -0.004627   0.000542   0.010302   0.008159
    25  H    0.003230  -0.001428  -0.016246   0.000040  -0.000201   0.001471
    26  H   -0.000014   0.000086  -0.000193  -0.000010   0.000065   0.000018
    27  O    0.000042   0.000315  -0.001159  -0.000008  -0.000093  -0.000073
    28  O   -0.002420   0.002802   0.004173  -0.000015  -0.002377  -0.004335
               7          8          9         10         11         12
     1  C    0.003211   0.013001  -0.045409  -0.007725  -0.008948   0.003625
     2  C   -0.008702   0.003318  -0.008751   0.002851   0.000110   0.000354
     3  C   -0.076708  -0.134386   0.049495   0.001416   0.008059  -0.006491
     4  O    0.000418  -0.001738   0.002975   0.000369   0.000308  -0.000476
     5  H   -0.000245   0.003430  -0.004292  -0.000146  -0.000324   0.000198
     6  O    0.005879   0.013582  -0.029408   0.000031  -0.000577   0.000713
     7  H    0.041815   0.032072  -0.001029   0.000248  -0.002167   0.000429
     8  C    0.032072   0.163123   0.000055  -0.000726  -0.002086   0.001334
     9  C   -0.001029   0.000055   0.050195   0.004252   0.005127  -0.000679
    10  H    0.000248  -0.000726   0.004252   0.004143   0.000514  -0.001032
    11  O   -0.002167  -0.002086   0.005127   0.000514   0.010353  -0.000592
    12  C    0.000429   0.001334  -0.000679  -0.001032  -0.000592   0.012601
    13  H   -0.000870   0.001612  -0.018081  -0.000200  -0.001756  -0.001090
    14  O   -0.000039   0.000374  -0.001748  -0.000760  -0.000152  -0.005600
    15  H   -0.000067   0.000135  -0.000880  -0.000150  -0.000054   0.001156
    16  H   -0.000229  -0.000222  -0.001902  -0.000004  -0.000030   0.000080
    17  H    0.000278   0.000494  -0.000982  -0.000190  -0.000506   0.000130
    18  H    0.000980   0.003486  -0.000500   0.000038  -0.000074   0.000094
    19  H   -0.000033   0.001989  -0.002459  -0.000168  -0.000119   0.001144
    20  C    0.017383   0.140913  -0.001999   0.000150  -0.000374  -0.000640
    21  N   -0.000624  -0.006755   0.000414  -0.000023   0.000036   0.000048
    22  C    0.000390  -0.020481   0.000951  -0.000073   0.000008   0.000316
    23  N   -0.000229  -0.025171  -0.000824  -0.000031   0.000015   0.000602
    24  C    0.005389   0.067111   0.000215  -0.000254  -0.000373   0.001230
    25  H    0.003291   0.007464  -0.001389   0.000044  -0.000323   0.000261
    26  H    0.000197   0.004994  -0.000039  -0.000003  -0.000002   0.000004
    27  O   -0.000108   0.003036  -0.000006   0.000003  -0.000001  -0.000017
    28  O   -0.000163   0.002005   0.002726   0.000104   0.000077  -0.000382
              13         14         15         16         17         18
     1  C    0.014485   0.002942   0.000988   0.001044   0.002246   0.000903
     2  C   -0.002518   0.000611   0.000003   0.000106   0.000450  -0.000143
     3  C   -0.004849  -0.003920  -0.000812  -0.001770  -0.002657  -0.005508
     4  O    0.000016  -0.000260  -0.000026  -0.000002  -0.000251  -0.000858
     5  H   -0.000476   0.001230  -0.000015  -0.000093   0.000080   0.000863
     6  O    0.001308   0.002035   0.000060   0.001685   0.000274   0.000082
     7  H   -0.000870  -0.000039  -0.000067  -0.000229   0.000278   0.000980
     8  C    0.001612   0.000374   0.000135  -0.000222   0.000494   0.003486
     9  C   -0.018081  -0.001748  -0.000880  -0.001902  -0.000982  -0.000500
    10  H   -0.000200  -0.000760  -0.000150  -0.000004  -0.000190   0.000038
    11  O   -0.001756  -0.000152  -0.000054  -0.000030  -0.000506  -0.000074
    12  C   -0.001090  -0.005600   0.001156   0.000080   0.000130   0.000094
    13  H    0.021740   0.000087   0.000516   0.000650   0.000251  -0.000085
    14  O    0.000087   0.031054   0.000175  -0.000434   0.000051   0.000011
    15  H    0.000516   0.000175  -0.001224  -0.000075   0.000022   0.000003
    16  H    0.000650  -0.000434  -0.000075   0.001902   0.000010  -0.000003
    17  H    0.000251   0.000051   0.000022   0.000010  -0.000324   0.000065
    18  H   -0.000085   0.000011   0.000003  -0.000003   0.000065   0.001106
    19  H    0.000381  -0.000041   0.000020   0.000361   0.000044   0.000001
    20  C    0.000047   0.000408  -0.000037   0.000084   0.000286   0.001345
    21  N    0.000010  -0.000046   0.000005  -0.000011  -0.000051  -0.000251
    22  C    0.000026  -0.000050   0.000035  -0.000015  -0.000005   0.000068
    23  N   -0.000045  -0.000232   0.000022   0.000071  -0.000019  -0.000085
    24  C    0.000615   0.001150   0.000172   0.000259   0.000061   0.000655
    25  H    0.000138   0.000076   0.000017   0.000027   0.000100   0.000345
    26  H   -0.000001  -0.000001   0.000000   0.000000   0.000000  -0.000007
    27  O    0.000002   0.000003  -0.000001   0.000000   0.000003  -0.000001
    28  O   -0.000083  -0.000175  -0.000040  -0.000190  -0.000019   0.000051
              19         20         21         22         23         24
     1  C    0.002724   0.007562  -0.000701  -0.000605  -0.000731   0.005778
     2  C   -0.000158  -0.000358  -0.000474   0.001948  -0.001193  -0.002835
     3  C   -0.008568  -0.043981   0.016757   0.006275   0.001651  -0.004627
     4  O   -0.000179  -0.001247   0.000195  -0.000105   0.000106   0.000542
     5  H    0.000313   0.000260   0.000240   0.000690  -0.000622   0.010302
     6  O    0.002388   0.010058  -0.000628   0.001270   0.001046   0.008159
     7  H   -0.000033   0.017383  -0.000624   0.000390  -0.000229   0.005389
     8  C    0.001989   0.140913  -0.006755  -0.020481  -0.025171   0.067111
     9  C   -0.002459  -0.001999   0.000414   0.000951  -0.000824   0.000215
    10  H   -0.000168   0.000150  -0.000023  -0.000073  -0.000031  -0.000254
    11  O   -0.000119  -0.000374   0.000036   0.000008   0.000015  -0.000373
    12  C    0.001144  -0.000640   0.000048   0.000316   0.000602   0.001230
    13  H    0.000381   0.000047   0.000010   0.000026  -0.000045   0.000615
    14  O   -0.000041   0.000408  -0.000046  -0.000050  -0.000232   0.001150
    15  H    0.000020  -0.000037   0.000005   0.000035   0.000022   0.000172
    16  H    0.000361   0.000084  -0.000011  -0.000015   0.000071   0.000259
    17  H    0.000044   0.000286  -0.000051  -0.000005  -0.000019   0.000061
    18  H    0.000001   0.001345  -0.000251   0.000068  -0.000085   0.000655
    19  H   -0.000856   0.000525  -0.000115   0.000158  -0.000069   0.001319
    20  C    0.000525  -0.215939  -0.045366   0.032175   0.006173   0.074423
    21  N   -0.000115  -0.045366   0.144179   0.024447   0.004737  -0.011391
    22  C    0.000158   0.032175   0.024447  -0.224870   0.023031   0.032488
    23  N   -0.000069   0.006173   0.004737   0.023031   0.293132  -0.004622
    24  C    0.001319   0.074423  -0.011391   0.032488  -0.004622  -0.248011
    25  H    0.000140  -0.007185   0.003229   0.001249   0.000583  -0.002441
    26  H   -0.000006  -0.010990   0.006563   0.000768   0.000080   0.003039
    27  O   -0.000015  -0.002857  -0.013110  -0.012227  -0.014104  -0.004840
    28  O   -0.001254   0.009964  -0.000908  -0.001630   0.000930  -0.004690
              25         26         27         28
     1  C    0.003230  -0.000014   0.000042  -0.002420
     2  C   -0.001428   0.000086   0.000315   0.002802
     3  C   -0.016246  -0.000193  -0.001159   0.004173
     4  O    0.000040  -0.000010  -0.000008  -0.000015
     5  H   -0.000201   0.000065  -0.000093  -0.002377
     6  O    0.001471   0.000018  -0.000073  -0.004335
     7  H    0.003291   0.000197  -0.000108  -0.000163
     8  C    0.007464   0.004994   0.003036   0.002005
     9  C   -0.001389  -0.000039  -0.000006   0.002726
    10  H    0.000044  -0.000003   0.000003   0.000104
    11  O   -0.000323  -0.000002  -0.000001   0.000077
    12  C    0.000261   0.000004  -0.000017  -0.000382
    13  H    0.000138  -0.000001   0.000002  -0.000083
    14  O    0.000076  -0.000001   0.000003  -0.000175
    15  H    0.000017   0.000000  -0.000001  -0.000040
    16  H    0.000027   0.000000   0.000000  -0.000190
    17  H    0.000100   0.000000   0.000003  -0.000019
    18  H    0.000345  -0.000007  -0.000001   0.000051
    19  H    0.000140  -0.000006  -0.000015  -0.001254
    20  C   -0.007185  -0.010990  -0.002857   0.009964
    21  N    0.003229   0.006563  -0.013110  -0.000908
    22  C    0.001249   0.000768  -0.012227  -0.001630
    23  N    0.000583   0.000080  -0.014104   0.000930
    24  C   -0.002441   0.003039  -0.004840  -0.004690
    25  H    0.005895  -0.001186   0.000268   0.000366
    26  H   -0.001186  -0.009332  -0.002136   0.000025
    27  O    0.000268  -0.002136   0.434193   0.000108
    28  O    0.000366   0.000025   0.000108   0.045679
 Mulliken charges and spin densities:
               1          2
     1  C    1.165243   0.004949
     2  C    0.677395   0.031544
     3  C    1.032949  -0.053779
     4  O   -0.673313   0.001049
     5  H   -0.565593  -0.000731
     6  O   -0.861190   0.074587
     7  H   -0.696557   0.020768
     8  C    1.095757   0.271964
     9  C    0.780230  -0.003973
    10  H   -0.335906   0.002678
    11  O   -0.707274   0.006151
    12  C    1.021365   0.007320
    13  H   -0.429021   0.011829
    14  O   -0.509547   0.026750
    15  H   -0.271912  -0.000048
    16  H   -0.237546   0.001299
    17  H    0.167662  -0.000158
    18  H    0.136437   0.002579
    19  H    0.323788  -0.002532
    20  C    1.174128  -0.029216
    21  N   -0.539818   0.120406
    22  C    0.760021  -0.133766
    23  N   -0.570859   0.284203
    24  C    0.212781  -0.071178
    25  H   -0.665786  -0.002164
    26  H   -0.070201  -0.008079
    27  O   -0.544833   0.387218
    28  O   -0.868399   0.050328
 Sum of Mulliken charges =  -0.00000   1.00000
 Mulliken charges and spin densities with hydrogens summed into heavy atoms:
               1          2
     1  C    0.829337   0.007627
     2  C    0.111802   0.030814
     3  C    0.336392  -0.033011
     4  O   -0.536876   0.003629
     6  O   -0.861190   0.074587
     8  C    1.095757   0.271964
     9  C    0.351209   0.007856
    11  O   -0.539613   0.005993
    12  C    0.511906   0.008572
    14  O   -0.185759   0.024219
    20  C    0.508341  -0.031380
    21  N   -0.610019   0.112326
    22  C    0.760021  -0.133766
    23  N   -0.570859   0.284203
    24  C    0.212781  -0.071178
    27  O   -0.544833   0.387218
    28  O   -0.868399   0.050328
 Electronic spatial extent (au):  <R**2>=           4094.8927
 Charge=             -0.0000 electrons
 Dipole moment (field-independent basis, Debye):
    X=              1.0251    Y=             -6.9339    Z=             -2.7838  Tot=              7.5419
 Quadrupole moment (field-independent basis, Debye-Ang):
   XX=           -110.0772   YY=           -100.7210   ZZ=            -98.9216
   XY=            -18.0200   XZ=             -5.4730   YZ=             -3.7062
 Traceless Quadrupole moment (field-independent basis, Debye-Ang):
   XX=             -6.8373   YY=              2.5189   ZZ=              4.3183
   XY=            -18.0200   XZ=             -5.4730   YZ=             -3.7062
 Octapole moment (field-independent basis, Debye-Ang**2):
  XXX=            -73.5274  YYY=            -45.9175  ZZZ=              2.9360  XYY=             22.5954
  XXY=            -30.5256  XXZ=            -29.5802  XZZ=              6.7057  YZZ=             -7.6347
  YYZ=            -18.2426  XYZ=             12.5875
 Hexadecapole moment (field-independent basis, Debye-Ang**3):
 XXXX=          -4192.7916 YYYY=          -1059.1759 ZZZZ=           -434.9005 XXXY=           -261.2332
 XXXZ=           -110.5190 YYYX=            -13.4820 YYYZ=            -26.6814 ZZZX=              2.1768
 ZZZY=              1.1722 XXYY=           -786.4030 XXZZ=           -665.1216 YYZZ=           -246.7130
 XXYZ=            -19.3795 YYXZ=            -13.2568 ZZXY=            -18.8699
 N-N= 1.310643607036D+03 E-N=-4.751081549007D+03  KE= 9.045929689581D+02
                          Isotropic Fermi Contact Couplings
        Atom                 a.u.       MegaHertz       Gauss      10(-4) cm-1
     1  C(13)             -0.00144      -1.61695      -0.57697      -0.53936
     2  C(13)              0.00773       8.68475       3.09893       2.89692
     3  C(13)             -0.00652      -7.32780      -2.61474      -2.44429
     4  O(17)              0.00227      -1.37397      -0.49027      -0.45831
     5  H(1)              -0.00008      -0.37467      -0.13369      -0.12498
     6  O(17)              0.02620     -15.88141      -5.66688      -5.29747
     7  H(1)               0.00630      28.15940      10.04797       9.39296
     8  C(13)              0.02134      23.98623       8.55888       8.00095
     9  C(13)             -0.00271      -3.04384      -1.08612      -1.01532
    10  H(1)               0.00156       6.98886       2.49380       2.33123
    11  O(17)              0.00196      -1.19065      -0.42485      -0.39716
    12  C(13)             -0.00051      -0.57332      -0.20457      -0.19124
    13  H(1)               0.00452      20.20892       7.21104       6.74097
    14  O(17)              0.00498      -3.02069      -1.07786      -1.00759
    15  H(1)               0.00015       0.67654       0.24141       0.22567
    16  H(1)               0.00066       2.93217       1.04627       0.97807
    17  H(1)              -0.00013      -0.58380      -0.20831      -0.19473
    18  H(1)               0.00019       0.87137       0.31093       0.29066
    19  H(1)              -0.00046      -2.03984      -0.72786      -0.68042
[...]
 3,0.00036862,0.00091963,0.00207703,0.00017586,-0.00084799,-0.00055491,
 0.00006239,0.00930861,-0.01772393,-0.01037072,-0.00010223,-0.00058579,
 -0.00086934,0.00014467,-0.00001379,-0.00001107,-0.00004226,-0.00011920
 ,0.00013196,0.00003336,-0.00017870,-0.00017451,-0.00016604,-0.00001359
 ,0.00028479,0.00045633,-0.00000128,0.00015890,0.00003080,-0.00001109,0
 .00002708,0.00000617,0.00002547,0.00003856,-0.00008886,0.00003368,-0.0
 0005563,-0.00016796,-0.00001245,0.00004501,-0.00081270,0.00027366,-0.0
 0008160,-0.07819134,0.00176445,0.00529751,0.02377024,-0.14716873,-0.08
 974220,0.06790249,0.38765615,0.00000539,0.00032525,0.00066223,0.002370
 77,0.00115101,-0.00193957,-0.00159590,-0.00213241,-0.00487904,0.000306
 84,-0.00032880,0.00052811,-0.00056849,-0.00025293,0.00055256,-0.002075
 58,0.00335549,-0.00065225,-0.00001541,-0.00067885,0.00040868,0.0131591
 0,-0.02115841,-0.01460688,0.00073917,-0.00118451,-0.00204546,-0.000154
 50,-0.00001822,-0.00010581,-0.00032704,-0.00027791,0.00006147,-0.00024
 404,-0.00079092,-0.00057662,-0.00062204,0.00004951,0.00047826,0.000936
 13,0.00062902,0.00055122,0.00002739,0.00010009,0.00010418,0.00001386,0
 .00007387,0.00003326,0.00009254,0.00011281,-0.00006632,-0.00015719,-0.
 00011597,-0.00009484,-0.00133484,-0.00016089,-0.00027233,-0.08212131,0
 .00855109,0.00444467,0.02655437,-0.06711135,-0.12557109,0.04390956,0.1
 5892408,0.32582767,0.00021344,0.00036094,-0.00064499,-0.00071947,0.000
 56100,0.00203226,-0.00164666,-0.00064634,0.00201702,0.00003429,-0.0006
 8397,-0.00012642,0.00023763,0.00030260,-0.00052390,0.00283162,-0.00326
 107,-0.00016535,-0.00003772,-0.00015593,-0.00014407,-0.01672342,-0.028
 67555,-0.03227328,-0.00066201,0.00090975,0.00136636,0.00023951,0.00001
 076,0.00003949,0.00008343,-0.00037172,-0.00009539,0.00120796,0.0008307
 1,0.00186733,0.00029497,-0.00023191,-0.00025327,-0.00424223,-0.0005403
 6,-0.00090244,-0.00036710,-0.00016116,-0.00029430,0.00002702,-0.000073
 67,-0.00024516,-0.00006589,0.00001492,0.00004819,0.00001832,0.00019222
 ,-0.00004739,0.00692544,-0.00115296,-0.00006323,-0.02041482,0.00024038
 ,-0.00211409,0.00308610,0.01303962,0.02628895,-0.06144819,0.10169189,0
 .06803794,0.45867300,0.00000916,-0.00020249,0.00079185,-0.00127380,-0.
 00113319,-0.00125618,-0.00367406,0.00344411,0.00337207,-0.00015032,0.0
 0053016,-0.00022171,0.00017902,-0.00000917,-0.00002725,0.00003312,-0.0
 0089414,0.00071806,0.00165605,0.00018548,0.00001903,-0.00673000,-0.006
 68519,-0.01263480,-0.00032756,0.00002795,0.00003137,-0.00016110,0.0000
 3192,-0.00009556,0.00018844,0.00026802,-0.00008016,-0.00054499,-0.0003
 1929,-0.00100615,0.00009875,0.00015359,0.00002711,0.00235300,0.0000820
 9,0.00048027,0.00022283,0.00005277,0.00014943,-0.00002105,0.00002494,0
 .00015406,0.00000772,-0.00006712,0.00003399,0.00013049,-0.00015809,0.0
 0006320,-0.00349843,0.00082646,-0.00020885,0.01536733,-0.00118519,-0.0
 0351566,-0.00304583,-0.02846157,-0.03235940,0.08313335,-0.10350115,-0.
 05539616,-0.14564438,0.15571935,0.00013074,-0.00022151,-0.00027649,-0.
 00209479,-0.00083762,0.00160909,-0.00157869,0.00186730,0.00454951,-0.0
 0013281,0.00002470,-0.00044763,0.00051360,0.00019801,-0.00075429,0.002
 98875,-0.00411098,0.00100986,0.00039817,0.00049584,-0.00078737,-0.0169
 8265,-0.01503915,-0.00118769,-0.00093731,0.00121590,0.00196056,0.00015
 677,0.00003001,-0.00001813,0.00036109,0.00016264,-0.00013929,0.0002378
 9,0.00089999,0.00079804,0.00065303,-0.00002784,-0.00043717,-0.00116221
 ,-0.00054166,-0.00093248,-0.00006029,-0.00014115,-0.00017614,-0.000035
 29,-0.00005363,-0.00008505,-0.00010737,-0.00011982,0.00006532,0.000036
 06,0.00003751,0.00007494,0.00175505,-0.00040493,0.00099627,0.02177107,
 -0.00229214,-0.00294245,-0.00322573,-0.03956708,-0.01820701,0.02964320
 ,-0.04592764,-0.10463082,-0.02487020,0.08615123,0.16271209,-0.00060726
 ,-0.00012811,0.00267994,0.00195641,-0.00162349,-0.00829949,-0.00635399
 ,-0.03307440,-0.01482241,0.00076470,0.00136307,0.00103461,-0.00254239,
 -0.00074841,0.00316191,-0.00341603,0.00975411,0.00002873,-0.00522306,-
 0.00097720,0.00073224,-0.10447702,-0.03400428,-0.00608107,0.00124397,-
 0.00204346,-0.00390568,-0.00081608,0.00009536,-0.00031599,-0.00047767,
 0.00065751,0.00064831,-0.00249520,-0.00209677,-0.00313861,-0.00084032,
 0.00029327,0.00084977,0.00567851,0.00095396,0.00179935,0.00050767,0.00
 032781,0.00040329,-0.00003925,0.00020272,0.00036382,0.00027699,0.00008
 386,-0.00030721,-0.00033226,-0.00055152,0.00007572,-0.00889256,0.00323
 288,0.00033015,0.01101659,0.02928889,0.01159073,-0.00436791,-0.0078865
 0,-0.00508318,-0.02281975,0.02030946,-0.00404119,-0.17755629,0.0058128
 4,-0.02955343,0.56712156,0.00104935,0.00062446,-0.00172710,0.00300473,
 0.00410217,0.00195590,-0.01139819,-0.00798979,-0.01556587,0.00126346,-
 0.00296207,0.00077914,0.00020418,0.00088294,-0.00102586,0.00175051,-0.
 00348696,-0.00194043,-0.00261455,-0.00028691,-0.00009622,-0.06345286,-
 0.12987253,-0.03900669,0.00014792,0.00038074,0.00038563,0.00068117,-0.
 00003161,0.00011041,-0.00048970,-0.00146340,-0.00011468,0.00313420,0.0
 0176378,0.00393311,-0.00014170,-0.00051647,-0.00011456,-0.01032205,-0.
 00031709,-0.00176645,-0.00078208,-0.00036554,-0.00052145,0.00006509,-0
 .00017021,-0.00053581,-0.00027074,0.00021722,-0.00006550,-0.00034506,0
 .00045832,-0.00017514,0.01489955,-0.00423819,-0.00023655,0.01455019,-0
 .02742354,-0.01350761,0.00050084,-0.00082043,-0.00524058,-0.00413039,-
 0.01002113,-0.00024897,0.01133036,-0.01218128,0.01852310,-0.25234739,0
 .63732403,0.00053001,0.00012990,-0.00050959,0.00237723,0.00251506,0.00
 137526,-0.00741196,-0.00427448,-0.00454340,0.00018224,-0.00100166,-0.0
 0028564,0.00098003,0.00033181,-0.00034892,0.00235720,-0.00078448,-0.00
 091678,-0.00003230,-0.00095503,0.00125286,-0.02696144,-0.02384454,-0.0
 8586012,-0.00098963,-0.00024695,-0.00022807,0.00026846,0.00000375,-0.0
 0007396,-0.00028773,-0.00056974,-0.00025751,0.00122613,0.00050241,0.00
 153350,-0.00002118,-0.00017199,0.00014907,-0.00359914,-0.00005736,-0.0
 0066499,-0.00021597,-0.00017191,-0.00023750,-0.00000937,0.00004767,-0.
 00022574,-0.00004146,0.00013092,0.00006996,0.00023548,0.00029698,-0.00
 006686,0.00493370,-0.00080390,-0.00025105,0.02275029,-0.02220497,-0.01
 134325,-0.00670392,-0.00638658,-0.01454903,-0.00093291,0.00289088,0.00
 216408,-0.05232318,0.01645581,-0.06721636,-0.02491651,0.16268569,0.274
 97558,-0.00004114,0.00010507,0.00011503,-0.00027900,-0.00026577,-0.000
 17553,0.00096688,0.00285208,0.00115655,-0.00002557,0.00002699,-0.00008
 386,0.00008462,0.00003148,-0.00017520,0.00014907,-0.00067003,0.0002597
 6,-0.00047135,-0.00079880,-0.00022606,0.00980507,0.01466438,0.01073495
 ,-0.00023842,0.00008074,0.00003032,0.00001025,-0.00000746,-0.00003840,
 0.00010143,-0.00006814,-0.00008848,0.00003228,0.00004932,0.00004974,0.
 00000755,0.00001235,0.00001426,-0.00008040,-0.00005237,-0.00004640,0.0
 0000464,-0.00001079,-0.00001283,-0.00000549,-0.00000121,-0.00000030,-0
 .00005118,-0.00000471,0.00004754,0.00003085,-0.00002538,0.00000308,0.0
 0012063,0.00000165,0.00001967,-0.07358936,-0.05169245,-0.03689679,-0.0
 0961722,-0.02895695,-0.02219597,-0.00340674,0.00266009,0.00295868,0.00
 080692,-0.00056163,-0.00027503,-0.00387413,0.00187219,0.00152988,0.080
 83357,-0.00005369,0.00007982,0.00024465,-0.00033396,0.00049275,-0.0005
 0943,-0.00169382,-0.00150006,0.00294945,0.00010535,-0.00012682,0.00011
 727,-0.00012441,-0.00003356,0.00016102,0.00049399,-0.00001310,0.000042
 05,0.00071058,0.00056699,0.00008974,-0.00436440,-0.00745986,-0.0116906
 4,0.00023721,-0.00007487,0.00010529,-0.00009113,-0.00000925,-0.0000289
 0,-0.00006337,-0.00006183,0.00001038,-0.00005051,-0.00006520,-0.000105
 21,0.00002427,-0.00000334,-0.00001676,0.00015419,0.00006488,0.00008867
 ,0.00000095,0.00001114,0.00001913,0.00000699,-0.00000238,0.00001487,0.
 00001634,0.00003679,-0.00000706,-0.00004616,0.00000297,-0.00002400,-0.
 00022721,0.00002101,-0.00007152,-0.05999766,-0.23167603,-0.13788909,0.
 00299082,0.00165853,-0.00181902,-0.00170024,0.00092799,-0.00257066,0.0
 0100931,0.00097808,0.00202095,0.00105891,0.00134398,-0.00651462,0.0611
 6421,0.23569422,0.00010201,-0.00008870,-0.00031299,0.00054494,-0.00023
 117,0.00068777,-0.00091528,0.00165829,-0.00315048,-0.00026531,0.000155
 14,-0.00007615,0.00001316,0.00004459,-0.00002109,-0.00079987,0.0002333
 6,0.00008160,0.00060289,0.00039589,0.00021125,-0.00677116,-0.00949617,
 0.00219073,-0.00000523,0.00018418,-0.00007057,0.00007287,-0.00000028,0
 .00004685,-0.00004074,0.00004932,-0.00001072,-0.00003084,0.00003576,0.
 00007794,-0.00001869,-0.00000045,-0.00001112,-0.00010836,-0.00001779,-
 0.00007066,-0.00000753,0.00001340,0.00000239,-0.00000332,0.00000207,-0
 .00001777,0.00004964,-0.00001246,0.00002150,0.00004245,0.00002695,0.00
 000199,0.00011643,-0.00002241,0.00006274,-0.03596122,-0.13859386,-0.14
 284633,-0.00399977,-0.00529857,0.00065058,0.00140752,0.00238331,0.0074
 4426,-0.00114461,-0.00034059,-0.00210414,0.00462831,-0.00233779,0.0071
 0620,0.04458889,0.15231239,0.13502163,-0.00005760,0.00000033,-0.000123
 08,-0.00008930,-0.00013827,0.00012627,0.00010142,0.00080237,0.00012493
 ,0.00002128,0.00004069,-0.00002182,0.00000123,-0.00000124,0.00000216,0
 .00004806,-0.00012736,0.00010973,-0.00009047,-0.00004103,-0.00005602,-
 0.00359431,-0.00328794,-0.00175346,-0.00016869,0.00005043,0.00007320,0
 .00002260,-0.00000283,0.00001039,0.00007143,0.00004079,0.00000999,-0.0
 0002160,0.00001827,-0.00001955,0.00002300,0.00000686,-0.00001026,0.000
 06325,-0.00004801,0.00000041,0.00001612,0.00000026,-0.00000507,-0.0000
 0659,0.00000124,0.00000520,-0.00003314,-0.00001764,0.00000777,-0.00001
 038,-0.00001562,0.00003362,-0.00009482,0.00004852,0.00000229,-0.015174
 83,0.01726120,0.01771356,-0.24712098,0.12315773,0.14710550,0.01260876,
 -0.00456899,-0.00519097,0.00239534,-0.00116402,-0.00132436,0.00008118,
 -0.00087346,-0.00078006,0.00058627,-0.00026013,-0.00036090,0.25205755,
 0.00005225,0.00008611,0.00009984,0.00007921,0.00018915,-0.00025299,0.0
 0099124,0.00127853,-0.00071328,-0.00002210,-0.00019493,0.00013706,0.00
 001516,-0.00003535,0.00000217,-0.00119101,0.00007921,-0.00007192,-0.00
 010644,-0.00008727,-0.00009431,-0.00391756,0.00369277,-0.00007021,0.00
 025896,-0.00001265,-0.00021889,-0.00004231,-0.00001246,-0.00000106,-0.
 00010712,-0.00013022,-0.00001915,-0.00003858,-0.00002277,0.00000970,-0
 .00009910,0.00001334,0.00000063,-0.00006688,0.00004083,0.00001506,-0.0
 0002030,0.00002279,0.00001585,0.00001295,-0.00000728,-0.00000616,0.000
 03034,0.00005050,-0.00000155,-0.00001404,0.00003929,-0.00004445,0.0000
 8540,-0.00005683,0.00000166,-0.00102056,0.00410937,0.01080293,0.120003
 51,-0.13289940,-0.13384043,0.01860379,-0.01191701,-0.01181820,0.001699
 55,0.00091014,-0.00302741,-0.00278830,-0.00336626,-0.00303966,-0.00021
 189,-0.00043198,0.00139443,-0.13219996,0.13589251,-0.00000305,-0.00001
 653,-0.00007731,-0.00036198,-0.00016077,0.00023475,-0.00040182,-0.0012
 0843,0.00157854,-0.00012435,0.00002625,-0.00010525,0.00010786,0.000052
 90,-0.00009331,0.00096260,-0.00024452,-0.00005218,-0.00018257,0.000012
 67,-0.00004041,-0.00402188,0.00099728,0.00277998,-0.00014793,0.0001316
 1,0.00040171,0.00001043,0.00000873,0.00000007,-0.00003469,-0.00000515,
 -0.00004422,0.00013086,0.00012291,0.00023413,0.00009686,-0.00002897,-0
 .00007328,-0.00037481,-0.00006755,-0.00019643,-0.00002828,-0.00002214,
 -0.00003281,0.00000079,0.00000734,-0.00003452,0.00002573,0.00000563,0.
 00002221,0.00007326,0.00002659,0.00001645,0.00051797,-0.00006302,0.000
 09827,-0.00286084,0.00832718,0.00260233,0.15238025,-0.13926416,-0.1589
 8923,0.00887008,-0.00358834,-0.00548912,0.00029337,-0.00424547,-0.0014
 4061,0.00284545,-0.00036645,-0.00101350,-0.00021322,0.00083089,-0.0010
 1220,-0.15712496,0.13508310,0.16031335,0.00019959,0.00028701,0.0010364
 6,-0.00070417,0.00070387,-0.00196347,0.00228606,0.00121874,0.00241522,
 -0.00012740,-0.00067306,0.00063140,0.00008554,-0.00013657,-0.00006011,
 -0.00285630,0.00117605,-0.00030328,0.00040814,0.00006297,0.00004948,0.
 00112253,-0.00578476,-0.00255746,0.00138983,-0.00039780,-0.00089597,-0
 .00036224,0.00000508,-0.00008624,-0.00064163,-0.00047952,-0.00009908,-
 0.00008324,-0.00030021,0.00017693,-0.00038892,0.00003864,0.00006984,-0
 .00045976,0.00057234,0.00006432,-0.00012234,0.00008132,0.00005283,0.00
 006709,0.00002083,-0.00007105,0.00028032,0.00019278,-0.00005955,-0.000
 03533,0.00009033,-0.00025774,0.00077643,-0.00057348,-0.00008882,0.0000
 4144,0.00032851,-0.00204035,-0.04393520,-0.04484043,-0.01935118,-0.572
 58769,-0.14198100,-0.05788505,-0.11500351,0.00550387,0.03455473,0.0076
 6863,0.00822018,0.00756218,-0.00211177,0.00021571,-0.00045833,-0.00218
 652,-0.00021779,0.00076775,0.73453911,-0.00000153,-0.00005599,-0.00004
 721,-0.00085340,-0.00023476,0.00038698,0.00061190,0.00032220,0.0025005
 3,-0.00016724,0.00009311,-0.00015710,0.00014261,0.00003888,-0.00015544
 ,0.00031063,-0.00081319,-0.00005685,0.00006248,0.00028870,-0.00005348,
 -0.00351387,0.00454838,0.00305129,-0.00005611,0.00028776,0.00051985,-0
 .00001128,0.00000558,0.00001687,0.00000724,0.00005369,-0.00004467,0.00
 007290,0.00013353,0.00021923,0.00011956,-0.00002000,-0.00013277,-0.000
 44330,-0.00003198,-0.00016550,-0.00003566,-0.00001167,-0.00003490,-0.0
 0000182,-0.00001062,-0.00003925,0.00003077,-0.00001587,0.00002303,0.00
 008212,0.00002962,0.00000066,0.00071375,-0.00017644,0.00008875,0.01936
 805,-0.00501787,-0.00773112,-0.07171609,-0.01990929,-0.01942521,-0.109
 30077,-0.10193037,-0.01669558,-0.00880100,0.01673980,0.00129456,0.0044
 7922,0.00212991,-0.00277983,-0.00171463,0.00051769,-0.00137268,0.00167
 946,0.00210851,0.00297309,0.17112919,0.09963877,-0.00004185,-0.0000568
 4,-0.00011620,-0.00040263,-0.00014801,0.00026399,0.00034220,0.00042163
 ,0.00073820,0.00001134,0.00006092,-0.00002788,0.00004337,0.00003065,-0
 .00003535,0.00012721,-0.00034139,0.00006673,0.00000535,0.00022885,0.00
 002999,-0.00296084,0.00437498,0.00268672,-0.00009500,0.00018009,0.0002
 7420,0.00001169,0.00000128,0.00002978,0.00007860,0.00006951,0.00002711
 ,-0.00001769,0.00005109,-0.00005586,0.00007842,-0.00000852,-0.00006107
 ,0.00005192,-0.00008924,0.00002939,0.00000855,-0.00000014,0.00000262,-
 0.00000223,-0.00001716,0.00001900,-0.00002908,-0.00002448,-0.00000453,
 -0.00002063,0.00000504,0.00000328,-0.00004021,0.00008730,-0.00002171,0
 .01481976,-0.00717025,-0.00105835,-0.05066103,-0.02661148,0.00787553,-
 0.02254074,-0.00882708,-0.08343006,0.02062935,0.00109568,0.01400429,-0
 .00187597,-0.00401352,-0.00070219,-0.00134030,0.00074776,-0.00156880,0
 .00147940,0.00448288,0.00010664,0.03996655,0.03618961,0.06043804,0.001
 00186,0.00029631,-0.00137313,-0.00143277,0.00121673,0.00433717,-0.0053
 2992,0.00821484,0.00028600,-0.00003628,-0.00211966,-0.00034239,0.00011
 270,-0.00057123,-0.00209980,0.00320092,-0.00869717,-0.00113595,0.00132
 620,0.00005627,-0.00052111,0.01178072,0.01335126,0.00362140,-0.0010856
 6,0.00181301,0.00239510,0.00063019,0.00003399,0.00000174,-0.00002602,-
 0.00100201,-0.00047575,0.00220207,0.00284266,0.00571819,0.00064219,-0.
 00037927,-0.00059586,-0.01479292,0.00134125,-0.00345752,-0.00094325,-0
 .00054158,-0.00114398,-0.00008855,-0.00012397,-0.00081082,-0.00018903,
 0.00004823,0.00014049,0.00013174,0.00041933,-0.00017714,0.00261286,-0.
 00460735,0.00022283,0.01275418,-0.00829432,-0.00271011,-0.00934508,0.0
 0008372,0.00126643,0.00361921,-0.00073826,-0.00277820,-0.07818767,0.05
 210119,-0.01085997,-0.25118504,0.28449422,0.08029394,0.00025174,0.0008
 1785,-0.00127798,0.00055174,0.00023158,-0.00120289,-0.00725869,-0.0021
 9319,0.00237450,0.32908257,-0.00036975,-0.00059107,0.00082030,-0.00088
 925,-0.00096478,-0.00069190,0.00651133,0.00182580,0.00638174,-0.000814
 79,0.00072869,-0.00022683,-0.00092137,-0.00162168,0.00045379,-0.003437
 10,0.00280101,-0.00062536,0.00064540,0.00087619,0.00003740,0.03400271,
 -0.05861917,-0.02842688,0.00133864,-0.00072724,-0.00053356,-0.00051345
 ,-0.00005939,-0.00001610,-0.00024704,0.00087615,0.00003448,-0.00199957
 ,-0.00187774,-0.00372918,-0.00021455,0.00039634,0.00011900,0.01095581,
 0.00242436,0.00168378,0.00065339,0.00041813,0.00063114,-0.00012588,0.0
 0011510,0.00041079,0.00035540,-0.00004119,-0.00000319,0.00017344,-0.00
 016595,-0.00005804,-0.01270939,-0.00031435,0.00056129,-0.01318692,-0.0
 0020527,-0.00252278,0.00329561,-0.00108936,-0.00028326,-0.00966736,0.0
 0489063,0.00766852,0.05820597,-0.02517699,-0.00060919,0.26035593,-0.44
 371414,-0.11218316,0.00152165,-0.00093858,-0.00107614,-0.00036164,0.00
 066135,0.00067534,0.00553719,0.00129191,-0.00071914,-0.33809444,0.5188
 0126,-0.00049213,0.00022302,0.00049984,-0.00005457,-0.00149563,-0.0021
 2482,0.00197010,0.00309572,0.00020936,0.00006311,0.00098783,0.00045403
 ,-0.00025493,0.00022637,0.00068470,-0.00368374,-0.00150237,-0.00060819
 ,0.00037777,0.00036884,-0.00002744,0.01330431,-0.03905695,0.00563477,0
 .00149823,-0.00009004,-0.00064501,-0.00023086,0.00000155,0.00003888,0.
 00029523,0.00031897,0.00036523,-0.00006429,-0.00080286,-0.00147320,-0.
 00027054,0.00014541,0.00009641,0.00274112,0.00019227,0.00344716,0.0001
 9609,0.00019469,0.00032166,0.00016655,-0.00007540,0.00036322,-0.000011
 41,-0.00008815,-0.00008508,-0.00019034,-0.00033285,0.00005577,-0.00437
 871,0.00111351,-0.00431692,-0.00990747,0.00021418,0.00367634,0.0035986
 9,0.00194919,0.00308464,0.00118742,-0.00418740,0.00109956,-0.00638900,
 0.00184477,0.01400313,0.07116843,-0.09976575,-0.09933206,0.00026003,0.
 00149240,-0.00233440,-0.00003390,0.00117436,0.00030594,-0.00117000,0.0
 0162714,0.00048647,-0.06969520,0.13222714,0.07612000\\-0.00001011,-0.0
 0001382,-0.00000977,0.00000463,-0.00000732,0.00000662,-0.00000025,0.00
 001414,-0.00000169,-0.00000224,0.00000607,-0.00000543,-0.00000134,0.00
 000068,-0.00000009,0.00000618,-0.00000288,0.00000138,-0.00000102,-0.00
 000271,-0.00000031,0.00000447,-0.00002494,-0.00001392,0.00000012,0.000
 00283,0.00000611,0.00000004,0.00000337,0.00000098,0.00000262,0.0000102
 0,0.00000279,-0.00000095,-0.00000476,-0.00000221,0.00000034,0.00000212
 ,-0.00000172,-0.00000053,0.00000599,-0.00000012,0.00000103,0.00000047,
 0.00000142,0.00000056,0.00000191,0.00000014,-0.00000037,0.00000084,-0.
 00000280,-0.00000067,-0.00000107,-0.00000070,-0.00000027,-0.00000322,0
 .00000346,-0.00001912,0.00000860,-0.00000310,0.00000822,-0.00000864,0.
 00000902,-0.00001599,0.00001449,0.00001757,-0.00000367,-0.00002041,-0.
 00002469,0.00001909,0.00002707,0.00002299,0.00000141,-0.00000196,0.000
 00151,0.00000002,0.00000283,-0.00000245,0.00000759,-0.00000080,-0.0000
 0102,0.00000020,-0.00000907,-0.00000396\\\@
 The archive entry for this job was punched.


 A ROPE OVER THE TOP OF A FENCE HAS THE SAME LENGTH ON EACH SIDE.
 WEIGHS 1/3 POUND PER FOOT.  ON ONE END HANGS A MONKEY HOLDING A
 BANANA, AND ON THE OTHER END A WEIGHT EQUAL TO THE WEIGHT
 OF THE MONKEY.  THE BANANA WEIGHS TWO OUNCES PER INCH.
 THE ROPE IS AS LONG AS THE AGE OF THE MONKEY, 
 AND THE WEIGHT OF THE MONKEY (IN OUNCES) IS AS MUCH
 AS THE AGE OF THE MONKEY'S MOTHER.  THE COMBINED AGES OF MONKEY
 AND MOTHER ARE THIRTY YEARS.  HALF THE WEIGHT OF THE MONKEY,
  PLUS THE WEIGHT OF THE BANANA, IS ONE FOURTH AS MUCH AS THE WEIGHT
 OF THE WEIGHT AND THE ROPE.
 THE MONKEY'S MOTHER IS HALF AS OLD AS THE MONKEY WILL BE
 WHEN IT IS 3 TIMES AS OLD AS ITS MOTHER WAS WHEN
 SHE WAS HALF AS OLD AS THE MONKEY WILL BE WHEN IT IS
 AS OLD AS ITS MOTHER WILL BE WHEN SHE IS 4 TIMES AS
 OLD AS THE MONKEY WAS WHEN IT WAS TWICE AS OLD AS 
 ITS MOTHER WAS WHEN SHE WAS ONE THIRD AS OLD AS THE
 MONKEY WAS WHEN IT WAS AS OLD AS ITS MOTHER WAS WHEN 
 SHE WAS 3 TIMES AS OLD AS THE MONKEY WAS WHEN IT WAS AS OLD AS ITS
 MOTHER WAS WHEN SHE WAS 3 TIMES AS OLD AS THE MONKEY 
 WAS WHEN IT WAS ONE FOURTH WAS OLD AS IT IS NOW.

 HOW LONG IS THE BANANA?
 Job cpu time:       0 days 17 hours 27 minutes 12.1 seconds.
 Elapsed time:       0 days  0 hours 26 minutes 23.3 seconds.
 File lengths (MBytes):  RWF=   1167 Int=      0 D2E=      0 Chk=     28 Scr=      1
 Normal termination of Gaussian 16 at Sun Oct 27 23:40:56 2024.
