 Entering Gaussian System, Link 0=g16
 Input=PseudoUridineSsrrgPBE0aVDZ.gjf
 Output=PseudoUridineSsrrgPBE0aVDZ.log
 Initial command:
 /sw/contrib/chem-src/g16/c01/g16/l1.exe "/scr/Gau-86953.inp" -scrdir="/scr/"
 Entering Link 1 = /sw/contrib/chem-src/g16/c01/g16/l1.exe PID=     86954.
  
 Copyright (c) 1988-2019, Gaussian, Inc.  All Rights Reserved.
  
 This is part of the Gaussian(R) 16 program.  It is based on
 the Gaussian(R) 09 system (copyright 2009, Gaussian, Inc.),
 the Gaussian(R) 03 system (copyright 2003, Gaussian, Inc.),
 the Gaussian(R) 98 system (copyright 1998, Gaussian, Inc.),
 the Gaussian(R) 94 system (copyright 1995, Gaussian, Inc.),
 the Gaussian 92(TM) system (copyright 1992, Gaussian, Inc.),
 the Gaussian 90(TM) system (copyright 1990, Gaussian, Inc.),
 the Gaussian 88(TM) system (copyright 1988, Gaussian, Inc.),
 the Gaussian 86(TM) system (copyright 1986, Carnegie Mellon
 University), and the Gaussian 82(TM) system (copyright 1983,
 Carnegie Mellon University). Gaussian is a federally registered
 trademark of Gaussian, Inc.
  
 This software contains proprietary and confidential information,
 including trade secrets, belonging to Gaussian, Inc.
  
 This software is provided under written license and may be
 used, copied, transmitted, or stored only in accord with that
 written license.
  
 The following legend is applicable only to US Government
 contracts under FAR:
  
                    RESTRICTED RIGHTS LEGEND
  
 Use, reproduction and disclosure by the US Government is
 subject to restrictions as set forth in subparagraphs (a)
 and (c) of the Commercial Computer Software - Restricted
 Rights clause in FAR 52.227-19.
  
 Gaussian, Inc.
 340 Quinnipiac St., Bldg. 40, Wallingford CT 06492
  
  
 ---------------------------------------------------------------
 Warning -- This program may not be used in any manner that
 competes with the business of Gaussian, Inc. or will provide
 assistance to any competitor of Gaussian, Inc.  The licensee
 of this program is prohibited from giving any competitor of
 Gaussian, Inc. access to this program.  By using this program,
 the user acknowledges that Gaussian, Inc. is engaged in the
 business of creating and licensing software in the field of
 computational chemistry and represents and warrants to the
 licensee that it is not a competitor of Gaussian, Inc. and that
 it will not use this program in any manner prohibited above.
 ---------------------------------------------------------------
  

 Cite this work as:
 Gaussian 16, Revision C.01,
 M. J. Frisch, G. W. Trucks, H. B. Schlegel, G. E. Scuseria, 
 M. A. Robb, J. R. Cheeseman, G. Scalmani, V. Barone, 
 G. A. Petersson, H. Nakatsuji, X. Li, M. Caricato, A. V. Marenich, 
 J. Bloino, B. G. Janesko, R. Gomperts, B. Mennucci, H. P. Hratchian, 
 J. V. Ortiz, A. F. Izmaylov, J. L. Sonnenberg, D. Williams-Young, 
 F. Ding, F. Lipparini, F. Egidi, J. Goings, B. Peng, A. Petrone, 
 T. Henderson, D. Ranasinghe, V. G. Zakrzewski, J. Gao, N. Rega, 
 G. Zheng, W. Liang, M. Hada, M. Ehara, K. Toyota, R. Fukuda, 
 J. Hasegawa, M. Ishida, T. Nakajima, Y. Honda, O. Kitao, H. Nakai, 
 T. Vreven, K. Throssell, J. A. Montgomery, Jr., J. E. Peralta, 
 F. Ogliaro, M. J. Bearpark, J. J. Heyd, E. N. Brothers, K. N. Kudin, 
 V. N. Staroverov, T. A. Keith, R. Kobayashi, J. Normand, 
 K. Raghavachari, A. P. Rendell, J. C. Burant, S. S. Iyengar, 
 J. Tomasi, M. Cossi, J. M. Millam, M. Klene, C. Adamo, R. Cammi, 
 J. W. Ochterski, R. L. Martin, K. Morokuma, O. Farkas, 
 J. B. Foresman, and D. J. Fox, Gaussian, Inc., Wallingford CT, 2019.
 
 ******************************************
 Gaussian 16:  EM64L-G16RevC.01  3-Jul-2019
                26-Oct-2024 
 ******************************************
 %nprocshared=40
 Will use up to   40 processors via shared memory.
 %mem=50gb
 ------------------------------------------------------
 # PBE1PBE/aug-cc-pVDZ opt freq EmpiricalDispersion=GD3
 ------------------------------------------------------
 1/18=20,19=15,26=3,38=1/1,3;
 2/9=110,12=2,17=6,18=5,40=1/2;
 3/5=16,7=10,11=2,25=1,30=1,71=1,74=-13,124=31/1,2,3;
 4//1;
 5/5=2,38=5/2;
 6/7=2,8=2,9=2,10=2,28=1/1;
 7//1,2,3,16;
 1/18=20,19=15,26=3/3(2);
 2/9=110/2;
 99//99;
 2/9=110/2;
 3/5=16,7=10,11=2,25=1,30=1,71=1,74=-13,124=31/1,2,3;
 4/5=5,16=3,69=1/1;
 5/5=2,38=5/2;
 7//1,2,3,16;
 1/18=20,19=15,26=3/3(-5);
 2/9=110/2;
 6/7=2,8=2,9=2,10=2,19=2,28=1/1;
 99/9=1/99;
 ----
 blah
 ----
 Symbolic Z-matrix:
 Charge =  0 Multiplicity = 1
 C                    -2.66954  -0.4941    0.46031 
 C                    -1.22606  -0.70983   0.95786 
 C                    -0.41762  -0.47525  -0.32153 
 O                    -0.99238  -1.942     1.57655 
 H                    -0.9783    0.06323   1.69718 
 O                    -1.08631   0.5945   -0.95847 
 H                    -0.41479  -1.38185  -0.94511 
 C                     0.96725  -0.12357  -0.12878 
 C                    -2.4939    0.36289  -0.80361 
 H                    -3.27813   0.02358   1.21436 
 O                    -3.26827  -1.72057   0.07905 
 C                    -3.17743   1.7122   -0.75904 
 H                    -2.86877  -0.2192   -1.66166 
 O                    -2.73243   2.49241   0.33333 
 H                    -4.25738   1.563    -0.62959 
 H                    -3.01762   2.23522  -1.71601 
 H                    -3.53158  -2.18498   0.88031 
 H                    -1.19559  -2.63539   0.93674 
 H                    -1.80893   2.70577   0.16543 
 C                     1.30184   1.02078   0.55312 
 N                     2.57406   1.42052   0.75123 
 C                     3.66595   0.61952   0.22691 
 N                     3.23243  -0.52287  -0.45793 
 C                     1.94563  -0.95266  -0.68213 
 H                     0.45387   1.59782   0.9163 
 H                     2.81022   2.3312    1.29279 
 H                     3.95614  -1.11616  -0.84561 
 O                     4.85488   0.85817   0.33411 
 O                     1.68895  -1.9677   -1.30167 
 

 GradGradGradGradGradGradGradGradGradGradGradGradGradGradGradGradGradGrad
 Berny optimization.
 Initialization pass.
                           ----------------------------
                           !    Initial Parameters    !
                           ! (Angstroms and Degrees)  !
 --------------------------                            --------------------------
 ! Name  Definition              Value          Derivative Info.                !
 --------------------------------------------------------------------------------
 ! R1    R(1,2)                  1.542          estimate D2E/DX2                !
 ! R2    R(1,9)                  1.5371         estimate D2E/DX2                !
 ! R3    R(1,10)                 1.0986         estimate D2E/DX2                !
 ! R4    R(1,11)                 1.4171         estimate D2E/DX2                !
 ! R5    R(2,3)                  1.5315         estimate D2E/DX2                !
 ! R6    R(2,4)                  1.3984         estimate D2E/DX2                !
 ! R7    R(2,5)                  1.098          estimate D2E/DX2                !
 ! R8    R(3,6)                  1.4132         estimate D2E/DX2                !
 ! R9    R(3,7)                  1.1004         estimate D2E/DX2                !
 ! R10   R(3,8)                  1.4418         estimate D2E/DX2                !
 ! R11   R(4,18)                 0.9651         estimate D2E/DX2                !
 ! R12   R(6,9)                  1.4349         estimate D2E/DX2                !
 ! R13   R(8,20)                 1.3735         estimate D2E/DX2                !
 ! R14   R(8,24)                 1.3967         estimate D2E/DX2                !
 ! R15   R(9,12)                 1.5132         estimate D2E/DX2                !
 ! R16   R(9,13)                 1.1025         estimate D2E/DX2                !
 ! R17   R(11,17)                0.9628         estimate D2E/DX2                !
 ! R18   R(12,14)                1.4142         estimate D2E/DX2                !
 ! R19   R(12,15)                1.0979         estimate D2E/DX2                !
 ! R20   R(12,16)                1.1022         estimate D2E/DX2                !
 ! R21   R(14,19)                0.9626         estimate D2E/DX2                !
 ! R22   R(20,21)                1.3482         estimate D2E/DX2                !
 ! R23   R(20,25)                1.0881         estimate D2E/DX2                !
 ! R24   R(21,22)                1.4521         estimate D2E/DX2                !
 ! R25   R(21,26)                1.0855         estimate D2E/DX2                !
 ! R26   R(22,23)                1.4007         estimate D2E/DX2                !
 ! R27   R(22,28)                1.2174         estimate D2E/DX2                !
 ! R28   R(23,24)                1.3751         estimate D2E/DX2                !
 ! R29   R(23,27)                1.0129         estimate D2E/DX2                !
 ! R30   R(24,29)                1.2166         estimate D2E/DX2                !
 ! A1    A(2,1,9)              103.6711         estimate D2E/DX2                !
 ! A2    A(2,1,10)             111.2863         estimate D2E/DX2                !
 ! A3    A(2,1,11)             111.1772         estimate D2E/DX2                !
 ! A4    A(9,1,10)             111.4044         estimate D2E/DX2                !
 ! A5    A(9,1,11)             108.0342         estimate D2E/DX2                !
 ! A6    A(10,1,11)            111.0049         estimate D2E/DX2                !
 ! A7    A(1,2,3)              101.7226         estimate D2E/DX2                !
 ! A8    A(1,2,4)              114.9893         estimate D2E/DX2                !
 ! A9    A(1,2,5)              109.2684         estimate D2E/DX2                !
 ! A10   A(3,2,4)              114.604          estimate D2E/DX2                !
 ! A11   A(3,2,5)              109.6051         estimate D2E/DX2                !
 ! A12   A(4,2,5)              106.5442         estimate D2E/DX2                !
 ! A13   A(2,3,6)              104.0448         estimate D2E/DX2                !
 ! A14   A(2,3,7)              110.3999         estimate D2E/DX2                !
 ! A15   A(2,3,8)              115.6406         estimate D2E/DX2                !
 ! A16   A(6,3,7)              111.6833         estimate D2E/DX2                !
 ! A17   A(6,3,8)              109.2758         estimate D2E/DX2                !
 ! A18   A(7,3,8)              105.9181         estimate D2E/DX2                !
 ! A19   A(2,4,18)             107.7313         estimate D2E/DX2                !
 ! A20   A(3,6,9)              107.0581         estimate D2E/DX2                !
 ! A21   A(3,8,20)             120.2379         estimate D2E/DX2                !
 ! A22   A(3,8,24)             118.3649         estimate D2E/DX2                !
 ! A23   A(20,8,24)            121.3739         estimate D2E/DX2                !
 ! A24   A(1,9,6)              106.9075         estimate D2E/DX2                !
 ! A25   A(1,9,12)             114.9168         estimate D2E/DX2                !
 ! A26   A(1,9,13)             107.8615         estimate D2E/DX2                !
 ! A27   A(6,9,12)             107.5996         estimate D2E/DX2                !
 ! A28   A(6,9,13)             109.5581         estimate D2E/DX2                !
 ! A29   A(12,9,13)            109.8829         estimate D2E/DX2                !
 ! A30   A(1,11,17)            108.0052         estimate D2E/DX2                !
 ! A31   A(9,12,14)            111.8727         estimate D2E/DX2                !
 ! A32   A(9,12,15)            109.0647         estimate D2E/DX2                !
 ! A33   A(9,12,16)            109.3934         estimate D2E/DX2                !
 ! A34   A(14,12,15)           107.063          estimate D2E/DX2                !
 ! A35   A(14,12,16)           111.2978         estimate D2E/DX2                !
 ! A36   A(15,12,16)           108.0281         estimate D2E/DX2                !
 ! A37   A(12,14,19)           106.8247         estimate D2E/DX2                !
 ! A38   A(8,20,21)            123.3581         estimate D2E/DX2                !
 ! A39   A(8,20,25)            114.6909         estimate D2E/DX2                !
 ! A40   A(21,20,25)           121.9462         estimate D2E/DX2                !
 ! A41   A(20,21,22)           119.5347         estimate D2E/DX2                !
 ! A42   A(20,21,26)           121.8266         estimate D2E/DX2                !
 ! A43   A(22,21,26)           118.6386         estimate D2E/DX2                !
 ! A44   A(21,22,23)           113.1838         estimate D2E/DX2                !
 ! A45   A(21,22,28)           126.4717         estimate D2E/DX2                !
 ! A46   A(23,22,28)           120.3445         estimate D2E/DX2                !
 ! A47   A(22,23,24)           128.6274         estimate D2E/DX2                !
 ! A48   A(22,23,27)           116.34           estimate D2E/DX2                !
 ! A49   A(24,23,27)           115.0323         estimate D2E/DX2                !
 ! A50   A(8,24,23)            113.9157         estimate D2E/DX2                !
 ! A51   A(8,24,29)            123.3145         estimate D2E/DX2                !
 ! A52   A(23,24,29)           122.7689         estimate D2E/DX2                !
 ! D1    D(9,1,2,3)            -22.2365         estimate D2E/DX2                !
 ! D2    D(9,1,2,4)           -146.6974         estimate D2E/DX2                !
 ! D3    D(9,1,2,5)             93.5842         estimate D2E/DX2                !
 ! D4    D(10,1,2,3)          -142.0949         estimate D2E/DX2                !
 ! D5    D(10,1,2,4)            93.4443         estimate D2E/DX2                !
 ! D6    D(10,1,2,5)           -26.2742         estimate D2E/DX2                !
 ! D7    D(11,1,2,3)            93.6074         estimate D2E/DX2                !
 ! D8    D(11,1,2,4)           -30.8535         estimate D2E/DX2                !
 ! D9    D(11,1,2,5)          -150.5719         estimate D2E/DX2                !
 ! D10   D(2,1,9,6)             -0.5249         estimate D2E/DX2                !
 ! D11   D(2,1,9,12)          -119.8433         estimate D2E/DX2                !
 ! D12   D(2,1,9,13)           117.2213         estimate D2E/DX2                !
 ! D13   D(10,1,9,6)           119.2529         estimate D2E/DX2                !
 ! D14   D(10,1,9,12)           -0.0655         estimate D2E/DX2                !
 ! D15   D(10,1,9,13)         -123.0008         estimate D2E/DX2                !
 ! D16   D(11,1,9,6)          -118.5715         estimate D2E/DX2                !
 ! D17   D(11,1,9,12)          122.1101         estimate D2E/DX2                !
 ! D18   D(11,1,9,13)           -0.8252         estimate D2E/DX2                !
 ! D19   D(2,1,11,17)           77.518          estimate D2E/DX2                !
 ! D20   D(9,1,11,17)         -169.3597         estimate D2E/DX2                !
 ! D21   D(10,1,11,17)         -46.9389         estimate D2E/DX2                !
 ! D22   D(1,2,3,6)             38.4809         estimate D2E/DX2                !
 ! D23   D(1,2,3,7)            -81.478          estimate D2E/DX2                !
 ! D24   D(1,2,3,8)            158.3178         estimate D2E/DX2                !
 ! D25   D(4,2,3,6)            163.1999         estimate D2E/DX2                !
 ! D26   D(4,2,3,7)             43.2409         estimate D2E/DX2                !
 ! D27   D(4,2,3,8)            -76.9632         estimate D2E/DX2                !
 ! D28   D(5,2,3,6)            -77.0928         estimate D2E/DX2                !
 ! D29   D(5,2,3,7)            162.9482         estimate D2E/DX2                !
 ! D30   D(5,2,3,8)             42.744          estimate D2E/DX2                !
 ! D31   D(1,2,4,18)            59.4238         estimate D2E/DX2                !
 ! D32   D(3,2,4,18)           -57.9614         estimate D2E/DX2                !
 ! D33   D(5,2,4,18)          -179.3612         estimate D2E/DX2                !
 ! D34   D(2,3,6,9)            -40.625          estimate D2E/DX2                !
 ! D35   D(7,3,6,9)             78.4621         estimate D2E/DX2                !
 ! D36   D(8,3,6,9)           -164.6832         estimate D2E/DX2                !
 ! D37   D(2,3,8,20)           -61.0968         estimate D2E/DX2                !
 ! D38   D(2,3,8,24)           120.6349         estimate D2E/DX2                !
 ! D39   D(6,3,8,20)            55.842          estimate D2E/DX2                !
 ! D40   D(6,3,8,24)          -122.4263         estimate D2E/DX2                !
 ! D41   D(7,3,8,20)           176.2907         estimate D2E/DX2                !
 ! D42   D(7,3,8,24)            -1.9776         estimate D2E/DX2                !
 ! D43   D(3,6,9,1)             25.7497         estimate D2E/DX2                !
 ! D44   D(3,6,9,12)           149.6936         estimate D2E/DX2                !
 ! D45   D(3,6,9,13)           -90.8778         estimate D2E/DX2                !
 ! D46   D(3,8,20,21)         -178.9116         estimate D2E/DX2                !
 ! D47   D(3,8,20,25)            0.2984         estimate D2E/DX2                !
 ! D48   D(24,8,20,21)          -0.6963         estimate D2E/DX2                !
 ! D49   D(24,8,20,25)         178.5137         estimate D2E/DX2                !
 ! D50   D(3,8,24,23)          179.2006         estimate D2E/DX2                !
 ! D51   D(3,8,24,29)           -1.1396         estimate D2E/DX2                !
 ! D52   D(20,8,24,23)           0.9529         estimate D2E/DX2                !
 ! D53   D(20,8,24,29)        -179.3873         estimate D2E/DX2                !
 ! D54   D(1,9,12,14)           57.7959         estimate D2E/DX2                !
 ! D55   D(1,9,12,15)          -60.4508         estimate D2E/DX2                !
 ! D56   D(1,9,12,16)         -178.4071         estimate D2E/DX2                !
 ! D57   D(6,9,12,14)          -61.1367         estimate D2E/DX2                !
 ! D58   D(6,9,12,15)         -179.3834         estimate D2E/DX2                !
 ! D59   D(6,9,12,16)           62.6604         estimate D2E/DX2                !
 ! D60   D(13,9,12,14)         179.642          estimate D2E/DX2                !
 ! D61   D(13,9,12,15)          61.3953         estimate D2E/DX2                !
 ! D62   D(13,9,12,16)         -56.561          estimate D2E/DX2                !
 ! D63   D(9,12,14,19)          66.8868         estimate D2E/DX2                !
 ! D64   D(15,12,14,19)       -173.6809         estimate D2E/DX2                !
 ! D65   D(16,12,14,19)        -55.8334         estimate D2E/DX2                !
 ! D66   D(8,20,21,22)           0.0391         estimate D2E/DX2                !
 ! D67   D(8,20,21,26)         179.8858         estimate D2E/DX2                !
 ! D68   D(25,20,21,22)       -179.115          estimate D2E/DX2                !
 ! D69   D(25,20,21,26)          0.7317         estimate D2E/DX2                !
 ! D70   D(20,21,22,23)          0.2538         estimate D2E/DX2                !
 ! D71   D(20,21,22,28)       -179.8028         estimate D2E/DX2                !
 ! D72   D(26,21,22,23)       -179.5978         estimate D2E/DX2                !
 ! D73   D(26,21,22,28)          0.3456         estimate D2E/DX2                !
 ! D74   D(21,22,23,24)          0.0947         estimate D2E/DX2                !
 ! D75   D(21,22,23,27)        179.8918         estimate D2E/DX2                !
 ! D76   D(28,22,23,24)       -179.8525         estimate D2E/DX2                !
 ! D77   D(28,22,23,27)         -0.0554         estimate D2E/DX2                !
 ! D78   D(22,23,24,8)          -0.6829         estimate D2E/DX2                !
 ! D79   D(22,23,24,29)        179.6551         estimate D2E/DX2                !
 ! D80   D(27,23,24,8)         179.5177         estimate D2E/DX2                !
 ! D81   D(27,23,24,29)         -0.1442         estimate D2E/DX2                !
 --------------------------------------------------------------------------------
 Trust Radius=3.00D-01 FncErr=1.00D-07 GrdErr=1.00D-06 EigMax=2.50D+02 EigMin=1.00D-04
 Number of steps in this run=    173 maximum allowed number of steps=    174.
 GradGradGradGradGradGradGradGradGradGradGradGradGradGradGradGradGradGrad

                          Input orientation:                          
 ---------------------------------------------------------------------
 Center     Atomic      Atomic             Coordinates (Angstroms)
 Number     Number       Type             X           Y           Z
 ---------------------------------------------------------------------
      1          6           0       -2.669538   -0.494103    0.460313
      2          6           0       -1.226059   -0.709833    0.957859
      3          6           0       -0.417619   -0.475247   -0.321533
      4          8           0       -0.992377   -1.942002    1.576549
      5          1           0       -0.978297    0.063229    1.697177
      6          8           0       -1.086313    0.594496   -0.958470
      7          1           0       -0.414788   -1.381852   -0.945105
      8          6           0        0.967249   -0.123572   -0.128780
      9          6           0       -2.493895    0.362889   -0.803606
     10          1           0       -3.278125    0.023580    1.214358
     11          8           0       -3.268269   -1.720565    0.079045
     12          6           0       -3.177430    1.712198   -0.759038
     13          1           0       -2.868772   -0.219202   -1.661656
     14          8           0       -2.732426    2.492414    0.333326
     15          1           0       -4.257377    1.563004   -0.629586
     16          1           0       -3.017618    2.235222   -1.716014
     17          1           0       -3.531575   -2.184977    0.880312
     18          1           0       -1.195593   -2.635393    0.936736
     19          1           0       -1.808925    2.705769    0.165430
     20          6           0        1.301836    1.020779    0.553120
     21          7           0        2.574055    1.420515    0.751229
     22          6           0        3.665950    0.619524    0.226912
     23          7           0        3.232434   -0.522870   -0.457931
     24          6           0        1.945625   -0.952657   -0.682129
     25          1           0        0.453872    1.597820    0.916300
     26          1           0        2.810224    2.331202    1.292786
     27          1           0        3.956142   -1.116163   -0.845612
     28          8           0        4.854878    0.858169    0.334109
     29          8           0        1.688945   -1.967703   -1.301673
 ---------------------------------------------------------------------
                    Distance matrix (angstroms):
                    1          2          3          4          5
     1  C    0.000000
     2  C    1.541987   0.000000
     3  C    2.383858   1.531486   0.000000
     4  O    2.480980   1.398437   2.466664   0.000000
     5  H    2.168121   1.097999   2.163217   2.008905   0.000000
     6  O    2.388429   2.322309   1.413220   3.587334   2.710419
     7  H    2.801285   2.175096   1.100356   2.646907   3.063896
     8  C    3.702775   2.516960   1.441766   3.170957   2.674727
     9  C    1.537133   2.420929   2.290369   3.637611   2.939515
    10  H    1.098616   2.194234   3.284857   3.036336   2.350297
    11  O    1.417058   2.442236   3.136477   2.733356   3.323288
    12  C    2.571485   3.552720   3.548645   4.856192   3.686228
    13  H    2.148957   3.130668   2.805288   4.120057   3.864637
    14  O    2.989877   3.593545   3.820233   4.923151   3.292111
    15  H    2.817943   4.107878   4.358108   5.273739   4.291330
    16  H    3.508101   4.362640   4.006397   5.691377   4.530591
    17  H    1.943852   2.738150   3.750244   2.644108   3.498704
    18  H    2.642842   1.925917   2.618151   0.965116   2.812125
    19  H    3.326679   3.554436   3.505956   4.925422   3.165313
    20  C    4.251505   3.090159   2.441237   3.884442   2.724844
    21  N    5.589782   4.361415   3.700655   4.970625   3.918705
    22  C    6.436851   5.121838   4.263197   5.484792   4.903078
    23  N    5.973046   4.681621   3.652911   4.899191   4.766367
    24  C    4.776523   3.578841   2.437801   3.835660   3.904157
    25  H    3.786787   2.854673   2.566970   3.880452   2.239609
    26  H    6.221186   5.064746   4.571778   5.727178   4.433974
    27  H    6.781743   5.502074   4.451429   5.571060   5.674983
    28  O    7.646006   6.310744   5.477873   6.601137   6.042832
    29  O    4.926709   3.896790   2.761469   3.933740   4.497996
                    6          7          8          9         10
     6  O    0.000000
     7  H    2.087361   0.000000
     8  C    2.328331   2.039530   0.000000
     9  C    1.434891   2.717872   3.559712   0.000000
    10  H    3.138657   3.851911   4.455207   2.191421   0.000000
    11  O    3.346173   3.050568   4.531356   2.391549   2.081123
    12  C    2.379454   4.152103   4.576641   1.513222   2.599204
    13  H    2.081762   2.808423   4.132059   1.102548   2.915128
    14  O    2.824981   4.692096   4.554615   2.425776   2.677526
    15  H    3.331939   4.851517   5.512900   2.140193   2.594010
    16  H    2.644956   4.522416   4.895139   2.147651   3.680530
    17  H    4.133509   3.700205   5.050453   3.225520   2.248010
    18  H    3.746456   2.392143   3.481732   3.701901   3.388827
    19  H    2.498558   4.459322   3.974780   2.626271   3.233100
    20  C    2.858300   3.311210   1.373490   4.084250   4.733676
    21  N    4.123551   4.434410   2.395923   5.405571   6.034395
    22  C    4.897934   4.693778   2.821648   6.250722   7.039203
    23  N    4.488944   3.778547   2.323541   5.804731   6.744074
    24  C    3.415069   2.413486   1.396709   4.631928   5.642452
    25  H    2.625565   3.619094   2.078206   3.629389   4.061388
    26  H    4.823619   5.403298   3.382798   6.033473   6.511472
    27  H    5.325922   4.380128   3.229948   6.617578   7.607701
    28  O    6.085888   5.867151   4.036303   7.452796   8.222963
    29  O    3.792718   2.212703   2.301596   4.814133   5.913324
                   11         12         13         14         15
    11  O    0.000000
    12  C    3.534756   0.000000
    13  H    2.333180   2.154134   0.000000
    14  O    4.254524   1.414222   3.369185   0.000000
    15  H    3.501759   1.097863   2.483878   2.028911   0.000000
    16  H    4.351243   1.102224   2.459534   2.085012   1.780226
    17  H    0.962828   4.242742   3.281033   4.776591   4.105355
    18  H    2.422505   5.069998   3.922900   5.387055   5.427193
    19  H    4.661500   1.927338   3.607904   0.962582   2.816537
    20  C    5.350287   4.718436   4.882290   4.299917   5.709435
    21  N    6.667156   5.953618   6.175358   5.429765   6.971041
    22  C    7.319923   6.999849   6.853666   6.667702   8.025139
    23  N    6.631889   6.795039   6.226225   6.730348   7.776735
    24  C    5.324825   5.775211   4.967479   5.897781   6.693918
    25  H    5.056383   4.000774   4.581200   3.360454   4.958512
    26  H    7.405272   6.359650   6.890884   5.627390   7.364552
    27  H    7.308379   7.674306   6.931805   7.690817   8.642135
    28  O    8.526456   8.151215   8.049756   7.761310   9.190141
    29  O    5.151838   6.125172   4.894857   6.489560   6.948118
                   16         17         18         19         20
    16  H    0.000000
    17  H    5.152011   0.000000
    18  H    5.837786   2.379679   0.000000
    19  H    2.285210   5.234308   5.431307   0.000000
    20  C    5.028074   5.809112   4.444312   3.558979   0.000000
    21  N    6.165861   7.091893   5.540311   4.604949   1.348176
    22  C    7.145315   7.752195   5.893465   5.859220   2.420011
    23  N    6.946438   7.092624   5.100517   6.018969   2.670634
    24  C    5.988762   5.827483   3.914023   5.310281   2.415524
    25  H    4.403022   5.494965   4.543264   2.628994   1.088080
    26  H    6.559408   7.796437   6.390650   4.769462   2.130622
    27  H    7.786059   7.758033   5.659081   6.990377   3.683519
    28  O    8.250786   8.938214   7.012584   6.917250   3.563498
    29  O    6.323606   5.662340   3.711717   6.019039   3.538522
                   21         22         23         24         25
    21  N    0.000000
    22  C    1.452147   0.000000
    23  N    2.381654   1.400718   0.000000
    24  C    2.842778   2.501525   1.375085   0.000000
    25  H    2.133978   3.427793   3.755828   3.359350   0.000000
    26  H    1.085546   2.190478   3.374759   3.928301   2.496395
    27  H    3.300727   2.060856   1.012939   2.023769   4.768221
    28  O    2.385870   1.217371   2.273086   3.574295   4.500543
    29  O    4.059292   3.597063   2.276357   1.216568   4.376958
                   26         27         28         29
    26  H    0.000000
    27  H    4.215471   0.000000
    28  O    2.696201   2.469303   0.000000
    29  O    5.144810   2.464405   4.548018   0.000000
 Stoichiometry    C9H12N2O6
 Framework group  C1[X(C9H12N2O6)]
 Deg. of freedom    81
 Full point group                 C1      NOp   1
 Largest Abelian subgroup         C1      NOp   1
 Largest concise Abelian subgroup C1      NOp   1
                         Standard orientation:                         
 ---------------------------------------------------------------------
 Center     Atomic      Atomic             Coordinates (Angstroms)
 Number     Number       Type             X           Y           Z
 ---------------------------------------------------------------------
      1          6           0       -2.683906   -0.486652    0.463941
      2          6           0       -1.240444   -0.707822    0.959142
      3          6           0       -0.434014   -0.486891   -0.323945
      4          8           0       -1.012628   -1.937162    1.585598
      5          1           0       -0.985993    0.068719    1.692518
      6          8           0       -1.097872    0.582567   -0.966395
      7          1           0       -0.438382   -1.397716   -0.941328
      8          6           0        0.953484   -0.142393   -0.137242
      9          6           0       -2.506421    0.360635   -0.806248
     10          1           0       -3.287304    0.039860    1.216040
     11          8           0       -3.291126   -1.711992    0.092620
     12          6           0       -3.181591    1.714373   -0.769078
     13          1           0       -2.887136   -0.224973   -1.659321
     14          8           0       -2.728914    2.499261    0.316767
     15          1           0       -4.262077    1.572672   -0.635768
     16          1           0       -3.021152    2.229890   -1.730014
     17          1           0       -3.555115   -2.169325    0.897724
     18          1           0       -1.221781   -2.633631    0.951063
     19          1           0       -1.804582    2.705815    0.144988
     20          6           0        1.296869    1.004500    0.535959
     21          7           0        2.572028    1.397782    0.727987
     22          6           0        3.657610    0.586579    0.206267
     23          7           0        3.215303   -0.557771   -0.469629
     24          6           0        1.925300   -0.981192   -0.687502
     25          1           0        0.453416    1.589174    0.897430
     26          1           0        2.815196    2.310669    1.262700
     27          1           0        3.934338   -1.158103   -0.855162
     28          8           0        4.848254    0.818669    0.308703
     29          8           0        1.660777   -1.998838   -1.299435
 ---------------------------------------------------------------------
 Rotational constants (GHZ):           0.8639815           0.2861610           0.2468665
 Standard basis: Aug-CC-pVDZ (5D, 7F)
 There are   533 symmetry adapted cartesian basis functions of A   symmetry.
 There are   499 symmetry adapted basis functions of A   symmetry.
   499 basis functions,   863 primitive gaussians,   533 cartesian basis functions
    64 alpha electrons       64 beta electrons
       nuclear repulsion energy      1306.3889833861 Hartrees.
 NAtoms=   29 NActive=   29 NUniq=   29 SFac= 1.00D+00 NAtFMM=   60 NAOKFM=F Big=F
 Integral buffers will be    131072 words long.
 Raffenetti 2 integral format.
 Two-electron integral symmetry is turned on.
 Nuclear repulsion after empirical dispersion term =     1306.3692201867 Hartrees.
 One-electron integrals computed using PRISM.
 NBasis=   499 RedAO= T EigKep=  2.36D-06  NBF=   499
 NBsUse=   499 1.00D-06 EigRej= -1.00D+00 NBFU=   499
 ExpMin= 2.97D-02 ExpMax= 1.17D+04 ExpMxC= 4.01D+02 IAcc=3 IRadAn=         5 AccDes= 0.00D+00
 Harris functional with IExCor= 1009 and IRadAn=       5 diagonalized for initial guess.
 HarFok:  IExCor= 1009 AccDes= 0.00D+00 IRadAn=         5 IDoV= 1 UseB2=F ITyADJ=14
 ICtDFT=  3500011 ScaDFX=  1.000000  1.000000  1.000000  1.000000
 FoFCou: FMM=F IPFlag=           0 FMFlag=      100000 FMFlg1=           0
         NFxFlg=           0 DoJE=T BraDBF=F KetDBF=T FulRan=T
         wScrn=  0.000000 ICntrl=       500 IOpCl=  0 I1Cent=   200000004 NGrid=           0
         NMat0=    1 NMatS0=      1 NMatT0=    0 NMatD0=    1 NMtDS0=    0 NMtDT0=    0
 Petite list used in FoFCou.
 Requested convergence on RMS density matrix=1.00D-08 within 128 cycles.
 Requested convergence on MAX density matrix=1.00D-06.
 Requested convergence on             energy=1.00D-06.
 No special actions if energy rises.
 SCF Done:  E(RPBE1PBE) =  -910.202689817     A.U. after   14 cycles
            NFock= 14  Conv=0.84D-08     -V/T= 2.0053

 **********************************************************************

            Population analysis using the SCF Density.

 **********************************************************************

 Orbital symmetries:
       Occupied  (A) (A) (A) (A) (A) (A) (A) (A) (A) (A) (A) (A)
                 (A) (A) (A) (A) (A) (A) (A) (A) (A) (A) (A) (A)
                 (A) (A) (A) (A) (A) (A) (A) (A) (A) (A) (A) (A)
                 (A) (A) (A) (A) (A) (A) (A) (A) (A) (A) (A) (A)
                 (A) (A) (A) (A) (A) (A) (A) (A) (A) (A) (A) (A)
                 (A) (A) (A) (A)
       Virtual   (A) (A) (A) (A) (A) (A) (A) (A) (A) (A) (A) (A)
                 (A) (A) (A) (A) (A) (A) (A) (A) (A) (A) (A) (A)
                 (A) (A) (A) (A) (A) (A) (A) (A) (A) (A) (A) (A)
                 (A) (A) (A) (A) (A) (A) (A) (A) (A) (A) (A) (A)
                 (A) (A) (A) (A) (A) (A) (A) (A) (A) (A) (A) (A)
                 (A) (A) (A) (A) (A) (A) (A) (A) (A) (A) (A) (A)
                 (A) (A) (A) (A) (A) (A) (A) (A) (A) (A) (A) (A)
                 (A) (A) (A) (A) (A) (A) (A) (A) (A) (A) (A) (A)
                 (A) (A) (A) (A) (A) (A) (A) (A) (A) (A) (A) (A)
                 (A) (A) (A) (A) (A) (A) (A) (A) (A) (A) (A) (A)
                 (A) (A) (A) (A) (A) (A) (A) (A) (A) (A) (A) (A)
                 (A) (A) (A) (A) (A) (A) (A) (A) (A) (A) (A) (A)
                 (A) (A) (A) (A) (A) (A) (A) (A) (A) (A) (A) (A)
                 (A) (A) (A) (A) (A) (A) (A) (A) (A) (A) (A) (A)
                 (A) (A) (A) (A) (A) (A) (A) (A) (A) (A) (A) (A)
                 (A) (A) (A) (A) (A) (A) (A) (A) (A) (A) (A) (A)
                 (A) (A) (A) (A) (A) (A) (A) (A) (A) (A) (A) (A)
                 (A) (A) (A) (A) (A) (A) (A) (A) (A) (A) (A) (A)
                 (A) (A) (A) (A) (A) (A) (A) (A) (A) (A) (A) (A)
                 (A) (A) (A) (A) (A) (A) (A) (A) (A) (A) (A) (A)
                 (A) (A) (A) (A) (A) (A) (A) (A) (A) (A) (A) (A)
                 (A) (A) (A) (A) (A) (A) (A) (A) (A) (A) (A) (A)
                 (A) (A) (A) (A) (A) (A) (A) (A) (A) (A) (A) (A)
                 (A) (A) (A) (A) (A) (A) (A) (A) (A) (A) (A) (A)
                 (A) (A) (A) (A) (A) (A) (A) (A) (A) (A) (A) (A)
                 (A) (A) (A) (A) (A) (A) (A) (A) (A) (A) (A) (A)
                 (A) (A) (A) (A) (A) (A) (A) (A) (A) (A) (A) (A)
                 (A) (A) (A) (A) (A) (A) (A) (A) (A) (A) (A) (A)
                 (A) (A) (A) (A) (A) (A) (A) (A) (A) (A) (A) (A)
                 (A) (A) (A) (A) (A) (A) (A) (A) (A) (A) (A) (A)
                 (A) (A) (A) (A) (A) (A) (A) (A) (A) (A) (A) (A)
                 (A) (A) (A) (A) (A) (A) (A) (A) (A) (A) (A) (A)
                 (A) (A) (A) (A) (A) (A) (A) (A) (A) (A) (A) (A)
                 (A) (A) (A) (A) (A) (A) (A) (A) (A) (A) (A) (A)
                 (A) (A) (A) (A) (A) (A) (A) (A) (A) (A) (A) (A)
                 (A) (A) (A) (A) (A) (A) (A) (A) (A) (A) (A) (A)
                 (A) (A) (A)
 The electronic state is 1-A.
 Alpha  occ. eigenvalues --  -19.24880 -19.24878 -19.24393 -19.24161 -19.22908
 Alpha  occ. eigenvalues --  -19.20408 -14.49739 -14.46464 -10.41082 -10.34813
 Alpha  occ. eigenvalues --  -10.32567 -10.29596 -10.29522 -10.29290 -10.29080
 Alpha  occ. eigenvalues --  -10.28807 -10.25054  -1.12418  -1.11024  -1.09008
 Alpha  occ. eigenvalues --   -1.08516  -1.06911  -1.06630  -1.02438  -0.97056
 Alpha  occ. eigenvalues --   -0.86220  -0.80949  -0.78288  -0.73231  -0.70756
 Alpha  occ. eigenvalues --   -0.69366  -0.65918  -0.62392  -0.61022  -0.59756
 Alpha  occ. eigenvalues --   -0.56748  -0.55337  -0.54394  -0.53794  -0.51296
 Alpha  occ. eigenvalues --   -0.50927  -0.50302  -0.49708  -0.47479  -0.46686
 Alpha  occ. eigenvalues --   -0.46110  -0.45262  -0.44816  -0.43312  -0.41965
 Alpha  occ. eigenvalues --   -0.41526  -0.41032  -0.39959  -0.36996  -0.36594
 Alpha  occ. eigenvalues --   -0.34269  -0.33669  -0.32933  -0.31449  -0.31338
 Alpha  occ. eigenvalues --   -0.30017  -0.29361  -0.28358  -0.25663
 Alpha virt. eigenvalues --   -0.05763  -0.02732  -0.01135  -0.00878  -0.00090
 Alpha virt. eigenvalues --    0.00577   0.01497   0.01960   0.02633   0.03305
 Alpha virt. eigenvalues --    0.03677   0.04247   0.05008   0.05188   0.05798
 Alpha virt. eigenvalues --    0.06257   0.06408   0.07201   0.07365   0.07958
 Alpha virt. eigenvalues --    0.08133   0.08755   0.08961   0.09392   0.09581
 Alpha virt. eigenvalues --    0.09975   0.10443   0.10605   0.10779   0.11075
 Alpha virt. eigenvalues --    0.11311   0.11935   0.11957   0.12313   0.12543
 Alpha virt. eigenvalues --    0.12946   0.13163   0.13836   0.13943   0.14531
 Alpha virt. eigenvalues --    0.14954   0.15144   0.15365   0.15684   0.16709
 Alpha virt. eigenvalues --    0.16868   0.17302   0.17830   0.18014   0.18054
 Alpha virt. eigenvalues --    0.18411   0.18730   0.18968   0.19568   0.19831
 Alpha virt. eigenvalues --    0.20622   0.20992   0.21261   0.21488   0.22261
 Alpha virt. eigenvalues --    0.22521   0.22819   0.23316   0.23458   0.23887
 Alpha virt. eigenvalues --    0.24087   0.24342   0.24564   0.25268   0.25391
 Alpha virt. eigenvalues --    0.25809   0.26207   0.26593   0.27033   0.27427
 Alpha virt. eigenvalues --    0.27497   0.27949   0.28221   0.28451   0.28903
 Alpha virt. eigenvalues --    0.29106   0.29375   0.30118   0.30180   0.30390
 Alpha virt. eigenvalues --    0.30690   0.31050   0.31457   0.31794   0.32151
 Alpha virt. eigenvalues --    0.32937   0.33158   0.33706   0.34065   0.34562
 Alpha virt. eigenvalues --    0.35028   0.35626   0.35926   0.36047   0.36821
 Alpha virt. eigenvalues --    0.37300   0.37679   0.38080   0.38659   0.39147
 Alpha virt. eigenvalues --    0.39340   0.39659   0.40080   0.40666   0.40846
 Alpha virt. eigenvalues --    0.41525   0.41862   0.42388   0.42889   0.42953
 Alpha virt. eigenvalues --    0.44034   0.44826   0.45219   0.45430   0.45982
 Alpha virt. eigenvalues --    0.46480   0.46830   0.47267   0.47488   0.48641
 Alpha virt. eigenvalues --    0.48945   0.50108   0.51328   0.51555   0.51816
 Alpha virt. eigenvalues --    0.52108   0.52930   0.53510   0.53601   0.54419
 Alpha virt. eigenvalues --    0.54840   0.55339   0.55886   0.56316   0.56647
 Alpha virt. eigenvalues --    0.57027   0.57976   0.58365   0.58438   0.59052
 Alpha virt. eigenvalues --    0.59365   0.59928   0.60667   0.61481   0.61821
 Alpha virt. eigenvalues --    0.62733   0.62927   0.63413   0.64412   0.64832
 Alpha virt. eigenvalues --    0.65180   0.65917   0.66033   0.66650   0.66817
 Alpha virt. eigenvalues --    0.67310   0.67449   0.68357   0.68691   0.69573
 Alpha virt. eigenvalues --    0.69748   0.70537   0.70866   0.71423   0.71817
 Alpha virt. eigenvalues --    0.72636   0.73304   0.73570   0.74028   0.74533
 Alpha virt. eigenvalues --    0.75219   0.75752   0.75902   0.76199   0.77367
 Alpha virt. eigenvalues --    0.78149   0.79546   0.80138   0.80422   0.80976
 Alpha virt. eigenvalues --    0.81533   0.82546   0.83119   0.83369   0.84219
 Alpha virt. eigenvalues --    0.84654   0.85400   0.86522   0.86781   0.87846
 Alpha virt. eigenvalues --    0.88295   0.88653   0.89159   0.90523   0.91051
 Alpha virt. eigenvalues --    0.91598   0.92116   0.92727   0.93580   0.93662
 Alpha virt. eigenvalues --    0.94837   0.95756   0.96219   0.97980   0.98403
 Alpha virt. eigenvalues --    0.99797   1.01045   1.02078   1.02882   1.03731
 Alpha virt. eigenvalues --    1.04686   1.05266   1.06468   1.06672   1.07367
 Alpha virt. eigenvalues --    1.08985   1.09451   1.10126   1.11293   1.12353
 Alpha virt. eigenvalues --    1.13511   1.14293   1.14465   1.14684   1.16002
 Alpha virt. eigenvalues --    1.17053   1.17842   1.19045   1.19589   1.20111
 Alpha virt. eigenvalues --    1.21034   1.22219   1.22520   1.23183   1.24299
 Alpha virt. eigenvalues --    1.24624   1.26182   1.27051   1.27975   1.28581
 Alpha virt. eigenvalues --    1.29873   1.30459   1.32739   1.32983   1.33836
 Alpha virt. eigenvalues --    1.33954   1.34667   1.36198   1.37220   1.38716
 Alpha virt. eigenvalues --    1.39496   1.41159   1.41686   1.42602   1.43804
 Alpha virt. eigenvalues --    1.44927   1.45775   1.46201   1.47789   1.48798
 Alpha virt. eigenvalues --    1.50686   1.52018   1.52441   1.53790   1.54818
 Alpha virt. eigenvalues --    1.55702   1.56120   1.56977   1.57554   1.58136
 Alpha virt. eigenvalues --    1.59475   1.60161   1.60535   1.61971   1.62410
 Alpha virt. eigenvalues --    1.63879   1.64443   1.66167   1.67309   1.67983
 Alpha virt. eigenvalues --    1.68189   1.70288   1.71254   1.73175   1.74289
 Alpha virt. eigenvalues --    1.74414   1.75764   1.76468   1.76507   1.77261
 Alpha virt. eigenvalues --    1.77751   1.79395   1.80884   1.81719   1.83068
 Alpha virt. eigenvalues --    1.84542   1.84749   1.86087   1.87098   1.87614
 Alpha virt. eigenvalues --    1.88415   1.88864   1.90307   1.91648   1.92079
 Alpha virt. eigenvalues --    1.93436   1.94928   1.95930   1.96713   1.97449
 Alpha virt. eigenvalues --    1.98282   1.99202   1.99715   2.01142   2.02495
 Alpha virt. eigenvalues --    2.02900   2.03460   2.05176   2.06385   2.07494
 Alpha virt. eigenvalues --    2.09362   2.09966   2.10722   2.11325   2.12316
 Alpha virt. eigenvalues --    2.13751   2.14056   2.14841   2.17260   2.17974
 Alpha virt. eigenvalues --    2.19442   2.19909   2.22005   2.23339   2.24609
 Alpha virt. eigenvalues --    2.24808   2.25883   2.26575   2.28105   2.29479
 Alpha virt. eigenvalues --    2.30331   2.31797   2.32993   2.34682   2.36477
 Alpha virt. eigenvalues --    2.37776   2.37890   2.39317   2.39740   2.41705
 Alpha virt. eigenvalues --    2.42382   2.43346   2.43906   2.45151   2.46528
 Alpha virt. eigenvalues --    2.49364   2.49766   2.50473   2.52251   2.53731
 Alpha virt. eigenvalues --    2.54410   2.56294   2.58623   2.58825   2.59784
 Alpha virt. eigenvalues --    2.61422   2.64246   2.64492   2.67445   2.70296
 Alpha virt. eigenvalues --    2.71563   2.73297   2.75921   2.77145   2.78351
 Alpha virt. eigenvalues --    2.80851   2.82414   2.83581   2.83644   2.87592
 Alpha virt. eigenvalues --    2.90032   2.90190   2.93993   2.95966   2.97319
 Alpha virt. eigenvalues --    3.00584   3.10897   3.14543   3.20034   3.21821
 Alpha virt. eigenvalues --    3.26434   3.28172   3.32324   3.35264   3.35743
 Alpha virt. eigenvalues --    3.40300   3.41423   3.43213   3.43937   3.44951
 Alpha virt. eigenvalues --    3.45799   3.46312   3.46874   3.49347   3.49613
 Alpha virt. eigenvalues --    3.50401   3.53178   3.53765   3.55890   3.56743
 Alpha virt. eigenvalues --    3.58580   3.61968   3.62945   3.65351   3.67066
 Alpha virt. eigenvalues --    3.67992   3.70540   3.71379   3.73927   3.77300
 Alpha virt. eigenvalues --    3.80329   3.83292   3.89860   3.92220   3.96462
 Alpha virt. eigenvalues --    4.02178   4.04683   4.10447   4.32641   5.01075
          Condensed to atoms (all electrons):
               1          2          3          4          5          6
     1  C    9.499366  -2.530353   0.040446   0.050421   0.162519   0.052874
     2  C   -2.530353   9.188729  -1.118400  -0.423888  -0.182210   0.019052
     3  C    0.040446  -1.118400  18.796306   0.297738  -0.528459  -0.414929
     4  O    0.050421  -0.423888   0.297738   8.606271  -0.191984  -0.014505
     5  H    0.162519  -0.182210  -0.528459  -0.191984   2.148031   0.034660
     6  O    0.052874   0.019052  -0.414929  -0.014505   0.034660   9.505775
     7  H    0.014640   0.410603  -2.041170  -0.082985   0.109558  -0.036243
     8  C    0.735606  -0.536470  -4.334819  -0.057070   0.189825   0.106322
     9  C   -2.214180   0.764796  -3.171597   0.116887  -0.015559  -0.171710
    10  H   -0.983121   0.574513   0.474360   0.022410  -0.182173  -0.012393
    11  O   -0.588299   0.151928   0.053013  -0.047077   0.011239   0.008549
    12  C   -0.005092   0.014423   0.137169  -0.021733   0.020196  -0.072080
    13  H    0.369140   0.092796   0.508970  -0.000280  -0.006218  -0.161596
    14  O   -0.020744  -0.024851   0.025841  -0.001088   0.012850  -0.072250
    15  H    0.154740  -0.043457  -0.009929  -0.001973   0.002320   0.122002
    16  H   -0.110547   0.045350   0.070250  -0.000387   0.001432  -0.079619
    17  H    0.234970  -0.138970  -0.066972  -0.008273   0.009644   0.005476
    18  H   -0.034033  -0.119064   0.063960   0.324191   0.032711   0.008587
    19  H    0.012877   0.009049   0.018140   0.001340  -0.005180   0.021645
    20  C    0.147624  -0.759881  -2.044690   0.028981  -0.156177  -0.061030
    21  N   -0.020651   0.068465   0.394926  -0.003152   0.005554   0.017850
    22  C    0.010541  -0.062541  -0.637474   0.004559  -0.006016   0.006010
    23  N    0.016438  -0.075551   0.009301  -0.000335  -0.005391  -0.015806
    24  C   -0.035178   0.117980  -1.401869   0.000314   0.010916   0.002944
    25  H    0.059895   0.042160   0.064201  -0.014101   0.014824   0.028722
    26  H    0.000053  -0.002846  -0.022470   0.000190  -0.002197  -0.001430
    27  H   -0.002798   0.010785  -0.011602  -0.000462   0.001825   0.001758
    28  O   -0.001207   0.002485   0.010458  -0.000101   0.000673   0.000421
    29  O   -0.000593  -0.009101   0.076362   0.000984  -0.002387   0.011755
               7          8          9         10         11         12
     1  C    0.014640   0.735606  -2.214180  -0.983121  -0.588299  -0.005092
     2  C    0.410603  -0.536470   0.764796   0.574513   0.151928   0.014423
     3  C   -2.041170  -4.334819  -3.171597   0.474360   0.053013   0.137169
     4  O   -0.082985  -0.057070   0.116887   0.022410  -0.047077  -0.021733
     5  H    0.109558   0.189825  -0.015559  -0.182173   0.011239   0.020196
     6  O   -0.036243   0.106322  -0.171710  -0.012393   0.008549  -0.072080
     7  H    2.881579   0.549130   0.109491  -0.029948   0.001815   0.006753
     8  C    0.549130  15.614585   0.174219  -0.196628  -0.072219  -0.108225
     9  C    0.109491   0.174219  11.304536  -0.266160   0.298224  -0.421910
    10  H   -0.029948  -0.196628  -0.266160   2.138584  -0.075591  -0.098336
    11  O    0.001815  -0.072219   0.298224  -0.075591   8.656168  -0.006421
    12  C    0.006753  -0.108225  -0.421910  -0.098336  -0.006421   5.254257
    13  H   -0.014480  -0.127161  -1.082512   0.095214  -0.072083  -0.073318
    14  O    0.002902   0.002133   0.053327   0.017798   0.003353   0.099125
    15  H    0.002140   0.023639  -0.313330  -0.035514   0.006818   0.193901
    16  H    0.002431  -0.028009   0.325124   0.013934   0.000267   0.047755
    17  H    0.008497   0.038027  -0.037050  -0.106041   0.294754   0.011523
    18  H   -0.020421  -0.022455   0.007539   0.006507   0.003067  -0.001292
    19  H    0.000976   0.000927  -0.048435  -0.000195   0.000982  -0.014652
    20  C   -0.084509  -2.896164  -0.252830   0.011647  -0.003398  -0.026957
    21  N   -0.012843  -0.147756   0.004716   0.001318   0.000160  -0.003058
    22  C    0.014027   0.182622   0.003456   0.000148  -0.000229  -0.009524
    23  N   -0.014621  -0.058863  -0.014081   0.000152   0.000240   0.001671
    24  C    0.073718  -4.061875  -0.086452   0.019400   0.001962  -0.026601
    25  H   -0.010909  -0.225518   0.008187  -0.004554  -0.002886   0.002282
    26  H   -0.000285   0.025877   0.000031   0.000130   0.000057  -0.000328
    27  H    0.000214   0.143667   0.000736   0.000042   0.000035  -0.000307
    28  O    0.000373   0.044789   0.000284  -0.000067   0.000003   0.000060
    29  O   -0.072998  -0.157588  -0.011494   0.000010   0.000743   0.001328
              13         14         15         16         17         18
     1  C    0.369140  -0.020744   0.154740  -0.110547   0.234970  -0.034033
     2  C    0.092796  -0.024851  -0.043457   0.045350  -0.138970  -0.119064
     3  C    0.508970   0.025841  -0.009929   0.070250  -0.066972   0.063960
     4  O   -0.000280  -0.001088  -0.001973  -0.000387  -0.008273   0.324191
     5  H   -0.006218   0.012850   0.002320   0.001432   0.009644   0.032711
     6  O   -0.161596  -0.072250   0.122002  -0.079619   0.005476   0.008587
     7  H   -0.014480   0.002902   0.002140   0.002431   0.008497  -0.020421
     8  C   -0.127161   0.002133   0.023639  -0.028009   0.038027  -0.022455
     9  C   -1.082512   0.053327  -0.313330   0.325124  -0.037050   0.007539
    10  H    0.095214   0.017798  -0.035514   0.013934  -0.106041   0.006507
    11  O   -0.072083   0.003353   0.006818   0.000267   0.294754   0.003067
    12  C   -0.073318   0.099125   0.193901   0.047755   0.011523  -0.001292
    13  H    2.024941   0.024281  -0.059900  -0.038165  -0.013942  -0.003400
    14  O    0.024281   8.305456  -0.171887  -0.049707  -0.001241  -0.000394
    15  H   -0.059900  -0.171887   1.697378  -0.337737   0.004784  -0.000443
    16  H   -0.038165  -0.049707  -0.337737   1.431627  -0.001024  -0.000158
    17  H   -0.013942  -0.001241   0.004784  -0.001024   0.645042   0.016274
    18  H   -0.003400  -0.000394  -0.000443  -0.000158   0.016274   0.664806
    19  H    0.011893   0.299161   0.025316  -0.059144  -0.000354  -0.000421
    20  C   -0.033300  -0.009781   0.004044  -0.013713   0.001583   0.003849
    21  N    0.000968  -0.000576  -0.000528   0.000786  -0.000369   0.000919
    22  C   -0.000124  -0.001242  -0.000043  -0.001331   0.000244  -0.000998
    23  N   -0.001712   0.000229  -0.000052   0.000283   0.000188   0.000715
    24  C    0.014333   0.000144  -0.002924   0.000709  -0.004694  -0.008776
    25  H   -0.007235   0.009461   0.005080  -0.001806   0.001223   0.004528
    26  H    0.000001  -0.000010  -0.000091   0.000092   0.000001  -0.000152
    27  H    0.000298  -0.000040  -0.000004  -0.000033  -0.000065   0.000421
    28  O    0.000034   0.000012  -0.000002   0.000025  -0.000012   0.000102
    29  O   -0.001953   0.000076  -0.000109   0.000366   0.000373  -0.001632
              19         20         21         22         23         24
     1  C    0.012877   0.147624  -0.020651   0.010541   0.016438  -0.035178
     2  C    0.009049  -0.759881   0.068465  -0.062541  -0.075551   0.117980
     3  C    0.018140  -2.044690   0.394926  -0.637474   0.009301  -1.401869
     4  O    0.001340   0.028981  -0.003152   0.004559  -0.000335   0.000314
     5  H   -0.005180  -0.156177   0.005554  -0.006016  -0.005391   0.010916
     6  O    0.021645  -0.061030   0.017850   0.006010  -0.015806   0.002944
     7  H    0.000976  -0.084509  -0.012843   0.014027  -0.014621   0.073718
     8  C    0.000927  -2.896164  -0.147756   0.182622  -0.058863  -4.061875
     9  C   -0.048435  -0.252830   0.004716   0.003456  -0.014081  -0.086452
    10  H   -0.000195   0.011647   0.001318   0.000148   0.000152   0.019400
    11  O    0.000982  -0.003398   0.000160  -0.000229   0.000240   0.001962
    12  C   -0.014652  -0.026957  -0.003058  -0.009524   0.001671  -0.026601
    13  H    0.011893  -0.033300   0.000968  -0.000124  -0.001712   0.014333
    14  O    0.299161  -0.009781  -0.000576  -0.001242   0.000229   0.000144
    15  H    0.025316   0.004044  -0.000528  -0.000043  -0.000052  -0.002924
    16  H   -0.059144  -0.013713   0.000786  -0.001331   0.000283   0.000709
    17  H   -0.000354   0.001583  -0.000369   0.000244   0.000188  -0.004694
    18  H   -0.000421   0.003849   0.000919  -0.000998   0.000715  -0.008776
    19  H    0.588633  -0.008097  -0.000662  -0.001343  -0.000381   0.000949
    20  C   -0.008097  14.458083  -0.773484  -0.115092   0.494172  -2.203023
    21  N   -0.000662  -0.773484   7.910726  -0.110617  -0.039969  -0.002664
    22  C   -0.001343  -0.115092  -0.110617   6.386561  -0.129348  -0.077601
    23  N   -0.000381   0.494172  -0.039969  -0.129348   7.325111  -0.317397
    24  C    0.000949  -2.203023  -0.002664  -0.077601  -0.317397  13.443914
    25  H    0.002707  -0.490475   0.047653  -0.068836  -0.002408   0.056655
    26  H   -0.000714  -0.172143   0.437188  -0.102238   0.009294  -0.042714
    27  H    0.000017  -0.102457   0.030180  -0.187407   0.382564  -0.219104
    28  O    0.000005   0.106351  -0.110680   0.102574  -0.108481  -0.015970
    29  O   -0.000183  -0.006044   0.009597  -0.009607  -0.099236   0.226271
              25         26         27         28         29
     1  C    0.059895   0.000053  -0.002798  -0.001207  -0.000593
     2  C    0.042160  -0.002846   0.010785   0.002485  -0.009101
     3  C    0.064201  -0.022470  -0.011602   0.010458   0.076362
     4  O   -0.014101   0.000190  -0.000462  -0.000101   0.000984
     5  H    0.014824  -0.002197   0.001825   0.000673  -0.002387
     6  O    0.028722  -0.001430   0.001758   0.000421   0.011755
     7  H   -0.010909  -0.000285   0.000214   0.000373  -0.072998
     8  C   -0.225518   0.025877   0.143667   0.044789  -0.157588
     9  C    0.008187   0.000031   0.000736   0.000284  -0.011494
    10  H   -0.004554   0.000130   0.000042  -0.000067   0.000010
    11  O   -0.002886   0.000057   0.000035   0.000003   0.000743
    12  C    0.002282  -0.000328  -0.000307   0.000060   0.001328
    13  H   -0.007235   0.000001   0.000298   0.000034  -0.001953
    14  O    0.009461  -0.000010  -0.000040   0.000012   0.000076
    15  H    0.005080  -0.000091  -0.000004  -0.000002  -0.000109
    16  H   -0.001806   0.000092  -0.000033   0.000025   0.000366
    17  H    0.001223   0.000001  -0.000065  -0.000012   0.000373
    18  H    0.004528  -0.000152   0.000421   0.000102  -0.001632
    19  H    0.002707  -0.000714   0.000017   0.000005  -0.000183
    20  C   -0.490475  -0.172143  -0.102457   0.106351  -0.006044
    21  N    0.047653   0.437188   0.030180  -0.110680   0.009597
    22  C   -0.068836  -0.102238  -0.187407   0.102574  -0.009607
    23  N   -0.002408   0.009294   0.382564  -0.108481  -0.099236
    24  C    0.056655  -0.042714  -0.219104  -0.015970   0.226271
    25  H    2.133905   0.004222  -0.005615   0.001766  -0.004450
    26  H    0.004222   0.837281  -0.003634   0.004603   0.002128
    27  H   -0.005615  -0.003634   1.037059  -0.000462  -0.033696
    28  O    0.001766   0.004603  -0.000462   8.518502   0.000932
    29  O   -0.004450   0.002128  -0.033696   0.000932   8.809841
 Mulliken charges:
               1
     1  C    0.984648
     2  C    0.514467
     3  C    0.762938
     4  O   -0.584890
     5  H   -0.484826
     6  O   -0.840811
     7  H   -0.767434
     8  C    1.199455
     9  C    0.935744
    10  H   -0.385446
    11  O   -0.625174
    12  C    1.099393
    13  H   -0.445491
    14  O   -0.502336
    15  H   -0.264240
    16  H   -0.219053
    17  H    0.106404
    18  H    0.075464
    19  H    0.145147
    20  C    0.956912
    21  N   -0.703997
    22  C    0.810871
    23  N   -0.356727
    24  C    0.536634
    25  H   -0.648674
    26  H    0.030102
    27  H   -0.041917
    28  O   -0.557469
    29  O   -0.729693
 Sum of Mulliken charges =  -0.00000
 Mulliken charges with hydrogens summed into heavy atoms:
               1
     1  C    0.599202
     2  C    0.029641
     3  C   -0.004495
     4  O   -0.509426
     6  O   -0.840811
     8  C    1.199455
     9  C    0.490253
    11  O   -0.518770
    12  C    0.616100
    14  O   -0.357190
    20  C    0.308238
    21  N   -0.673895
    22  C    0.810871
    23  N   -0.398644
    24  C    0.536634
    28  O   -0.557469
    29  O   -0.729693
 Electronic spatial extent (au):  <R**2>=           4409.6369
 Charge=             -0.0000 electrons
 Dipole moment (field-independent basis, Debye):
    X=             -2.0478    Y=              2.4989    Z=              1.6007  Tot=              3.6055
 Quadrupole moment (field-independent basis, Debye-Ang):
   XX=           -108.7851   YY=            -97.4915   ZZ=           -101.2436
   XY=              6.2449   XZ=              1.0023   YZ=             -1.3327
 Traceless Quadrupole moment (field-independent basis, Debye-Ang):
   XX=             -6.2784   YY=              5.0152   ZZ=              1.2632
   XY=              6.2449   XZ=              1.0023   YZ=             -1.3327
 Octapole moment (field-independent basis, Debye-Ang**2):
  XXX=           -118.9261  YYY=              4.0862  ZZZ=              0.0408  XYY=              9.3932
  XXY=            -41.3966  XXZ=             -7.0227  XZZ=             -4.3099  YZZ=             15.0588
  YYZ=             15.6010  XYZ=             22.0498
 Hexadecapole moment (field-independent basis, Debye-Ang**3):
 XXXX=          -4499.5904 YYYY=          -1063.7799 ZZZZ=           -487.0441 XXXY=           -133.5132
 XXXZ=           -122.4209 YYYX=            153.9834 YYYZ=            -28.9446 ZZZX=             10.1641
 ZZZY=             13.6711 XXYY=           -849.5735 XXZZ=           -696.5269 YYZZ=           -275.0710
 XXYZ=            -50.7002 YYXZ=             33.4934 ZZXY=             25.8725
 N-N= 1.306369220187D+03 E-N=-4.744900375590D+03  KE= 9.054241020803D+02
 Calling FoFJK, ICntrl=      2127 FMM=F ISym2X=0 I1Cent= 0 IOpClX= 0 NMat=1 NMatS=1 NMatT=0.
 ***** Axes restored to original set *****
 -------------------------------------------------------------------
 Center     Atomic                   Forces (Hartrees/Bohr)
 Number     Number              X              Y              Z
 -------------------------------------------------------------------
      1        6          -0.000286528    0.000487717    0.000300499
      2        6          -0.003887357   -0.000947263   -0.004001569
      3        6          -0.019531997   -0.007036203   -0.000098532
      4        8          -0.000751567   -0.001090416    0.001904023
      5        1          -0.000019248   -0.000037115    0.000345863
      6        8          -0.012099310    0.004332337   -0.001012953
      7        1          -0.006543092   -0.002154903   -0.000803739
      8        6           0.004622726    0.047113657    0.029968875
      9        6           0.001298429    0.000453047   -0.000806083
     10        1          -0.000774760    0.000016622    0.000142000
     11        8          -0.001206217   -0.000847541   -0.000033476
     12        6          -0.000624685   -0.001524201   -0.000519197
     13        1          -0.000577380   -0.000171511   -0.000067308
     14        8           0.000079590    0.001541130    0.000766639
     15        1          -0.000127063    0.000403888    0.000121077
     16        1           0.000088177    0.000161660   -0.000010841
     17        1           0.000377277    0.000168811   -0.000078474
     18        1           0.000225893    0.000724488   -0.000501603
     19        1          -0.000187544   -0.000954782   -0.000396185
     20        6          -0.018650738   -0.024490591   -0.014024929
     21        7           0.046967276    0.022632271    0.011469418
     22        6          -0.007278184   -0.001155783   -0.000630303
     23        7           0.013274889    0.013439505    0.007564429
     24        6           0.008941468   -0.011543263   -0.005379421
     25        1           0.007565309    0.009321574    0.005291524
     26        1          -0.007648974   -0.046803742   -0.028011639
     27        1           0.004110098    0.003303665    0.001801875
     28        8          -0.017708452    0.009555134    0.006478858
     29        8           0.010351962   -0.014898191   -0.009778828
 -------------------------------------------------------------------
 Cartesian Forces:  Max     0.047113657 RMS     0.012058241

 GradGradGradGradGradGradGradGradGradGradGradGradGradGradGradGradGradGrad
 Berny optimization.
 FormGI is forming the generalized inverse of G from B-inverse, IUseBI=4.
 Internal  Forces:  Max     0.054902890 RMS     0.009127088
 Search for a local minimum.
 Step number   1 out of a maximum of  173
 All quantities printed in internal units (Hartrees-Bohrs-Radians)
 Mixed Optimization -- RFO/linear search
 Second derivative matrix not updated -- first step.
 ITU=  0
     Eigenvalues ---    0.00365   0.00591   0.01037   0.01282   0.01466
     Eigenvalues ---    0.01504   0.01536   0.01555   0.01712   0.01739
     Eigenvalues ---    0.01847   0.01971   0.02043   0.02079   0.02318
     Eigenvalues ---    0.02407   0.03060   0.03725   0.04317   0.04950
     Eigenvalues ---    0.05038   0.05043   0.05372   0.05509   0.05999
     Eigenvalues ---    0.06054   0.06149   0.06540   0.07883   0.08637
     Eigenvalues ---    0.10299   0.11571   0.13283   0.13937   0.15697
     Eigenvalues ---    0.15999   0.16000   0.16000   0.16000   0.16000
     Eigenvalues ---    0.16000   0.17026   0.18633   0.20155   0.22059
     Eigenvalues ---    0.22361   0.23426   0.24591   0.24988   0.24999
     Eigenvalues ---    0.25000   0.26504   0.27334   0.28775   0.31029
     Eigenvalues ---    0.33402   0.33437   0.33643   0.33836   0.33904
     Eigenvalues ---    0.33920   0.35035   0.35332   0.36927   0.38219
     Eigenvalues ---    0.39344   0.40823   0.42907   0.43062   0.43342
     Eigenvalues ---    0.44904   0.45484   0.45881   0.47936   0.49744
     Eigenvalues ---    0.54197   0.54387   0.54870   0.54922   0.96558
     Eigenvalues ---    0.96920
 RFO step:  Lambda=-3.53745312D-02 EMin= 3.64814665D-03
 Linear search not attempted -- first point.
 Maximum step size (   0.300) exceeded in Quadratic search.
    -- Step size scaled by   0.962
 Iteration  1 RMS(Cart)=  0.06753704 RMS(Int)=  0.00117981
 Iteration  2 RMS(Cart)=  0.00151601 RMS(Int)=  0.00019250
 Iteration  3 RMS(Cart)=  0.00000115 RMS(Int)=  0.00019250
 Iteration  4 RMS(Cart)=  0.00000000 RMS(Int)=  0.00019250
 Variable       Old X    -DE/DX   Delta X   Delta X   Delta X     New X
                                 (Linear)    (Quad)   (Total)
    R1        2.91393   0.00155   0.00000   0.00378   0.00376   2.91769
    R2        2.90476  -0.00090   0.00000  -0.00502  -0.00517   2.89959
    R3        2.07608   0.00053   0.00000   0.00137   0.00137   2.07746
    R4        2.67785   0.00097   0.00000   0.00201   0.00201   2.67986
    R5        2.89409   0.00303   0.00000   0.00985   0.00998   2.90407
    R6        2.64266   0.00086   0.00000   0.00166   0.00166   2.64433
    R7        2.07492   0.00020   0.00000   0.00052   0.00052   2.07543
    R8        2.67060   0.01013   0.00000   0.02263   0.02274   2.69334
    R9        2.07937   0.00221   0.00000   0.00573   0.00573   2.08510
   R10        2.72454   0.04500   0.00000   0.10092   0.10092   2.82547
   R11        1.82380  -0.00023   0.00000  -0.00039  -0.00039   1.82342
   R12        2.71155  -0.00041   0.00000  -0.00118  -0.00124   2.71032
   R13        2.59552  -0.01587   0.00000  -0.02661  -0.02621   2.56931
   R14        2.63940   0.04926   0.00000   0.09985   0.09984   2.73924
   R15        2.85958   0.00002   0.00000   0.00005   0.00005   2.85962
   R16        2.08351   0.00034   0.00000   0.00088   0.00088   2.08440
   R17        1.81948  -0.00025   0.00000  -0.00041  -0.00041   1.81907
   R18        2.67249   0.00058   0.00000   0.00119   0.00119   2.67368
   R19        2.07466   0.00008   0.00000   0.00022   0.00022   2.07488
   R20        2.08290   0.00010   0.00000   0.00025   0.00025   2.08316
   R21        1.81902  -0.00032   0.00000  -0.00053  -0.00053   1.81848
   R22        2.54768   0.01198   0.00000   0.01744   0.01785   2.56554
   R23        2.05617   0.00081   0.00000   0.00203   0.00203   2.05820
   R24        2.74416  -0.04007   0.00000  -0.09834  -0.09830   2.64586
   R25        2.05139  -0.05490   0.00000  -0.13583  -0.13583   1.91555
   R26        2.64697  -0.01826   0.00000  -0.03740  -0.03781   2.60916
   R27        2.30050  -0.01485   0.00000  -0.01427  -0.01427   2.28623
   R28        2.59853   0.01787   0.00000   0.03432   0.03390   2.63243
   R29        1.91418   0.00031   0.00000   0.00061   0.00061   1.91479
   R30        2.29898   0.01523   0.00000   0.01458   0.01458   2.31356
    A1        1.80940   0.00053   0.00000  -0.00014  -0.00025   1.80915
    A2        1.94231   0.00020   0.00000   0.00270   0.00271   1.94502
    A3        1.94041  -0.00024   0.00000   0.00020   0.00025   1.94066
    A4        1.94437  -0.00041   0.00000   0.00083   0.00085   1.94522
    A5        1.88555   0.00017   0.00000  -0.00010  -0.00005   1.88550
    A6        1.93740  -0.00021   0.00000  -0.00330  -0.00332   1.93408
    A7        1.77540   0.00317   0.00000   0.01450   0.01465   1.79005
    A8        2.00694  -0.00181   0.00000  -0.00962  -0.00971   1.99723
    A9        1.90709  -0.00062   0.00000  -0.00022  -0.00028   1.90681
   A10        2.00022  -0.00066   0.00000   0.00080   0.00077   2.00098
   A11        1.91297  -0.00059   0.00000  -0.00241  -0.00245   1.91052
   A12        1.85955   0.00051   0.00000  -0.00266  -0.00265   1.85689
   A13        1.81592  -0.00530   0.00000  -0.01988  -0.02016   1.79576
   A14        1.92684  -0.00293   0.00000  -0.02944  -0.02987   1.89697
   A15        2.01831   0.00296   0.00000   0.01655   0.01657   2.03488
   A16        1.94924  -0.00082   0.00000  -0.01489  -0.01586   1.93338
   A17        1.90722   0.00497   0.00000   0.02823   0.02817   1.93539
   A18        1.84862   0.00113   0.00000   0.01835   0.01861   1.86723
   A19        1.88027  -0.00144   0.00000  -0.00708  -0.00708   1.87318
   A20        1.86852   0.00283   0.00000   0.01500   0.01513   1.88365
   A21        2.09855   0.00633   0.00000   0.01617   0.01598   2.11452
   A22        2.06586   0.01324   0.00000   0.03947   0.03927   2.10513
   A23        2.11837  -0.01957   0.00000  -0.05555  -0.05516   2.06321
   A24        1.86589   0.00009   0.00000  -0.00156  -0.00165   1.86424
   A25        2.00568   0.00028   0.00000   0.00128   0.00128   2.00695
   A26        1.88254  -0.00023   0.00000  -0.00130  -0.00125   1.88129
   A27        1.87797  -0.00028   0.00000   0.00023   0.00030   1.87826
   A28        1.91215   0.00039   0.00000   0.00355   0.00356   1.91571
   A29        1.91782  -0.00021   0.00000  -0.00195  -0.00198   1.91584
   A30        1.88505  -0.00039   0.00000  -0.00194  -0.00194   1.88311
   A31        1.95255  -0.00007   0.00000  -0.00037  -0.00038   1.95217
   A32        1.90354   0.00072   0.00000   0.00501   0.00501   1.90855
   A33        1.90928  -0.00021   0.00000  -0.00182  -0.00182   1.90746
   A34        1.86860  -0.00017   0.00000  -0.00002  -0.00002   1.86858
   A35        1.94251  -0.00016   0.00000  -0.00241  -0.00242   1.94010
   A36        1.88545  -0.00009   0.00000  -0.00015  -0.00014   1.88530
   A37        1.86444  -0.00151   0.00000  -0.00745  -0.00745   1.85699
   A38        2.15300   0.00091   0.00000   0.00088   0.00165   2.15466
   A39        2.00173   0.01301   0.00000   0.06581   0.06541   2.06714
   A40        2.12836  -0.01392   0.00000  -0.06672  -0.06711   2.06125
   A41        2.08627   0.01854   0.00000   0.05451   0.05493   2.14120
   A42        2.12627  -0.00475   0.00000  -0.00502  -0.00523   2.12104
   A43        2.07063  -0.01379   0.00000  -0.04948  -0.04969   2.02094
   A44        1.97543   0.00113   0.00000  -0.00907  -0.00946   1.96597
   A45        2.20735  -0.01787   0.00000  -0.05378  -0.05358   2.15377
   A46        2.10041   0.01674   0.00000   0.06285   0.06304   2.16345
   A47        2.24497   0.00015   0.00000   0.00100   0.00024   2.24521
   A48        2.03052  -0.00540   0.00000  -0.02671  -0.02633   2.00419
   A49        2.00769   0.00525   0.00000   0.02571   0.02609   2.03378
   A50        1.98820  -0.00116   0.00000   0.00831   0.00786   1.99606
   A51        2.15224   0.01655   0.00000   0.04966   0.04988   2.20212
   A52        2.14272  -0.01538   0.00000  -0.05794  -0.05772   2.08500
    D1       -0.38810  -0.00039   0.00000   0.00359   0.00352  -0.38458
    D2       -2.56035  -0.00078   0.00000  -0.00216  -0.00218  -2.56253
    D3        1.63335   0.00024   0.00000   0.00786   0.00786   1.64121
    D4       -2.48002  -0.00031   0.00000   0.00132   0.00129  -2.47873
    D5        1.63091  -0.00070   0.00000  -0.00443  -0.00440   1.62651
    D6       -0.45857   0.00032   0.00000   0.00560   0.00563  -0.45294
    D7        1.63376  -0.00001   0.00000   0.00348   0.00344   1.63719
    D8       -0.53849  -0.00039   0.00000  -0.00227  -0.00226  -0.54076
    D9       -2.62798   0.00062   0.00000   0.00776   0.00777  -2.62021
   D10       -0.00916  -0.00040   0.00000  -0.00389  -0.00384  -0.01301
   D11       -2.09166  -0.00027   0.00000  -0.00387  -0.00383  -2.09549
   D12        2.04590  -0.00001   0.00000  -0.00122  -0.00119   2.04471
   D13        2.08136  -0.00006   0.00000  -0.00035  -0.00034   2.08101
   D14       -0.00114   0.00007   0.00000  -0.00033  -0.00033  -0.00148
   D15       -2.14677   0.00033   0.00000   0.00232   0.00231  -2.14446
   D16       -2.06946  -0.00047   0.00000  -0.00400  -0.00398  -2.07344
   D17        2.13122  -0.00034   0.00000  -0.00398  -0.00397   2.12726
   D18       -0.01440  -0.00008   0.00000  -0.00133  -0.00133  -0.01573
   D19        1.35294  -0.00038   0.00000  -0.00243  -0.00239   1.35055
   D20       -2.95589   0.00023   0.00000  -0.00255  -0.00259  -2.95847
   D21       -0.81924  -0.00030   0.00000  -0.00366  -0.00366  -0.82290
   D22        0.67162  -0.00285   0.00000  -0.01469  -0.01440   0.65722
   D23       -1.42206   0.00263   0.00000   0.02909   0.02878  -1.39328
   D24        2.76317   0.00130   0.00000   0.01591   0.01592   2.77908
   D25        2.84838  -0.00325   0.00000  -0.01599  -0.01568   2.83270
   D26        0.75470   0.00223   0.00000   0.02779   0.02750   0.78219
   D27       -1.34326   0.00090   0.00000   0.01461   0.01464  -1.32862
   D28       -1.34552  -0.00348   0.00000  -0.02064  -0.02037  -1.36589
   D29        2.84398   0.00200   0.00000   0.02313   0.02281   2.86679
   D30        0.74602   0.00068   0.00000   0.00995   0.00995   0.75598
   D31        1.03714   0.00153   0.00000   0.01112   0.01116   1.04830
   D32       -1.01162  -0.00083   0.00000  -0.00160  -0.00164  -1.01326
   D33       -3.13044  -0.00003   0.00000   0.00286   0.00287  -3.12757
   D34       -0.70904   0.00231   0.00000   0.01087   0.01061  -0.69843
   D35        1.36942  -0.00474   0.00000  -0.04352  -0.04327   1.32616
   D36       -2.87426  -0.00075   0.00000  -0.01223  -0.01224  -2.88651
   D37       -1.06634  -0.00060   0.00000  -0.01751  -0.01765  -1.08399
   D38        2.10548  -0.00050   0.00000  -0.02006  -0.02026   2.08522
   D39        0.97463  -0.00194   0.00000  -0.01219  -0.01202   0.96261
   D40       -2.13674  -0.00184   0.00000  -0.01474  -0.01463  -2.15137
   D41        3.07685   0.00040   0.00000  -0.00421  -0.00416   3.07270
   D42       -0.03452   0.00050   0.00000  -0.00676  -0.00677  -0.04129
   D43        0.44942  -0.00004   0.00000   0.00120   0.00128   0.45070
   D44        2.61265   0.00018   0.00000   0.00196   0.00201   2.61466
   D45       -1.58612  -0.00003   0.00000   0.00175   0.00182  -1.58429
   D46       -3.12260  -0.00003   0.00000   0.00171   0.00182  -3.12077
   D47        0.00521  -0.00030   0.00000  -0.00208  -0.00214   0.00307
   D48       -0.01215   0.00045   0.00000   0.00606   0.00601  -0.00615
   D49        3.11565   0.00018   0.00000   0.00227   0.00205   3.11770
   D50        3.12764  -0.00011   0.00000  -0.00198  -0.00210   3.12554
   D51       -0.01989   0.00014   0.00000   0.00251   0.00259  -0.01730
   D52        0.01663  -0.00048   0.00000  -0.00589  -0.00587   0.01076
   D53       -3.13090  -0.00023   0.00000  -0.00139  -0.00118  -3.13208
   D54        1.00873   0.00039   0.00000   0.00458   0.00454   1.01327
   D55       -1.05507   0.00018   0.00000   0.00162   0.00158  -1.05349
   D56       -3.11379  -0.00001   0.00000  -0.00008  -0.00011  -3.11390
   D57       -1.06704   0.00031   0.00000   0.00559   0.00563  -1.06141
   D58       -3.13083   0.00010   0.00000   0.00263   0.00266  -3.12817
   D59        1.09363  -0.00009   0.00000   0.00094   0.00097   1.09460
   D60        3.13534   0.00012   0.00000   0.00228   0.00229   3.13763
   D61        1.07155  -0.00009   0.00000  -0.00068  -0.00068   1.07087
   D62       -0.98718  -0.00028   0.00000  -0.00237  -0.00237  -0.98954
   D63        1.16739  -0.00071   0.00000  -0.00955  -0.00954   1.15785
   D64       -3.03130   0.00002   0.00000  -0.00364  -0.00364  -3.03495
   D65       -0.97448  -0.00027   0.00000  -0.00516  -0.00517  -0.97964
   D66        0.00068  -0.00011   0.00000  -0.00232  -0.00243  -0.00175
   D67        3.13960  -0.00005   0.00000  -0.00190  -0.00196   3.13764
   D68       -3.12615  -0.00004   0.00000   0.00067   0.00050  -3.12565
   D69        0.01277   0.00002   0.00000   0.00109   0.00097   0.01374
   D70        0.00443   0.00004   0.00000  -0.00037  -0.00048   0.00395
   D71       -3.13815   0.00008   0.00000   0.00053   0.00051  -3.13765
   D72       -3.13457  -0.00003   0.00000  -0.00084  -0.00098  -3.13555
   D73        0.00603   0.00001   0.00000   0.00006   0.00001   0.00604
   D74        0.00165   0.00003   0.00000   0.00030   0.00037   0.00202
   D75        3.13970  -0.00002   0.00000  -0.00016  -0.00002   3.13968
   D76       -3.13902   0.00002   0.00000  -0.00047  -0.00055  -3.13957
   D77       -0.00097  -0.00004   0.00000  -0.00093  -0.00094  -0.00191
   D78       -0.01192   0.00015   0.00000   0.00259   0.00264  -0.00928
   D79        3.13557  -0.00023   0.00000  -0.00229  -0.00211   3.13347
   D80        3.13318   0.00023   0.00000   0.00313   0.00312   3.13630
   D81       -0.00252  -0.00015   0.00000  -0.00175  -0.00162  -0.00414
         Item               Value     Threshold  Converged?
 Maximum Force            0.054903     0.000450     NO 
 RMS     Force            0.009127     0.000300     NO 
 Maximum Displacement     0.331766     0.001800     NO 
 RMS     Displacement     0.067405     0.001200     NO 
 Predicted change in Energy=-1.937956D-02
 GradGradGradGradGradGradGradGradGradGradGradGradGradGradGradGradGradGrad

                          Input orientation:                          
 ---------------------------------------------------------------------
 Center     Atomic      Atomic             Coordinates (Angstroms)
 Number     Number       Type             X           Y           Z
 ---------------------------------------------------------------------
      1          6           0       -2.721035   -0.492331    0.461236
      2          6           0       -1.273096   -0.707249    0.952304
      3          6           0       -0.448630   -0.465035   -0.321760
      4          8           0       -1.047897   -1.944091    1.566794
      5          1           0       -1.026437    0.059343    1.699095
      6          8           0       -1.146617    0.605045   -0.953498
      7          1           0       -0.483016   -1.375844   -0.943618
      8          6           0        0.993802   -0.121179   -0.130206
      9          6           0       -2.552517    0.367515   -0.798383
     10          1           0       -3.330576    0.020011    1.219207
     11          8           0       -3.319894   -1.719407    0.078196
     12          6           0       -3.241880    1.713766   -0.750365
     13          1           0       -2.929361   -0.214211   -1.656418
     14          8           0       -2.793740    2.496278    0.339886
     15          1           0       -4.321650    1.565100   -0.617889
     16          1           0       -3.084678    2.237718   -1.707421
     17          1           0       -3.576172   -2.186433    0.879959
     18          1           0       -1.248657   -2.628573    0.917000
     19          1           0       -1.870259    2.702546    0.164791
     20          6           0        1.366155    1.006133    0.532428
     21          7           0        2.660101    1.375357    0.712755
     22          6           0        3.736001    0.620554    0.229978
     23          7           0        3.329542   -0.515879   -0.440598
     24          6           0        2.033905   -0.968714   -0.678878
     25          1           0        0.587142    1.657347    0.926530
     26          1           0        2.904708    2.224660    1.209117
     27          1           0        4.082795   -1.086641   -0.806032
     28          8           0        4.893669    0.935123    0.386559
     29          8           0        1.864508   -2.006240   -1.306340
 ---------------------------------------------------------------------
                    Distance matrix (angstroms):
                    1          2          3          4          5
     1  C    0.000000
     2  C    1.543977   0.000000
     3  C    2.403675   1.536766   0.000000
     4  O    2.475733   1.399317   2.472522   0.000000
     5  H    2.169863   1.098273   2.166262   2.007912   0.000000
     6  O    2.384219   2.317368   1.425254   3.586044   2.710809
     7  H    2.786205   2.160038   1.103386   2.635178   3.055978
     8  C    3.779891   2.579561   1.495173   3.220459   2.731355
     9  C    1.534397   2.420112   2.312283   3.633382   2.943007
    10  H    1.099343   2.198493   3.303856   3.031359   2.353911
    11  O    1.418120   2.444976   3.158729   2.725505   3.324336
    12  C    2.570238   3.554787   3.568350   4.854143   3.693935
    13  H    2.145975   3.129174   2.828118   4.113573   3.867224
    14  O    2.991956   3.598612   3.834931   4.926474   3.302948
    15  H    2.821259   4.113728   4.382856   5.273018   4.300483
    16  H    3.505493   4.362201   4.021652   5.688276   4.537183
    17  H    1.943339   2.738134   3.766810   2.631093   3.495089
    18  H    2.634225   1.921803   2.618294   0.964911   2.808193
    19  H    3.319479   3.550139   3.505899   4.922715   3.170591
    20  C    4.353801   3.174527   2.487452   3.949859   2.825247
    21  N    5.701592   4.456980   3.757855   5.049492   4.036746
    22  C    6.556318   5.232195   4.358217   5.590184   5.015384
    23  N    6.117462   4.812595   3.780382   5.023085   4.887097
    24  C    4.912866   3.696670   2.558165   3.935976   4.009658
    25  H    3.972613   3.008732   2.671247   4.006700   2.398773
    26  H    6.292086   5.110390   4.563214   5.755823   4.514706
    27  H    6.946314   5.649889   4.599427   5.717475   5.804584
    28  O    7.747704   6.406749   5.567973   6.707088   6.126777
    29  O    5.142320   4.078407   2.948782   4.091560   4.653691
                    6          7          8          9         10
     6  O    0.000000
     7  H    2.089111   0.000000
     8  C    2.405537   2.101622   0.000000
     9  C    1.434237   2.709839   3.641657   0.000000
[...]
 0.02057291,-0.01039424,-0.00169189,0.03584430,0.01617149,0.00238559,-0
 .14969686,-0.00945420,-0.02196505,0.72306575,0.00021214,-0.00006189,-0
 .00044144,0.00033606,-0.00390618,0.00133791,0.00017072,-0.00364987,0.0
 0154343,-0.00618070,0.00298244,-0.00016664,0.00008147,0.00036316,-0.00
 006252,0.00218245,0.00051778,-0.00019455,0.00048133,0.00017588,0.00043
 976,0.01951997,0.03087162,-0.00102012,-0.00032813,-0.00044888,0.000333
 66,0.00007121,0.00000450,0.00005646,-0.00036007,0.00057967,-0.00019215
 ,0.00016425,-0.00006043,-0.00001011,0.00012238,0.00007610,-0.00005650,
 -0.00003753,0.00031013,0.00001112,0.00001500,-0.00005108,-0.00002131,-
 0.00000883,0.00008069,-0.00001402,0.00063135,-0.00006689,0.00041011,0.
 00864108,0.00031455,-0.00116822,-0.00000808,-0.00024403,0.00000008,-0.
 02456196,-0.01515660,-0.00156016,0.02223757,-0.05383054,0.02432797,-0.
 05025789,-0.25545459,0.04384722,-0.01663673,0.73526864,-0.00005197,0.0
 0010734,0.00006955,-0.00031483,-0.00016664,-0.00028790,0.00040782,0.00
 359689,0.00210458,0.00007954,-0.00014065,-0.00007588,-0.00006744,-0.00
 000166,-0.00002273,-0.00165721,-0.00013448,-0.00003842,0.00046556,-0.0
 0012013,-0.00005265,-0.01792942,-0.00285252,0.00576038,0.00022958,0.00
 012516,-0.00033299,-0.00005358,-0.00000529,0.00000397,-0.00001026,-0.0
 0009475,0.00001996,-0.00009910,-0.00008143,-0.00009998,-0.00014943,0.0
 0001945,0.00002196,0.00003218,0.00005120,0.00015343,-0.00001136,0.0000
 2821,0.00003213,0.00001788,-0.00001295,0.00001344,-0.00001843,0.000038
 78,-0.00002637,-0.00004955,0.00044970,0.00055086,0.00001787,-0.0000378
 3,-0.00013119,0.00218885,0.00164494,0.00021247,0.00032681,0.02271389,0
 .00229588,-0.00885960,0.05592423,-0.07654604,0.17365800,-0.20737124,0.
 17389317,-0.00034859,0.00028165,-0.00030777,-0.00113087,0.00243662,-0.
 00070532,-0.01883926,0.02077916,-0.01072938,0.00152499,-0.00026314,0.0
 0008710,-0.00012811,0.00009610,0.00042888,-0.00376655,-0.00173672,0.00
 025509,-0.00046804,0.00012523,-0.00096617,-0.17716498,0.04735515,-0.04
 038494,-0.00099684,0.00094010,-0.00113926,0.00019200,0.00000167,-0.000
 00122,0.00081148,0.00001632,0.00040209,-0.00030717,0.00008999,-0.00018
 101,-0.00014355,-0.00003347,0.00017395,0.00033733,-0.00042237,-0.00001
 980,0.00009988,0.00005709,0.00001205,-0.00005843,-0.00006480,0.0000390
 2,-0.00068184,-0.00016796,-0.00028510,-0.00329979,-0.00545858,0.001444
 85,-0.00039290,0.00040151,0.00025357,0.05854028,0.01577306,0.00887987,
 -0.04507990,0.01632400,-0.01537932,0.00041055,-0.08717353,0.03001488,-
 0.25751893,0.01088725,-0.05378895,0.59239082,-0.00077156,0.00062984,0.
 00147144,-0.00409296,0.01325518,-0.00423985,0.00576250,0.01577211,-0.0
 0113525,0.01894875,-0.00958361,0.00131145,-0.00016676,-0.00094888,-0.0
 0031835,-0.00823547,-0.00398896,0.00049939,-0.00288912,-0.00164241,-0.
 00221840,0.06093688,-0.14296759,0.03464031,0.00238617,0.00110908,-0.00
 108325,-0.00044324,-0.00012938,-0.00010454,0.00071148,-0.00239345,0.00
 048148,-0.00035849,-0.00005937,0.00035415,-0.00067803,-0.00016532,0.00
 007592,-0.00034138,-0.00058476,0.00000970,-0.00021103,0.00018458,0.000
 08058,0.00009955,-0.00024632,-0.00004796,-0.00187937,0.00042163,-0.001
 28143,-0.02549798,-0.00436701,0.00341370,0.00087995,0.00014523,-0.0003
 2960,-0.00390195,-0.04845653,0.01522154,0.02342168,0.00247536,0.003976
 64,-0.03493542,0.00575413,-0.01428434,-0.02600837,-0.13235083,0.017292
 37,0.08381820,0.87452574,0.00028436,-0.00025421,-0.00039386,0.00062616
 ,-0.00271517,0.00210345,-0.00727820,0.00156784,-0.00225217,-0.00443481
 ,0.00266144,-0.00049139,0.00018209,0.00004884,-0.00008395,0.00222102,0
 .00001792,0.00054679,0.00067250,0.00058033,0.00067488,-0.04400899,0.03
 028040,-0.10361197,-0.00106465,0.00024519,0.00090400,0.00014240,0.0000
 2379,-0.00001480,-0.00013917,0.00059160,-0.00031977,-0.00011246,0.0000
 1788,-0.00001105,0.00040117,0.00008605,-0.00005430,0.00015150,0.000063
 95,-0.00019348,0.00006902,-0.00000217,-0.00002714,-0.00004664,0.000093
 17,-0.00000625,0.00043840,-0.00012186,0.00038422,0.00624238,0.00100211
 ,-0.00090478,-0.00039649,0.00010344,0.00031393,0.01508082,0.02020257,0
 .00082691,-0.01708906,0.00183349,-0.00974656,0.01384249,-0.02763780,-0
 .00223531,-0.04229394,0.02658977,-0.07234375,0.07005213,-0.19036550,0.
 28294679,-0.00000851,-0.00026615,0.00019464,-0.00025182,0.00015630,-0.
 00014397,0.00001310,-0.00003913,0.00129618,-0.00026596,0.00033143,-0.0
 0020707,0.00003529,-0.00001909,-0.00000197,-0.00229807,-0.00156482,-0.
 00065128,0.00015134,0.00045711,-0.00002306,0.01322650,-0.00766843,0.00
 365190,-0.00113311,0.00017232,0.00026377,-0.00006903,0.00006634,-0.000
 07222,-0.00003756,0.00022471,-0.00002992,-0.00004507,-0.00005999,0.000
 09571,0.00021383,0.00002171,0.00000988,0.00009265,0.00000542,-0.000258
 44,0.00004737,0.00000841,-0.00006809,-0.00008161,0.00010480,-0.0000482
 4,0.00006869,-0.00001606,0.00002352,0.00039113,0.00002134,-0.00004760,
 -0.00007171,0.00002566,0.00053057,-0.14419840,0.11820635,-0.06511684,-
 0.01964714,0.02356403,-0.01314463,-0.00130168,-0.00593084,0.00019123,0
 .00083979,0.00052307,0.00023216,-0.00194920,-0.00225481,-0.00280442,0.
 15742420,0.00022012,-0.00010492,-0.00018502,0.00028332,-0.00022545,0.0
 0028125,0.00251048,-0.00114059,-0.00078561,-0.00023831,0.00032132,-0.0
 0011280,0.00002370,0.00000492,0.00002001,0.00098841,0.00054729,-0.0004
 8942,-0.00045157,-0.00008373,-0.00000044,0.01562674,-0.01239557,0.0110
 4419,-0.00084308,0.00056972,0.00004741,0.00006213,0.00007470,-0.000055
 72,0.00001577,0.00014828,0.00001237,0.00002877,0.00019539,0.00003060,0
 .00016227,0.00001802,0.00000142,-0.00003270,-0.00023247,-0.00011065,0.
 00001983,-0.00005742,-0.00001495,0.00002705,-0.00003247,0.00003689,0.0
 0002918,-0.00002764,0.00001814,0.00038002,0.00003218,-0.00002765,-0.00
 006455,0.00028841,0.00009909,0.12316136,-0.21861056,0.08863753,-0.0093
 9858,0.01076950,-0.00499637,-0.00201155,0.00006412,0.00064053,-0.00012
 321,0.00032102,-0.00030032,-0.00483462,-0.00248827,0.00281751,-0.12657
 377,0.22274557,0.00015117,0.00006862,-0.00030152,0.00075381,0.00025495
 ,0.00066411,0.00088952,-0.00120814,-0.00466420,0.00001342,-0.00001608,
 -0.00011589,0.00002646,0.00001937,-0.00002219,-0.00069197,-0.00069378,
 -0.00066523,-0.00093825,-0.00020811,-0.00005184,-0.00395054,0.00439393
 ,0.00669870,-0.00011959,-0.00005952,-0.00019369,0.00009742,0.00000636,
 0.00002495,-0.00003164,-0.00000810,0.00001992,0.00027466,0.00006031,0.
 00043446,-0.00007423,-0.00004910,-0.00000714,-0.00032024,-0.00017553,-
 0.00024337,-0.00004327,-0.00002640,-0.00005813,0.00000002,0.00003656,-
 0.00004725,0.00001044,0.00000550,-0.00000010,-0.00000797,0.00004468,0.
 00007293,0.00053807,0.00014652,-0.00020718,-0.06751388,0.08777610,-0.0
 8779881,-0.00269262,0.00385346,0.00098052,-0.00077254,-0.00020246,0.00
 378593,0.00031812,-0.00025056,-0.00047513,-0.00175422,0.00318639,0.009
 69242,0.07511315,-0.09564979,0.07691879,-0.00001424,-0.00005394,0.0000
 6200,-0.00007852,0.00007196,-0.00027822,0.00066563,-0.00148235,0.00005
 845,0.00009071,-0.00004670,0.00006575,0.00000602,0.00000054,0.00003619
 ,0.00013715,0.00031941,0.00005984,-0.00037201,-0.00003546,-0.00003649,
 -0.00516728,0.00121517,-0.00260557,0.00003336,0.00000825,-0.00002397,-
 0.00003382,0.00000573,-0.00001203,-0.00002266,0.00002841,0.00002015,-0
 .00004905,-0.00007041,-0.00005570,-0.00000793,0.00000211,0.00000354,0.
 00005422,0.00010912,0.00005307,0.00001181,0.00001471,0.00000786,-0.000
 01406,0.00001528,-0.00000582,0.00000549,0.00000768,-0.00001303,-0.0001
 5631,0.00000596,-0.00001097,-0.00005941,-0.00012359,0.00000107,-0.0065
 5736,-0.03082905,0.00927971,-0.11210173,-0.12699148,0.01163221,0.02006
 070,0.02453973,-0.00200942,-0.00420834,0.00365507,-0.00308132,-0.00151
 371,-0.00008025,-0.00020742,0.00017912,0.00044153,0.00035983,0.1101605
 7,-0.00003271,0.00003468,-0.00002267,-0.00012269,-0.00008849,0.0001472
 6,-0.00029887,0.00063810,0.00045502,0.00023778,0.00002450,-0.00004429,
 -0.00002647,-0.00000001,-0.00000459,0.00047359,-0.00024937,-0.00001648
 ,0.00026925,-0.00000105,0.00006079,0.00014227,0.00416413,-0.00042375,-
 0.00027735,0.00002450,0.00004307,0.00004813,0.00000125,-0.00000842,0.0
 0015816,0.00001165,0.00001330,0.00003833,0.00010872,0.00002813,0.00004
 629,0.00000124,0.00001253,0.00000391,-0.00019133,-0.00005928,0.0000085
 0,-0.00001752,-0.00001686,-0.00000381,-0.00002211,0.00001883,-0.000090
 16,-0.00003103,-0.00001338,-0.00028800,-0.00007796,0.00006518,-0.00001
 244,0.00018681,0.00003735,-0.00144913,-0.00006068,-0.00222094,-0.12441
 986,-0.39911727,0.08468778,-0.00995751,-0.01929080,0.00298312,0.003190
 25,-0.00097427,0.00219447,0.00208704,-0.00171304,0.00085418,0.00045190
 ,0.00072338,-0.00063308,0.13177956,0.41269996,-0.00003137,0.00000621,0
 .00022958,-0.00052808,0.00015739,-0.00032848,-0.00037213,0.00019413,0.
 00224032,0.00003635,-0.00012924,-0.00001757,0.00002182,-0.00001564,-0.
 00004389,-0.00001106,0.00002173,-0.00024886,0.00035386,0.00002570,0.00
 004014,-0.00212777,-0.00000640,0.00249903,-0.00002208,-0.00000866,0.00
 005048,-0.00005686,0.00001870,-0.00003795,-0.00003683,-0.00006141,-0.0
 0008883,0.00004384,-0.00001090,0.00012626,-0.00001180,-0.00000355,-0.0
 0001602,-0.00008260,-0.00002491,-0.00012962,-0.00000807,-0.00000016,-0
 .00001164,-0.00000477,0.00002873,-0.00001840,0.00002919,0.00001959,0.0
 0002136,-0.00001920,0.00003386,-0.00001517,0.00006404,0.00003553,0.000
 07973,0.00039451,-0.01019833,-0.00316416,0.01080085,0.08459609,-0.0319
 2620,0.00840578,0.01147222,-0.00202603,-0.00279915,0.00236395,0.002166
 58,-0.00094053,0.00031469,-0.00099232,0.00037804,-0.00064659,-0.001398
 42,-0.01455005,-0.08570575,0.03502102,-0.00004066,0.00001815,0.0000092
 6,-0.00002147,0.00033035,-0.00013699,0.00034177,0.00144904,-0.00030539
 ,0.00063181,-0.00023793,0.00002528,-0.00003100,-0.00002103,0.00003211,
 -0.00051074,-0.00010760,0.00002192,-0.00001247,-0.00006935,-0.00004380
 ,-0.00434282,-0.00437065,-0.00099071,0.00002868,0.00011662,-0.00011217
 ,-0.00000215,-0.00000597,0.00000100,0.00008249,-0.00003113,0.00004547,
 -0.00006170,-0.00002086,-0.00003539,-0.00003117,-0.00000298,0.00001820
 ,0.00003982,-0.00001709,0.00003816,0.00000569,0.00001534,0.00000724,-0
 .00000235,-0.00000865,0.00000487,-0.00008620,-0.00000507,-0.00004960,-
 0.00080641,-0.00008629,0.00015305,-0.00002611,0.00001314,-0.00001570,-
 0.00091182,-0.00085053,0.00018715,-0.00055190,-0.00499143,0.00023770,0
 .01907619,-0.00700780,0.00741542,-0.22019713,0.16009417,-0.10162842,-0
 .01734637,0.02698111,-0.01322468,-0.00004540,0.00006913,0.00006853,0.0
 0093847,-0.00064594,0.00017079,0.22228503,0.00002348,0.00004579,0.0000
 5637,0.00001958,0.00022740,-0.00010930,0.00007935,0.00068374,0.0000107
 9,0.00009538,-0.00020099,0.00003787,0.,-0.00003045,-0.00001037,-0.0005
 7335,0.00001069,-0.00005657,-0.00002968,-0.00001927,-0.00004199,-0.003
 46264,0.00006062,0.00042041,0.00016185,0.00004541,-0.00008350,-0.00002
 455,-0.00000448,-0.00000400,-0.00006564,-0.00009133,-0.00003153,-0.000
 01137,-0.00002644,0.00001882,-0.00004872,-0.00000143,-0.00000352,-0.00
 003461,0.00002232,-0.00000267,-0.00001353,0.00000973,0.00001061,0.0000
 0617,0.00000107,-0.00000722,0.00001425,0.00003934,-0.00000129,-0.00006
 579,0.00008991,0.00001243,0.00003414,-0.00003124,-0.00001154,-0.000946
 60,-0.00016387,-0.00042663,-0.00447183,-0.00423630,0.00138538,0.025294
 12,-0.01763063,0.01179292,0.15689775,-0.24131500,0.10936621,-0.0036587
 6,0.01668575,-0.00576358,0.00011150,0.00000300,-0.00011067,0.00106325,
 -0.00047624,0.00067183,-0.17125534,0.24577550,0.00000084,0.00000797,-0
 .00000120,0.00001067,0.00005898,0.00007854,-0.00005616,0.00020694,0.00
 033701,0.00023790,-0.00001136,-0.00007864,0.00000827,-0.00003794,-0.00
 001601,0.00004006,0.00001025,-0.00006672,-0.00003760,-0.00001058,-0.00
 002133,-0.00107468,0.00043003,0.00405447,-0.00005108,-0.00001985,-0.00
 005059,0.00001807,-0.00000554,-0.00000510,0.00002857,-0.00001453,-0.00
 002487,0.00002939,0.00001976,0.00003050,-0.00001591,-0.00000028,0.0000
 0491,-0.00001185,-0.00002071,-0.00005297,0.00000394,-0.00000702,-0.000
 00510,-0.00000526,0.00000234,-0.00000570,-0.00002993,-0.00000331,0.000
 00906,-0.00031629,-0.00008213,0.00007818,-0.00000692,0.00001064,0.0000
 3604,0.00025903,-0.00034491,-0.00059523,-0.00009807,0.00107544,0.00386
 746,-0.00245098,0.00264836,-0.00229881,-0.10108964,0.11111634,-0.07860
 792,-0.00354947,0.00176448,-0.00035076,0.00007979,-0.00012071,-0.00038
 589,-0.00028955,0.00022495,0.00078327,0.10603647,-0.11468711,0.0800035
 5,0.00022012,0.00007867,0.00064503,-0.00016416,0.00092630,-0.00177193,
 0.00144508,-0.00179936,0.00103683,-0.00131230,-0.00066243,0.00056310,0
 .00014645,0.00001044,-0.00003741,-0.00271500,0.00057110,-0.00000793,-0
 .00097966,0.00012851,-0.00011817,-0.00125433,0.00027055,0.00069728,0.0
 0174881,-0.00014435,-0.00021012,-0.00037795,0.00000267,-0.00004113,-0.
 00095143,-0.00051558,-0.00027572,-0.00002659,-0.00032553,0.00002182,-0
 .00030027,0.00000436,-0.00009485,-0.00028750,0.00056074,0.00019835,-0.
 00011104,0.00004720,0.00009125,0.00008031,0.00006705,-0.00004964,0.000
 49273,0.00029123,0.00008063,0.00166956,0.00059563,-0.00055255,0.000304
 33,-0.00051845,-0.00030313,0.00383455,0.00542139,-0.00196662,-0.074506
 57,0.01514505,-0.02885174,-0.64373474,-0.13752968,-0.10494737,-0.04366
 358,-0.04678247,-0.00309736,0.00950719,0.00314661,-0.00052040,-0.00177
 756,-0.00079567,-0.00017342,-0.00251122,-0.00127284,0.00061891,-0.0034
 9234,-0.00061319,0.00039412,0.76310392,0.00009638,0.00000855,-0.000088
 01,0.00030992,-0.00066175,0.00016756,0.00053472,0.00068866,-0.00014863
 ,-0.00122738,0.00055026,0.00001166,0.00001190,0.00005113,0.00001876,-0
 .00060910,0.00030110,-0.00018215,0.00012417,0.00005441,0.00010498,-0.0
 0207835,0.00753367,-0.00318673,0.00017904,0.00003307,-0.00008016,-0.00
 001462,-0.00000660,0.00001914,-0.00017416,0.00009064,-0.00005381,-0.00
 003474,-0.00011469,-0.00002550,-0.00005509,0.00001347,-0.00001592,-0.0
 0001655,0.00020317,0.00006298,-0.00000921,0.00001349,0.00001770,0.0000
 0595,0.00003225,-0.00001689,0.00018772,0.00000587,0.00008614,0.0016990
 6,0.00008783,-0.00025753,0.00002681,-0.00018231,-0.00004608,-0.0094941
 8,-0.00959135,0.00194797,0.04128951,0.02531700,0.00939982,-0.13635063,
 -0.13563961,-0.01943032,-0.07630588,-0.02090194,-0.00744788,0.02092597
 ,-0.00346444,0.00821094,0.00113782,0.00028087,0.00010095,-0.00389897,0
 .00232557,-0.00275759,0.00128377,0.00378153,-0.00179851,0.16973460,0.1
 3349307,0.00002608,0.00000820,0.00015352,0.00000050,0.00048755,-0.0005
 9368,0.00024942,-0.00088779,-0.00009456,0.00010944,-0.00040285,0.00025
 550,0.00001217,0.00000617,0.00003121,-0.00055096,0.00008617,0.00003365
 ,-0.00035891,0.00009030,-0.00006125,0.00063617,-0.00251701,0.00004713,
 0.00042458,-0.00003772,-0.00005108,-0.00009668,0.00000715,-0.00001068,
 -0.00018066,-0.00012952,0.00000359,-0.00003035,-0.00006664,-0.00006322
 ,-0.00006123,-0.00000223,-0.00001421,-0.00002566,0.00012327,0.00013009
 ,-0.00002104,0.00001073,0.00002615,0.00002221,-0.00000067,0.00000486,0
 .00007008,0.00006283,-0.00002761,-0.00019283,0.00007801,-0.00018533,0.
 00005203,-0.00010796,-0.00013033,0.00243459,0.00553363,0.00385715,-0.0
 3654327,0.00265632,0.01061811,-0.10525170,-0.01969914,-0.10268676,0.00
 582992,0.00039625,0.02209284,-0.00561478,0.00395296,0.00465057,-0.0007
 1204,-0.00031481,-0.00027512,0.00145420,-0.00210864,-0.00267564,-0.000
 37741,-0.00242148,-0.00295204,0.13731771,0.01599759,0.06889564,0.00044
 715,0.00020757,-0.00078535,0.00219275,-0.01036843,0.00256340,0.0012979
 4,-0.00228958,0.00127752,-0.02596408,0.00333513,0.00261019,0.00009569,
 0.00084774,0.00010033,0.00061830,0.00186373,-0.00068017,0.00104595,0.0
 0031767,0.00082156,0.02177049,0.01398867,-0.00517591,-0.00012515,-0.00
 034457,0.00032863,0.00011222,-0.00002739,0.00008158,-0.00098739,0.0010
 7683,-0.00070900,0.00004761,-0.00023219,-0.00014889,0.00008595,0.00012
 545,-0.00013187,-0.00002892,0.00062397,0.00014260,0.00000820,-0.000018
 43,0.00003572,0.00000866,0.00016741,-0.00000692,0.00157999,0.00009587,
 0.00129901,0.00366497,0.00713389,-0.00360589,-0.00015945,-0.00039425,-
 0.00006381,-0.00842740,0.00302660,-0.00403371,0.00633670,-0.00688027,0
 .00360702,-0.00281097,0.02211307,-0.00895729,-0.03251125,-0.08486415,0
 .01321197,-0.13267948,-0.11434668,0.02321490,0.00049884,0.00131781,0.0
 0046980,0.00052440,-0.00003717,0.00028436,0.00509028,0.00147477,0.0019
 3626,-0.00438680,-0.00727849,0.00137841,0.16265480,0.00041624,-0.00003
 913,-0.00136239,0.00123972,-0.00835338,0.00313787,-0.00568337,-0.00217
 681,-0.00251133,-0.01405693,0.00992163,-0.00064683,0.00010398,0.000826
 25,0.00026099,0.00261406,0.00257982,-0.00066583,0.00170155,0.00088249,
 0.00114870,-0.00280239,-0.06408731,0.02540984,-0.00182090,-0.00026388,
 0.00043833,0.00032776,0.00005714,0.00013324,-0.00039414,0.00170938,-0.
 00016776,0.00006163,-0.00008022,-0.00028167,0.00035889,0.00012553,-0.0
 0004636,0.00026094,0.00047875,0.00004166,0.00013535,-0.00007185,-0.000
 02751,-0.00007323,0.00018768,0.00001529,0.00130379,-0.00038847,0.00086
 013,0.01834904,-0.00350992,-0.00235568,-0.00059369,-0.00017663,0.00024
 493,0.01680818,0.00991743,0.00232983,-0.00992024,-0.00505171,-0.001038
 45,0.00502200,0.01037731,0.00037011,-0.05659539,-0.04339317,0.00521495
 ,-0.11858215,-0.57540848,0.12896785,-0.00119714,-0.00170858,-0.0006623
 9,0.00032875,0.00136668,-0.00039121,-0.00063518,-0.00325412,-0.0004119
 7,-0.00604255,-0.00430291,-0.00080065,0.16936541,0.67383649,-0.0002917
 8,-0.00010322,0.00042103,0.00008473,0.00384286,-0.00206911,0.00286104,
 -0.00142471,-0.00165137,0.00810198,-0.00257071,0.00437369,-0.00023886,
 -0.00005029,0.00012650,-0.00138648,-0.00001103,0.00060646,-0.00006120,
 -0.00004745,0.00016009,0.00099684,0.03093098,0.01340625,0.00109501,0.0
 0021436,-0.00027920,-0.00014105,-0.00000123,-0.00001226,0.00026062,-0.
 00058672,0.00048779,-0.00010537,-0.00002492,0.00000691,-0.00015620,-0.
 00011619,0.00004368,-0.00005304,-0.00014046,0.00014457,-0.00005386,0.0
 0004251,0.00003438,0.00003206,-0.00008912,0.00000642,-0.00054338,0.000
 02231,-0.00065641,-0.00813487,-0.00133086,-0.00523279,0.00019960,0.000
 03156,-0.00020365,-0.00863262,-0.00132237,0.00170071,0.00461543,0.0001
 9860,0.00133140,-0.00400514,0.00366803,0.00508049,0.00576021,-0.000244
 51,0.01964972,0.02370373,0.12736130,-0.10901035,0.00126926,0.00012392,
 -0.00238165,0.00008569,-0.00054783,-0.00011854,0.00244762,-0.00001064,
 -0.00376411,0.00135446,-0.00061047,-0.00097850,-0.02906444,-0.15720370
 ,0.07877785\\0.00000200,0.00001077,0.00000028,0.00000195,-0.00000848,0
 .00000352,0.00000972,-0.00001386,0.00000022,0.00000085,0.00000560,-0.0
 0000127,0.00000299,0.00000556,-0.00000048,0.00000416,0.00001146,0.0000
 0391,0.00000032,-0.00000137,0.00000014,-0.00000051,-0.00000562,0.00000
 991,-0.00001058,-0.00001165,0.00000259,0.00000194,-0.00000293,0.000001
 35,-0.00000102,-0.00000146,-0.00001029,0.00000794,-0.00000034,0.000000
 07,0.00000024,-0.00000282,-0.00000274,-0.00000448,0.00000282,-0.000006
 80,-0.00000108,-0.00000143,-0.00000295,-0.00000100,-0.00000126,-0.0000
 0358,0.00000129,0.00000074,0.00000448,-0.00000803,-0.00000056,0.000005
 51,-0.00000144,-0.00000197,-0.00000250,0.00000961,0.00000915,0.0000018
 5,-0.00000636,-0.00000178,-0.00000691,0.00000394,-0.00000669,-0.000000
 89,0.00000379,0.00000939,0.00001048,-0.00000871,0.00000872,-0.00001503
 ,-0.00000177,-0.00000324,-0.00000290,-0.00000167,-0.00000046,0.0000042
 6,-0.00000112,-0.00000088,-0.00000018,-0.00000350,0.00000339,0.0000015
 8,0.00000053,-0.00000080,0.00000637\\\@
 The archive entry for this job was punched.


 Life may have no meaning.  Or even worse, it may have a
 meaning of which I disapprove.
                                 -- Ashleigh Brilliant
 Job cpu time:       0 days 10 hours 43 minutes 32.6 seconds.
 Elapsed time:       0 days  0 hours 16 minutes 14.0 seconds.
 File lengths (MBytes):  RWF=    632 Int=      0 D2E=      0 Chk=     21 Scr=      1
 Normal termination of Gaussian 16 at Sat Oct 26 06:50:12 2024.
