 Entering Gaussian System, Link 0=g16
 Input=UridineMNsllaPBE0aVDZ.gjf
 Output=UridineMNsllaPBE0aVDZ.log
 Initial command:
 /sw/contrib/chem-src/g16/c01/g16/l1.exe "/scr/Gau-81515.inp" -scrdir="/scr/"
 Entering Link 1 = /sw/contrib/chem-src/g16/c01/g16/l1.exe PID=     81516.
  
 Copyright (c) 1988-2019, Gaussian, Inc.  All Rights Reserved.
  
 This is part of the Gaussian(R) 16 program.  It is based on
 the Gaussian(R) 09 system (copyright 2009, Gaussian, Inc.),
 the Gaussian(R) 03 system (copyright 2003, Gaussian, Inc.),
 the Gaussian(R) 98 system (copyright 1998, Gaussian, Inc.),
 the Gaussian(R) 94 system (copyright 1995, Gaussian, Inc.),
 the Gaussian 92(TM) system (copyright 1992, Gaussian, Inc.),
 the Gaussian 90(TM) system (copyright 1990, Gaussian, Inc.),
 the Gaussian 88(TM) system (copyright 1988, Gaussian, Inc.),
 the Gaussian 86(TM) system (copyright 1986, Carnegie Mellon
 University), and the Gaussian 82(TM) system (copyright 1983,
 Carnegie Mellon University). Gaussian is a federally registered
 trademark of Gaussian, Inc.
  
 This software contains proprietary and confidential information,
 including trade secrets, belonging to Gaussian, Inc.
  
 This software is provided under written license and may be
 used, copied, transmitted, or stored only in accord with that
 written license.
  
 The following legend is applicable only to US Government
 contracts under FAR:
  
                    RESTRICTED RIGHTS LEGEND
  
 Use, reproduction and disclosure by the US Government is
 subject to restrictions as set forth in subparagraphs (a)
 and (c) of the Commercial Computer Software - Restricted
 Rights clause in FAR 52.227-19.
  
 Gaussian, Inc.
 340 Quinnipiac St., Bldg. 40, Wallingford CT 06492
  
  
 ---------------------------------------------------------------
 Warning -- This program may not be used in any manner that
 competes with the business of Gaussian, Inc. or will provide
 assistance to any competitor of Gaussian, Inc.  The licensee
 of this program is prohibited from giving any competitor of
 Gaussian, Inc. access to this program.  By using this program,
 the user acknowledges that Gaussian, Inc. is engaged in the
 business of creating and licensing software in the field of
 computational chemistry and represents and warrants to the
 licensee that it is not a competitor of Gaussian, Inc. and that
 it will not use this program in any manner prohibited above.
 ---------------------------------------------------------------
  

 Cite this work as:
 Gaussian 16, Revision C.01,
 M. J. Frisch, G. W. Trucks, H. B. Schlegel, G. E. Scuseria, 
 M. A. Robb, J. R. Cheeseman, G. Scalmani, V. Barone, 
 G. A. Petersson, H. Nakatsuji, X. Li, M. Caricato, A. V. Marenich, 
 J. Bloino, B. G. Janesko, R. Gomperts, B. Mennucci, H. P. Hratchian, 
 J. V. Ortiz, A. F. Izmaylov, J. L. Sonnenberg, D. Williams-Young, 
 F. Ding, F. Lipparini, F. Egidi, J. Goings, B. Peng, A. Petrone, 
 T. Henderson, D. Ranasinghe, V. G. Zakrzewski, J. Gao, N. Rega, 
 G. Zheng, W. Liang, M. Hada, M. Ehara, K. Toyota, R. Fukuda, 
 J. Hasegawa, M. Ishida, T. Nakajima, Y. Honda, O. Kitao, H. Nakai, 
 T. Vreven, K. Throssell, J. A. Montgomery, Jr., J. E. Peralta, 
 F. Ogliaro, M. J. Bearpark, J. J. Heyd, E. N. Brothers, K. N. Kudin, 
 V. N. Staroverov, T. A. Keith, R. Kobayashi, J. Normand, 
 K. Raghavachari, A. P. Rendell, J. C. Burant, S. S. Iyengar, 
 J. Tomasi, M. Cossi, J. M. Millam, M. Klene, C. Adamo, R. Cammi, 
 J. W. Ochterski, R. L. Martin, K. Morokuma, O. Farkas, 
 J. B. Foresman, and D. J. Fox, Gaussian, Inc., Wallingford CT, 2019.
 
 ******************************************
 Gaussian 16:  EM64L-G16RevC.01  3-Jul-2019
                24-Oct-2024 
 ******************************************
 %nprocshared=40
 Will use up to   40 processors via shared memory.
 %mem=50gb
 ------------------------------------------------------
 # PBE1PBE/aug-cc-pVDZ opt freq EmpiricalDispersion=GD3
 ------------------------------------------------------
 1/18=20,19=15,26=3,38=1/1,3;
 2/9=110,12=2,17=6,18=5,40=1/2;
 3/5=16,7=10,11=2,25=1,30=1,71=1,74=-13,124=31/1,2,3;
 4//1;
 5/5=2,38=5/2;
 6/7=2,8=2,9=2,10=2,28=1/1;
 7//1,2,3,16;
 1/18=20,19=15,26=3/3(2);
 2/9=110/2;
 99//99;
 2/9=110/2;
 3/5=16,7=10,11=2,25=1,30=1,71=1,74=-13,124=31/1,2,3;
 4/5=5,16=3,69=1/1;
 5/5=2,38=5/2;
 7//1,2,3,16;
 1/18=20,19=15,26=3/3(-5);
 2/9=110/2;
 6/7=2,8=2,9=2,10=2,19=2,28=1/1;
 99/9=1/99;
 ----
 blah
 ----
 Symbolic Z-matrix:
 Charge = -1 Multiplicity = 1
 C                    -2.08588  -0.20434   0.81454 
 C                    -1.16123  -1.34412   0.38752 
 C                    -0.41741  -0.72494  -0.80439 
 O                    -1.99487  -2.40921  -0.02655 
 H                    -0.46892  -1.66264   1.17668 
 O                    -1.20925   0.31699  -1.3053 
 H                    -0.239    -1.47934  -1.58047 
 N                     0.90084  -0.2003   -0.41203 
 C                    -2.40557   0.45465  -0.53098 
 H                    -1.52915   0.50719   1.43798 
 O                    -3.21473  -0.60932   1.53555 
 C                    -2.80403   1.90702  -0.46033 
 H                    -3.22335  -0.10477  -1.01628 
 O                    -1.78722   2.63289   0.21329 
 H                    -3.76354   1.95937   0.08065 
 H                    -2.95223   2.29064  -1.48279 
 H                    -3.48065  -1.46665   1.17706 
 H                    -1.44518  -3.18334  -0.18329 
 H                    -2.06736   3.54629   0.309 
 C                     1.13918   1.13384  -0.20214 
 C                     2.35771   1.60028   0.15407 
 C                     3.46785   0.68544   0.32546 
 N                     3.1171   -0.65586   0.0987 
 C                     1.88686  -1.15828  -0.24015 
 H                     0.27332   1.77919  -0.34222 
 H                     2.53094   2.65975   0.31568 
 O                     4.61114   0.97085   0.63656 
 O                     1.66038  -2.35314  -0.3766 
 

 GradGradGradGradGradGradGradGradGradGradGradGradGradGradGradGradGradGrad
 Berny optimization.
 Initialization pass.
                           ----------------------------
                           !    Initial Parameters    !
                           ! (Angstroms and Degrees)  !
 --------------------------                            --------------------------
 ! Name  Definition              Value          Derivative Info.                !
 --------------------------------------------------------------------------------
 ! R1    R(1,2)                  1.5285         estimate D2E/DX2                !
 ! R2    R(1,9)                  1.532          estimate D2E/DX2                !
 ! R3    R(1,10)                 1.0977         estimate D2E/DX2                !
 ! R4    R(1,11)                 1.3994         estimate D2E/DX2                !
 ! R5    R(2,3)                  1.5353         estimate D2E/DX2                !
 ! R6    R(2,4)                  1.4145         estimate D2E/DX2                !
 ! R7    R(2,5)                  1.0971         estimate D2E/DX2                !
 ! R8    R(3,6)                  1.4013         estimate D2E/DX2                !
 ! R9    R(3,7)                  1.0969         estimate D2E/DX2                !
 ! R10   R(3,8)                  1.4721         estimate D2E/DX2                !
 ! R11   R(4,18)                 0.9623         estimate D2E/DX2                !
 ! R12   R(6,9)                  1.4317         estimate D2E/DX2                !
 ! R13   R(8,20)                 1.3714         estimate D2E/DX2                !
 ! R14   R(8,24)                 1.3855         estimate D2E/DX2                !
 ! R15   R(9,12)                 1.5077         estimate D2E/DX2                !
 ! R16   R(9,13)                 1.1033         estimate D2E/DX2                !
 ! R17   R(11,17)                0.9666         estimate D2E/DX2                !
 ! R18   R(12,14)                1.4194         estimate D2E/DX2                !
 ! R19   R(12,15)                1.1028         estimate D2E/DX2                !
 ! R20   R(12,16)                1.1021         estimate D2E/DX2                !
 ! R21   R(14,19)                0.9602         estimate D2E/DX2                !
 ! R22   R(20,21)                1.3525         estimate D2E/DX2                !
 ! R23   R(20,25)                1.0889         estimate D2E/DX2                !
 ! R24   R(21,22)                1.4487         estimate D2E/DX2                !
 ! R25   R(21,26)                1.0856         estimate D2E/DX2                !
 ! R26   R(22,23)                1.4048         estimate D2E/DX2                !
 ! R27   R(22,27)                1.2188         estimate D2E/DX2                !
 ! R28   R(23,24)                1.3714         estimate D2E/DX2                !
 ! R29   R(24,28)                1.2238         estimate D2E/DX2                !
 ! A1    A(2,1,9)              101.6322         estimate D2E/DX2                !
 ! A2    A(2,1,10)             109.5855         estimate D2E/DX2                !
 ! A3    A(2,1,11)             114.5906         estimate D2E/DX2                !
 ! A4    A(9,1,10)             109.0172         estimate D2E/DX2                !
 ! A5    A(9,1,11)             114.1225         estimate D2E/DX2                !
 ! A6    A(10,1,11)            107.704          estimate D2E/DX2                !
 ! A7    A(1,2,3)              102.0768         estimate D2E/DX2                !
 ! A8    A(1,2,4)              106.663          estimate D2E/DX2                !
 ! A9    A(1,2,5)              113.4089         estimate D2E/DX2                !
 ! A10   A(3,2,4)              111.2186         estimate D2E/DX2                !
 ! A11   A(3,2,5)              111.7028         estimate D2E/DX2                !
 ! A12   A(4,2,5)              111.3384         estimate D2E/DX2                !
 ! A13   A(2,3,6)              107.6745         estimate D2E/DX2                !
 ! A14   A(2,3,7)              110.5296         estimate D2E/DX2                !
 ! A15   A(2,3,8)              111.7563         estimate D2E/DX2                !
 ! A16   A(6,3,7)              110.5106         estimate D2E/DX2                !
 ! A17   A(6,3,8)              109.6523         estimate D2E/DX2                !
 ! A18   A(7,3,8)              106.7398         estimate D2E/DX2                !
 ! A19   A(2,4,18)             108.4674         estimate D2E/DX2                !
 ! A20   A(3,6,9)              110.5089         estimate D2E/DX2                !
 ! A21   A(3,8,20)             122.8973         estimate D2E/DX2                !
 ! A22   A(3,8,24)             115.0848         estimate D2E/DX2                !
 ! A23   A(20,8,24)            122.0044         estimate D2E/DX2                !
 ! A24   A(1,9,6)              105.0275         estimate D2E/DX2                !
 ! A25   A(1,9,12)             115.364          estimate D2E/DX2                !
 ! A26   A(1,9,13)             108.8388         estimate D2E/DX2                !
 ! A27   A(6,9,12)             109.8041         estimate D2E/DX2                !
 ! A28   A(6,9,13)             109.434          estimate D2E/DX2                !
 ! A29   A(12,9,13)            108.2502         estimate D2E/DX2                !
 ! A30   A(1,11,17)            106.71           estimate D2E/DX2                !
 ! A31   A(9,12,14)            108.9995         estimate D2E/DX2                !
 ! A32   A(9,12,15)            107.3781         estimate D2E/DX2                !
 ! A33   A(9,12,16)            109.11           estimate D2E/DX2                !
 ! A34   A(14,12,15)           111.4831         estimate D2E/DX2                !
 ! A35   A(14,12,16)           111.0163         estimate D2E/DX2                !
 ! A36   A(15,12,16)           108.76           estimate D2E/DX2                !
 ! A37   A(12,14,19)           108.9529         estimate D2E/DX2                !
 ! A38   A(8,20,21)            122.1664         estimate D2E/DX2                !
 ! A39   A(8,20,25)            114.7496         estimate D2E/DX2                !
 ! A40   A(21,20,25)           123.0837         estimate D2E/DX2                !
 ! A41   A(20,21,22)           120.2498         estimate D2E/DX2                !
 ! A42   A(20,21,26)           121.3002         estimate D2E/DX2                !
 ! A43   A(22,21,26)           118.4498         estimate D2E/DX2                !
 ! A44   A(21,22,23)           113.1111         estimate D2E/DX2                !
 ! A45   A(21,22,27)           126.954          estimate D2E/DX2                !
 ! A46   A(23,22,27)           119.9344         estimate D2E/DX2                !
 ! A47   A(22,23,24)           127.8536         estimate D2E/DX2                !
 ! A48   A(8,24,23)            114.568          estimate D2E/DX2                !
 ! A49   A(8,24,28)            121.9769         estimate D2E/DX2                !
 ! A50   A(23,24,28)           123.4541         estimate D2E/DX2                !
 ! D1    D(9,1,2,3)             33.7471         estimate D2E/DX2                !
 ! D2    D(9,1,2,4)            -83.021          estimate D2E/DX2                !
 ! D3    D(9,1,2,5)            154.0589         estimate D2E/DX2                !
 ! D4    D(10,1,2,3)           -81.4895         estimate D2E/DX2                !
 ! D5    D(10,1,2,4)           161.7423         estimate D2E/DX2                !
 ! D6    D(10,1,2,5)            38.8223         estimate D2E/DX2                !
 ! D7    D(11,1,2,3)           157.326          estimate D2E/DX2                !
 ! D8    D(11,1,2,4)            40.5579         estimate D2E/DX2                !
 ! D9    D(11,1,2,5)           -82.3622         estimate D2E/DX2                !
 ! D10   D(2,1,9,6)            -34.398          estimate D2E/DX2                !
 ! D11   D(2,1,9,12)          -155.4285         estimate D2E/DX2                !
 ! D12   D(2,1,9,13)            82.7054         estimate D2E/DX2                !
 ! D13   D(10,1,9,6)            81.2569         estimate D2E/DX2                !
 ! D14   D(10,1,9,12)          -39.7736         estimate D2E/DX2                !
 ! D15   D(10,1,9,13)         -161.6397         estimate D2E/DX2                !
 ! D16   D(11,1,9,6)          -158.2942         estimate D2E/DX2                !
 ! D17   D(11,1,9,12)           80.6753         estimate D2E/DX2                !
 ! D18   D(11,1,9,13)          -41.1908         estimate D2E/DX2                !
 ! D19   D(2,1,11,17)          -34.4411         estimate D2E/DX2                !
 ! D20   D(9,1,11,17)           82.1668         estimate D2E/DX2                !
 ! D21   D(10,1,11,17)        -156.6536         estimate D2E/DX2                !
 ! D22   D(1,2,3,6)            -22.6345         estimate D2E/DX2                !
 ! D23   D(1,2,3,7)           -143.4319         estimate D2E/DX2                !
 ! D24   D(1,2,3,8)             97.8439         estimate D2E/DX2                !
 ! D25   D(4,2,3,6)             90.7953         estimate D2E/DX2                !
 ! D26   D(4,2,3,7)            -30.0021         estimate D2E/DX2                !
 ! D27   D(4,2,3,8)           -148.7263         estimate D2E/DX2                !
 ! D28   D(5,2,3,6)           -144.1302         estimate D2E/DX2                !
 ! D29   D(5,2,3,7)             95.0724         estimate D2E/DX2                !
 ! D30   D(5,2,3,8)            -23.6518         estimate D2E/DX2                !
 ! D31   D(1,2,4,18)          -172.1183         estimate D2E/DX2                !
 ! D32   D(3,2,4,18)            77.3649         estimate D2E/DX2                !
 ! D33   D(5,2,4,18)           -47.9135         estimate D2E/DX2                !
 ! D34   D(2,3,6,9)              0.9648         estimate D2E/DX2                !
 ! D35   D(7,3,6,9)            121.774          estimate D2E/DX2                !
 ! D36   D(8,3,6,9)           -120.8301         estimate D2E/DX2                !
 ! D37   D(2,3,8,20)          -101.5677         estimate D2E/DX2                !
 ! D38   D(2,3,8,24)            77.1191         estimate D2E/DX2                !
 ! D39   D(6,3,8,20)            17.7487         estimate D2E/DX2                !
 ! D40   D(6,3,8,24)          -163.5644         estimate D2E/DX2                !
 ! D41   D(7,3,8,20)           137.4796         estimate D2E/DX2                !
 ! D42   D(7,3,8,24)           -43.8336         estimate D2E/DX2                !
 ! D43   D(3,6,9,1)             21.3369         estimate D2E/DX2                !
 ! D44   D(3,6,9,12)           145.9542         estimate D2E/DX2                !
 ! D45   D(3,6,9,13)           -95.3594         estimate D2E/DX2                !
 ! D46   D(3,8,20,21)         -179.7878         estimate D2E/DX2                !
 ! D47   D(3,8,20,25)            0.3698         estimate D2E/DX2                !
 ! D48   D(24,8,20,21)           1.6147         estimate D2E/DX2                !
 ! D49   D(24,8,20,25)        -178.2278         estimate D2E/DX2                !
 ! D50   D(3,8,24,23)          178.7398         estimate D2E/DX2                !
 ! D51   D(3,8,24,28)           -1.6184         estimate D2E/DX2                !
 ! D52   D(20,8,24,23)          -2.5604         estimate D2E/DX2                !
 ! D53   D(20,8,24,28)         177.0814         estimate D2E/DX2                !
 ! D54   D(1,9,12,14)           55.3464         estimate D2E/DX2                !
 ! D55   D(1,9,12,15)          -65.5583         estimate D2E/DX2                !
 ! D56   D(1,9,12,16)          176.7267         estimate D2E/DX2                !
 ! D57   D(6,9,12,14)          -63.058          estimate D2E/DX2                !
 ! D58   D(6,9,12,15)          176.0373         estimate D2E/DX2                !
 ! D59   D(6,9,12,16)           58.3222         estimate D2E/DX2                !
 ! D60   D(13,9,12,14)         177.5282         estimate D2E/DX2                !
 ! D61   D(13,9,12,15)          56.6235         estimate D2E/DX2                !
 ! D62   D(13,9,12,16)         -61.0915         estimate D2E/DX2                !
 ! D63   D(9,12,14,19)        -176.3196         estimate D2E/DX2                !
 ! D64   D(15,12,14,19)        -57.9613         estimate D2E/DX2                !
 ! D65   D(16,12,14,19)         63.4683         estimate D2E/DX2                !
 ! D66   D(8,20,21,22)           0.0863         estimate D2E/DX2                !
 ! D67   D(8,20,21,26)         179.9361         estimate D2E/DX2                !
 ! D68   D(25,20,21,22)        179.9155         estimate D2E/DX2                !
 ! D69   D(25,20,21,26)         -0.2347         estimate D2E/DX2                !
 ! D70   D(20,21,22,23)         -0.5864         estimate D2E/DX2                !
 ! D71   D(20,21,22,27)        179.6759         estimate D2E/DX2                !
 ! D72   D(26,21,22,23)        179.5596         estimate D2E/DX2                !
 ! D73   D(26,21,22,27)         -0.1782         estimate D2E/DX2                !
 ! D74   D(21,22,23,24)         -0.5946         estimate D2E/DX2                !
 ! D75   D(27,22,23,24)        179.1636         estimate D2E/DX2                !
 ! D76   D(22,23,24,8)           2.1207         estimate D2E/DX2                !
 ! D77   D(22,23,24,28)       -177.5152         estimate D2E/DX2                !
 --------------------------------------------------------------------------------
 Trust Radius=3.00D-01 FncErr=1.00D-07 GrdErr=1.00D-06 EigMax=2.50D+02 EigMin=1.00D-04
 Number of steps in this run=    166 maximum allowed number of steps=    168.
 GradGradGradGradGradGradGradGradGradGradGradGradGradGradGradGradGradGrad

                          Input orientation:                          
 ---------------------------------------------------------------------
 Center     Atomic      Atomic             Coordinates (Angstroms)
 Number     Number       Type             X           Y           Z
 ---------------------------------------------------------------------
      1          6           0       -2.085877   -0.204336    0.814538
      2          6           0       -1.161234   -1.344116    0.387522
      3          6           0       -0.417412   -0.724940   -0.804387
      4          8           0       -1.994874   -2.409210   -0.026553
      5          1           0       -0.468916   -1.662637    1.176679
      6          8           0       -1.209246    0.316991   -1.305295
      7          1           0       -0.238995   -1.479339   -1.580467
      8          7           0        0.900839   -0.200296   -0.412033
      9          6           0       -2.405572    0.454649   -0.530984
     10          1           0       -1.529150    0.507192    1.437979
     11          8           0       -3.214732   -0.609315    1.535553
     12          6           0       -2.804028    1.907017   -0.460332
     13          1           0       -3.223345   -0.104769   -1.016280
     14          8           0       -1.787221    2.632893    0.213291
     15          1           0       -3.763537    1.959371    0.080649
     16          1           0       -2.952228    2.290639   -1.482792
     17          1           0       -3.480647   -1.466648    1.177057
     18          1           0       -1.445175   -3.183343   -0.183293
     19          1           0       -2.067363    3.546288    0.308999
     20          6           0        1.139176    1.133836   -0.202135
     21          6           0        2.357713    1.600278    0.154065
     22          6           0        3.467845    0.685441    0.325464
     23          7           0        3.117097   -0.655863    0.098701
     24          6           0        1.886861   -1.158280   -0.240147
     25          1           0        0.273320    1.779188   -0.342216
     26          1           0        2.530939    2.659753    0.315681
     27          8           0        4.611141    0.970849    0.636560
     28          8           0        1.660384   -2.353136   -0.376599
 ---------------------------------------------------------------------
                    Distance matrix (angstroms):
                    1          2          3          4          5
     1  C    0.000000
     2  C    1.528531   0.000000
     3  C    2.382377   1.535349   0.000000
     4  O    2.361606   1.414510   2.435196   0.000000
     5  H    2.207340   1.097055   2.192385   2.081751   0.000000
     6  O    2.352436   2.372174   1.401260   3.112003   3.259940
     7  H    3.282172   2.177565   1.096928   2.522384   2.772781
     8  N    3.228771   2.489931   1.472066   3.662383   2.557083
     9  C    1.531958   2.372253   2.327866   2.936803   3.339109
    10  H    1.097677   2.160130   2.789680   3.296537   2.429101
    11  O    1.399351   2.464703   3.648793   2.677284   2.962732
    12  C    2.568822   3.739986   3.569525   4.412789   4.568915
    13  H    2.157694   2.785488   2.881453   2.792696   3.850052
    14  O    2.915572   4.029742   3.766575   5.052074   4.595391
    15  H    2.834566   4.216536   4.380110   4.714251   5.017445
    16  H    3.500456   4.462867   3.997404   5.012558   5.372896
    17  H    1.915786   2.453173   3.722856   2.131812   3.018101
    18  H    3.206345   1.946589   2.736019   0.962298   2.261670
    19  H    3.784586   4.974262   4.712256   5.965384   5.517318
    20  C    3.636660   3.432175   2.498144   4.733527   3.508183
    21  C    4.841317   4.594230   3.745209   5.920611   4.436461
    22  C    5.645771   5.054832   4.284969   6.288249   4.662202
    23  N    5.271360   4.342951   3.648711   5.405753   3.877515
    24  C    4.219599   3.117593   2.411602   4.083909   2.794898
    25  H    3.292151   3.513615   2.638441   4.773576   3.834595
    26  H    5.455901   5.446859   4.626389   6.804006   5.331370
    27  O    6.801675   6.224259   5.498943   7.450097   5.747517
    28  O    4.480025   3.092496   2.674184   3.672409   2.724588
                    6          7          8          9         10
     6  O    0.000000
     7  H    2.060075   0.000000
     8  N    2.349034   2.073743   0.000000
     9  C    1.431678   3.088006   3.372752   0.000000
    10  H    2.768405   3.836903   3.134953   2.155851   0.000000
    11  O    3.598671   4.395627   4.571467   2.461165   2.024178
    12  C    2.405301   4.393348   4.262527   1.507691   2.681121
    13  H    2.077981   3.333781   4.169309   1.103274   3.044369
    14  O    2.829056   4.746053   3.955206   2.383495   2.466793
    15  H    3.338062   5.196771   5.163652   2.117157   2.990594
    16  H    2.639087   4.645848   4.711412   2.139072   3.706310
    17  H    3.808241   4.255867   4.829728   2.786498   2.787914
    18  H    3.683326   2.512090   3.801930   3.778655   4.031826
    19  H    3.710885   5.671855   4.833943   3.221520   3.286392
    20  C    2.720162   3.260037   1.371412   3.624179   3.194154
    21  C    4.061989   4.385833   2.384327   4.946781   4.236859
    22  C    4.966922   4.696755   2.813886   5.940016   5.122443
    23  N    4.651332   3.842014   2.319524   5.668299   4.973326
    24  C    3.591218   2.533535   1.385467   4.594682   4.154399
    25  H    2.294241   3.523312   2.077742   2.994411   2.834778
    26  H    4.701604   5.329164   3.371450   5.472519   4.730475
    27  O    6.170513   5.868769   4.029574   7.131892   6.209704
    28  O    4.028254   2.412563   2.283174   4.943631   4.652666
                   11         12         13         14         15
    11  O    0.000000
    12  C    3.237925   0.000000
    13  H    2.601248   2.128894   0.000000
    14  O    3.781280   1.419352   3.327024   0.000000
    15  H    3.002679   1.102751   2.399111   2.092140   0.000000
    16  H    4.193930   1.102068   2.455426   2.085923   1.792291
    17  H    0.966566   3.810574   2.594542   4.539028   3.608288
    18  H    3.565303   5.275888   3.651489   5.839767   5.647298
    19  H    4.482179   1.954931   4.052515   0.960172   2.333978
    20  C    5.001465   4.026578   4.607447   3.314144   4.979766
    21  C    6.151663   5.207220   5.951899   4.272035   6.132213
    22  C    6.913577   6.437866   6.869988   5.605432   7.346817
    23  N    6.492978   6.476156   6.461276   5.906046   7.360903
    24  C    5.429615   5.607938   5.275080   5.298818   6.461397
    25  H    4.625740   3.082266   4.028687   2.298528   4.062942
    26  H    6.722174   5.443407   6.521387   4.319457   6.337681
    27  O    8.034264   7.554093   8.078862   6.624242   8.451121
    28  O    5.519420   6.171458   5.414347   6.090520   6.944473
                   16         17         18         19         20
    16  H    0.000000
    17  H    4.633706   0.000000
    18  H    5.824464   2.990107   0.000000
    19  H    2.360118   5.280192   6.776238   0.000000
    20  C    4.440480   5.477906   5.031626   4.045130   0.000000
    21  C    5.599230   6.673754   6.120359   4.836554   1.352508
    22  C    6.860305   7.323813   6.274081   6.230830   2.429428
    23  N    6.929625   6.734274   5.223218   6.676895   2.684343
    24  C    6.070914   5.560009   3.899561   6.170122   2.411280
    25  H    3.459285   5.189982   5.254065   3.004250   1.088948
    26  H    5.782376   7.342229   7.085212   4.682987   2.129216
    27  O    7.964801   8.468209   7.389752   7.165375   3.575544
    28  O    6.638110   5.443336   3.220420   7.012086   3.530024
                   21         22         23         24         25
    21  C    0.000000
    22  C    1.448688   0.000000
    23  N    2.381155   1.404828   0.000000
    24  C    2.826083   2.493739   1.371394   0.000000
    25  H    2.150116   3.441957   3.769741   3.353006   0.000000
    26  H    1.085640   2.185360   3.374014   3.911669   2.510989
    27  O    2.388916   1.218755   2.273247   3.567003   4.519746
    28  O    4.049365   3.604547   2.286626   1.223761   4.359040
                   26         27         28
    26  H    0.000000
    27  O    2.698629   0.000000
    28  O    5.134800   4.558765   0.000000
 Stoichiometry    C9H11N2O6(1-)
 Framework group  C1[X(C9H11N2O6)]
 Deg. of freedom    78
 Full point group                 C1      NOp   1
 Largest Abelian subgroup         C1      NOp   1
 Largest concise Abelian subgroup C1      NOp   1
                         Standard orientation:                         
 ---------------------------------------------------------------------
 Center     Atomic      Atomic             Coordinates (Angstroms)
 Number     Number       Type             X           Y           Z
 ---------------------------------------------------------------------
      1          6           0       -2.058967   -0.189863    0.813905
      2          6           0       -1.147066   -1.340909    0.389718
      3          6           0       -0.394560   -0.732116   -0.802088
      4          8           0       -1.992477   -2.396846   -0.023943
      5          1           0       -0.459517   -1.666315    1.180234
      6          8           0       -1.173594    0.318219   -1.305511
      7          1           0       -0.223907   -1.489645   -1.576864
      8          7           0        0.929183   -0.222248   -0.408746
      9          6           0       -2.369244    0.470863   -0.532968
     10          1           0       -1.494826    0.516046    1.437068
     11          8           0       -3.193382   -0.580679    1.534009
     12          6           0       -2.750903    1.927858   -0.464896
     13          1           0       -3.192827   -0.079719   -1.018545
     14          8           0       -1.726612    2.642845    0.209034
     15          1           0       -3.710440    1.992120    0.074749
     16          1           0       -2.893313    2.311710   -1.488092
     17          1           0       -3.468767   -1.435379    1.176378
     18          1           0       -1.451600   -3.177531   -0.178865
     19          1           0       -1.996255    3.559566    0.303080
     20          6           0        1.182721    1.109326   -0.200425
     21          6           0        2.406128    1.562102    0.156715
     22          6           0        3.505341    0.634686    0.330867
     23          7           0        3.139338   -0.702779    0.105543
     24          6           0        1.903793   -1.191366   -0.234209
     25          1           0        0.324598    1.764485   -0.342557
     26          1           0        2.591433    2.619725    0.317058
     27          8           0        4.651469    0.907248    0.643061
     28          8           0        1.663636   -2.383707   -0.369266
 ---------------------------------------------------------------------
 Rotational constants (GHZ):           0.8051232           0.3337978           0.2641205
 Standard basis: Aug-CC-pVDZ (5D, 7F)
 There are   524 symmetry adapted cartesian basis functions of A   symmetry.
 There are   490 symmetry adapted basis functions of A   symmetry.
   490 basis functions,   852 primitive gaussians,   524 cartesian basis functions
    64 alpha electrons       64 beta electrons
       nuclear repulsion energy      1308.9396687571 Hartrees.
 NAtoms=   28 NActive=   28 NUniq=   28 SFac= 1.00D+00 NAtFMM=   60 NAOKFM=F Big=F
 Integral buffers will be    131072 words long.
 Raffenetti 2 integral format.
 Two-electron integral symmetry is turned on.
 Nuclear repulsion after empirical dispersion term =     1308.9199648244 Hartrees.
 One-electron integrals computed using PRISM.
 NBasis=   490 RedAO= T EigKep=  3.47D-06  NBF=   490
 NBsUse=   490 1.00D-06 EigRej= -1.00D+00 NBFU=   490
 ExpMin= 2.97D-02 ExpMax= 1.17D+04 ExpMxC= 4.01D+02 IAcc=3 IRadAn=         5 AccDes= 0.00D+00
 Harris functional with IExCor= 1009 and IRadAn=       5 diagonalized for initial guess.
 HarFok:  IExCor= 1009 AccDes= 0.00D+00 IRadAn=         5 IDoV= 1 UseB2=F ITyADJ=14
 ICtDFT=  3500011 ScaDFX=  1.000000  1.000000  1.000000  1.000000
 FoFCou: FMM=F IPFlag=           0 FMFlag=      100000 FMFlg1=           0
         NFxFlg=           0 DoJE=T BraDBF=F KetDBF=T FulRan=T
         wScrn=  0.000000 ICntrl=       500 IOpCl=  0 I1Cent=   200000004 NGrid=           0
         NMat0=    1 NMatS0=      1 NMatT0=    0 NMatD0=    1 NMtDS0=    0 NMtDT0=    0
 Petite list used in FoFCou.
 Requested convergence on RMS density matrix=1.00D-08 within 128 cycles.
 Requested convergence on MAX density matrix=1.00D-06.
 Requested convergence on             energy=1.00D-06.
 No special actions if energy rises.
 EnCoef did     3 forward-backward iterations
 SCF Done:  E(RPBE1PBE) =  -909.645255603     A.U. after   17 cycles
            NFock= 17  Conv=0.28D-08     -V/T= 2.0052

 **********************************************************************

            Population analysis using the SCF Density.

 **********************************************************************

 Orbital symmetries:
       Occupied  (A) (A) (A) (A) (A) (A) (A) (A) (A) (A) (A) (A)
                 (A) (A) (A) (A) (A) (A) (A) (A) (A) (A) (A) (A)
                 (A) (A) (A) (A) (A) (A) (A) (A) (A) (A) (A) (A)
                 (A) (A) (A) (A) (A) (A) (A) (A) (A) (A) (A) (A)
                 (A) (A) (A) (A) (A) (A) (A) (A) (A) (A) (A) (A)
                 (A) (A) (A) (A)
       Virtual   (A) (A) (A) (A) (A) (A) (A) (A) (A) (A) (A) (A)
                 (A) (A) (A) (A) (A) (A) (A) (A) (A) (A) (A) (A)
                 (A) (A) (A) (A) (A) (A) (A) (A) (A) (A) (A) (A)
                 (A) (A) (A) (A) (A) (A) (A) (A) (A) (A) (A) (A)
                 (A) (A) (A) (A) (A) (A) (A) (A) (A) (A) (A) (A)
                 (A) (A) (A) (A) (A) (A) (A) (A) (A) (A) (A) (A)
                 (A) (A) (A) (A) (A) (A) (A) (A) (A) (A) (A) (A)
                 (A) (A) (A) (A) (A) (A) (A) (A) (A) (A) (A) (A)
                 (A) (A) (A) (A) (A) (A) (A) (A) (A) (A) (A) (A)
                 (A) (A) (A) (A) (A) (A) (A) (A) (A) (A) (A) (A)
                 (A) (A) (A) (A) (A) (A) (A) (A) (A) (A) (A) (A)
                 (A) (A) (A) (A) (A) (A) (A) (A) (A) (A) (A) (A)
                 (A) (A) (A) (A) (A) (A) (A) (A) (A) (A) (A) (A)
                 (A) (A) (A) (A) (A) (A) (A) (A) (A) (A) (A) (A)
                 (A) (A) (A) (A) (A) (A) (A) (A) (A) (A) (A) (A)
                 (A) (A) (A) (A) (A) (A) (A) (A) (A) (A) (A) (A)
                 (A) (A) (A) (A) (A) (A) (A) (A) (A) (A) (A) (A)
                 (A) (A) (A) (A) (A) (A) (A) (A) (A) (A) (A) (A)
                 (A) (A) (A) (A) (A) (A) (A) (A) (A) (A) (A) (A)
                 (A) (A) (A) (A) (A) (A) (A) (A) (A) (A) (A) (A)
                 (A) (A) (A) (A) (A) (A) (A) (A) (A) (A) (A) (A)
                 (A) (A) (A) (A) (A) (A) (A) (A) (A) (A) (A) (A)
                 (A) (A) (A) (A) (A) (A) (A) (A) (A) (A) (A) (A)
                 (A) (A) (A) (A) (A) (A) (A) (A) (A) (A) (A) (A)
                 (A) (A) (A) (A) (A) (A) (A) (A) (A) (A) (A) (A)
                 (A) (A) (A) (A) (A) (A) (A) (A) (A) (A) (A) (A)
                 (A) (A) (A) (A) (A) (A) (A) (A) (A) (A) (A) (A)
                 (A) (A) (A) (A) (A) (A) (A) (A) (A) (A) (A) (A)
                 (A) (A) (A) (A) (A) (A) (A) (A) (A) (A) (A) (A)
                 (A) (A) (A) (A) (A) (A) (A) (A) (A) (A) (A) (A)
                 (A) (A) (A) (A) (A) (A) (A) (A) (A) (A) (A) (A)
                 (A) (A) (A) (A) (A) (A) (A) (A) (A) (A) (A) (A)
                 (A) (A) (A) (A) (A) (A) (A) (A) (A) (A) (A) (A)
                 (A) (A) (A) (A) (A) (A) (A) (A) (A) (A) (A) (A)
                 (A) (A) (A) (A) (A) (A) (A) (A) (A) (A) (A) (A)
                 (A) (A) (A) (A) (A) (A)
 The electronic state is 1-A.
 Alpha  occ. eigenvalues --  -19.15834 -19.15325 -19.14682 -19.14555 -19.02259
 Alpha  occ. eigenvalues --  -19.00413 -14.30357 -14.18118 -10.21137 -10.20831
 Alpha  occ. eigenvalues --  -10.20119 -10.19599 -10.19182 -10.18103 -10.14585
 Alpha  occ. eigenvalues --  -10.13923 -10.08023  -1.01527  -0.99093  -0.98269
 Alpha  occ. eigenvalues --   -0.96975  -0.92311  -0.87954  -0.84076  -0.72732
 Alpha  occ. eigenvalues --   -0.71574  -0.68609  -0.64914  -0.60082  -0.54882
 Alpha  occ. eigenvalues --   -0.53481  -0.51091  -0.48465  -0.46991  -0.46096
 Alpha  occ. eigenvalues --   -0.44727  -0.42212  -0.40823  -0.38893  -0.38642
 Alpha  occ. eigenvalues --   -0.37394  -0.35393  -0.34426  -0.32917  -0.32511
 Alpha  occ. eigenvalues --   -0.30951  -0.30032  -0.29040  -0.28835  -0.28396
 Alpha  occ. eigenvalues --   -0.27332  -0.25685  -0.25274  -0.22938  -0.22549
 Alpha  occ. eigenvalues --   -0.21958  -0.20360  -0.19680  -0.18805  -0.13081
 Alpha  occ. eigenvalues --   -0.09273  -0.09127  -0.07463  -0.07268
 Alpha virt. eigenvalues --    0.05829   0.07363   0.08310   0.09131   0.10680
 Alpha virt. eigenvalues --    0.10810   0.11361   0.12061   0.12326   0.13557
 Alpha virt. eigenvalues --    0.13773   0.14067   0.14951   0.15183   0.15576
 Alpha virt. eigenvalues --    0.16217   0.16785   0.17198   0.17714   0.17783
 Alpha virt. eigenvalues --    0.18641   0.18930   0.19348   0.19539   0.19725
 Alpha virt. eigenvalues --    0.19904   0.20473   0.20788   0.20963   0.21697
 Alpha virt. eigenvalues --    0.21863   0.22309   0.22467   0.22635   0.23276
 Alpha virt. eigenvalues --    0.23356   0.23628   0.23950   0.25068   0.25481
 Alpha virt. eigenvalues --    0.25771   0.25939   0.26882   0.27037   0.27654
 Alpha virt. eigenvalues --    0.27687   0.28725   0.28801   0.29211   0.29704
 Alpha virt. eigenvalues --    0.29760   0.30720   0.30834   0.31227   0.31622
 Alpha virt. eigenvalues --    0.32062   0.32651   0.33053   0.33432   0.33979
 Alpha virt. eigenvalues --    0.34126   0.34384   0.35008   0.35249   0.35999
 Alpha virt. eigenvalues --    0.36183   0.36644   0.36880   0.37307   0.37358
 Alpha virt. eigenvalues --    0.37643   0.38232   0.38801   0.38961   0.39193
 Alpha virt. eigenvalues --    0.39514   0.39741   0.40482   0.40624   0.41162
 Alpha virt. eigenvalues --    0.41467   0.41674   0.41810   0.42731   0.43251
 Alpha virt. eigenvalues --    0.43585   0.43980   0.44268   0.44420   0.45146
 Alpha virt. eigenvalues --    0.45264   0.45759   0.46373   0.46545   0.46999
 Alpha virt. eigenvalues --    0.47258   0.47799   0.47954   0.48781   0.48948
 Alpha virt. eigenvalues --    0.49158   0.49579   0.50431   0.50894   0.51629
 Alpha virt. eigenvalues --    0.52185   0.52494   0.53054   0.53547   0.54463
 Alpha virt. eigenvalues --    0.54737   0.54913   0.55119   0.55829   0.56092
 Alpha virt. eigenvalues --    0.56928   0.57929   0.58473   0.58965   0.59808
 Alpha virt. eigenvalues --    0.60344   0.60690   0.60941   0.61485   0.61846
 Alpha virt. eigenvalues --    0.62585   0.63238   0.63538   0.64506   0.65153
 Alpha virt. eigenvalues --    0.65979   0.66398   0.66646   0.67912   0.68001
 Alpha virt. eigenvalues --    0.68449   0.69607   0.69736   0.69835   0.70376
 Alpha virt. eigenvalues --    0.70943   0.71803   0.72438   0.72799   0.73792
 Alpha virt. eigenvalues --    0.73996   0.74296   0.74719   0.75091   0.75751
 Alpha virt. eigenvalues --    0.76552   0.77235   0.77672   0.78531   0.78904
 Alpha virt. eigenvalues --    0.79524   0.80066   0.80402   0.81045   0.81289
 Alpha virt. eigenvalues --    0.82294   0.82807   0.83654   0.83864   0.84640
 Alpha virt. eigenvalues --    0.84951   0.85312   0.86005   0.86780   0.86919
 Alpha virt. eigenvalues --    0.87422   0.88310   0.88798   0.89199   0.90069
 Alpha virt. eigenvalues --    0.90773   0.91111   0.91554   0.92328   0.93213
 Alpha virt. eigenvalues --    0.93887   0.93999   0.94578   0.95516   0.96299
 Alpha virt. eigenvalues --    0.96523   0.98165   0.98778   0.99066   0.99926
 Alpha virt. eigenvalues --    1.00940   1.01325   1.02357   1.02667   1.03524
 Alpha virt. eigenvalues --    1.04044   1.05550   1.06176   1.06384   1.07512
 Alpha virt. eigenvalues --    1.08191   1.09402   1.10935   1.11166   1.11515
 Alpha virt. eigenvalues --    1.12603   1.13408   1.14773   1.15906   1.16941
 Alpha virt. eigenvalues --    1.17407   1.17862   1.18943   1.19804   1.19933
 Alpha virt. eigenvalues --    1.21390   1.21864   1.23094   1.23778   1.24089
 Alpha virt. eigenvalues --    1.25001   1.26381   1.27543   1.27599   1.28784
 Alpha virt. eigenvalues --    1.29506   1.30641   1.31155   1.32576   1.33720
 Alpha virt. eigenvalues --    1.34120   1.35387   1.36874   1.37674   1.38249
 Alpha virt. eigenvalues --    1.39339   1.39997   1.41369   1.42056   1.43400
 Alpha virt. eigenvalues --    1.44095   1.44765   1.45964   1.47185   1.47720
 Alpha virt. eigenvalues --    1.47842   1.50705   1.50979   1.53279   1.53421
 Alpha virt. eigenvalues --    1.54385   1.54736   1.56153   1.56565   1.57456
 Alpha virt. eigenvalues --    1.59001   1.60522   1.60722   1.61669   1.62379
 Alpha virt. eigenvalues --    1.63741   1.64810   1.65614   1.66229   1.67826
 Alpha virt. eigenvalues --    1.68071   1.69086   1.69928   1.70974   1.72362
 Alpha virt. eigenvalues --    1.72472   1.73745   1.75071   1.75395   1.76167
 Alpha virt. eigenvalues --    1.77313   1.78550   1.80260   1.81508   1.81832
 Alpha virt. eigenvalues --    1.82628   1.83212   1.85487   1.85642   1.87461
 Alpha virt. eigenvalues --    1.88129   1.89999   1.90179   1.91439   1.91574
 Alpha virt. eigenvalues --    1.92732   1.92921   1.93420   1.94648   1.96954
 Alpha virt. eigenvalues --    1.97181   1.97539   1.98351   1.99223   2.00393
 Alpha virt. eigenvalues --    2.01726   2.02230   2.03313   2.03666   2.05547
 Alpha virt. eigenvalues --    2.07113   2.07646   2.08560   2.09283   2.09961
 Alpha virt. eigenvalues --    2.11485   2.13021   2.13918   2.15356   2.16373
 Alpha virt. eigenvalues --    2.17022   2.17772   2.19527   2.19946   2.21847
 Alpha virt. eigenvalues --    2.23781   2.25195   2.25331   2.25461   2.26209
 Alpha virt. eigenvalues --    2.27470   2.28692   2.30296   2.30307   2.31378
 Alpha virt. eigenvalues --    2.33931   2.36234   2.36605   2.37304   2.37924
 Alpha virt. eigenvalues --    2.39407   2.40667   2.41616   2.42866   2.44670
 Alpha virt. eigenvalues --    2.46605   2.47717   2.47788   2.49781   2.51474
 Alpha virt. eigenvalues --    2.53621   2.55135   2.56701   2.57419   2.58438
 Alpha virt. eigenvalues --    2.61686   2.63286   2.63832   2.64423   2.65529
 Alpha virt. eigenvalues --    2.66522   2.67894   2.68673   2.70302   2.72264
 Alpha virt. eigenvalues --    2.73757   2.75256   2.76613   2.78789   2.80138
 Alpha virt. eigenvalues --    2.82159   2.82562   2.85104   2.86667   2.88128
 Alpha virt. eigenvalues --    2.89251   2.91987   2.92739   2.97368   2.98696
 Alpha virt. eigenvalues --    2.99305   2.99982   3.03843   3.08119   3.10119
 Alpha virt. eigenvalues --    3.13316   3.16648   3.22008   3.24334   3.30465
 Alpha virt. eigenvalues --    3.31752   3.32501   3.37084   3.41352   3.50190
 Alpha virt. eigenvalues --    3.50688   3.52588   3.54407   3.56572   3.58983
 Alpha virt. eigenvalues --    3.60077   3.60270   3.61330   3.62129   3.62868
 Alpha virt. eigenvalues --    3.63545   3.64409   3.65267   3.66088   3.68713
 Alpha virt. eigenvalues --    3.69248   3.70644   3.71933   3.73470   3.75573
 Alpha virt. eigenvalues --    3.77884   3.80061   3.82701   3.83091   3.86279
 Alpha virt. eigenvalues --    3.90781   3.92547   3.99109   4.01379   4.04166
 Alpha virt. eigenvalues --    4.11533   4.13263   4.18171   4.24270   4.41703
 Alpha virt. eigenvalues --    4.69520
          Condensed to atoms (all electrons):
               1          2          3          4          5          6
     1  C    7.949591  -1.744534   0.851392   0.147674   0.294365   0.058926
     2  C   -1.744534   9.577580  -2.799917  -0.638855  -1.232415  -0.084183
     3  C    0.851392  -2.799917  11.239406   0.082597   0.538928  -0.094204
     4  O    0.147674  -0.638855   0.082597   8.729917   0.013151   0.005717
     5  H    0.294365  -1.232415   0.538928   0.013151   2.203935   0.025184
     6  O    0.058926  -0.084183  -0.094204   0.005717   0.025184   9.571522
     7  H   -0.038384   0.231310  -0.734983   0.021147   0.070297  -0.326698
     8  N   -0.005873   0.488342  -0.800129   0.006531  -0.200432  -0.130924
     9  C   -1.471025   0.325431  -1.789755   0.113617   0.026208  -0.109127
    10  H   -0.512905   0.270111  -0.279771   0.013001  -0.182273   0.044131
    11  O   -0.237334   0.005532   0.047225  -0.025100   0.021005  -0.014773
    12  C   -0.070679  -0.178854   0.124645   0.007647   0.024925  -0.139147
    13  H    0.308465  -0.055343   0.217787  -0.014402  -0.005505  -0.084927
    14  O    0.007876  -0.005482   0.007780   0.000109  -0.003992   0.013051
    15  H   -0.033630   0.054344   0.031827  -0.001332   0.000853   0.086215
    16  H    0.003773  -0.018754  -0.056845   0.000534   0.000983  -0.056005
    17  H   -0.146429   0.000818  -0.003918   0.021149  -0.002004   0.003611
    18  H   -0.053786   0.139810  -0.063376   0.322278  -0.098620   0.003987
    19  H   -0.016473   0.004877  -0.020988  -0.000248   0.000214  -0.011614
    20  C   -0.175623   0.549794  -1.585178  -0.019494  -0.109600   0.297265
    21  C   -0.006337  -0.032435   0.033554   0.002801   0.032245  -0.042171
    22  C    0.000851   0.023108  -0.198920  -0.000072  -0.022340   0.011815
    23  N   -0.023934   0.050532  -0.036475  -0.002580  -0.001584   0.002923
    24  C    0.070311  -0.146980   0.087748   0.007254   0.016851  -0.068239
    25  H    0.031969  -0.118042   0.255322  -0.001789  -0.002155  -0.211283
    26  H   -0.003108   0.006410   0.020024   0.000039   0.000075   0.000370
    27  O    0.000175   0.001076  -0.002166  -0.000008   0.000560   0.000515
    28  O   -0.022240   0.014072   0.109370   0.000161   0.021161   0.003542
               7          8          9         10         11         12
     1  C   -0.038384  -0.005873  -1.471025  -0.512905  -0.237334  -0.070679
     2  C    0.231310   0.488342   0.325431   0.270111   0.005532  -0.178854
     3  C   -0.734983  -0.800129  -1.789755  -0.279771   0.047225   0.124645
     4  O    0.021147   0.006531   0.113617   0.013001  -0.025100   0.007647
     5  H    0.070297  -0.200432   0.026208  -0.182273   0.021005   0.024925
     6  O   -0.326698  -0.130924  -0.109127   0.044131  -0.014773  -0.139147
     7  H    2.163549  -0.045652   0.107812  -0.021632   0.008357   0.011463
     8  N   -0.045652   7.982328   0.144070   0.045392  -0.011433   0.035781
     9  C    0.107812   0.144070   9.694254  -0.128625   0.122914  -0.494872
    10  H   -0.021632   0.045392  -0.128625   2.233920  -0.212320  -0.093881
    11  O    0.008357  -0.011433   0.122914  -0.212320   8.578777   0.039643
    12  C    0.011463   0.035781  -0.494872  -0.093881   0.039643   5.421519
    13  H    0.001024  -0.017136  -1.409289   0.110656  -0.019976   0.075870
    14  O   -0.001952   0.013749  -0.194882   0.017677  -0.001355   0.221426
    15  H   -0.000558  -0.002531   0.019925  -0.020698   0.019381  -0.029702
    16  H    0.000215   0.005135   0.276715   0.020213  -0.003681   0.041156
    17  H    0.000361  -0.000370   0.032617   0.034662   0.336264  -0.016523
    18  H   -0.023260   0.010234  -0.022673   0.004774   0.002804  -0.003798
    19  H   -0.000195  -0.001601   0.068836  -0.005856   0.000906  -0.089479
    20  C    0.020878   0.231581   0.185061   0.112276  -0.019087  -0.067126
    21  C   -0.014134  -0.527358   0.092932  -0.036118   0.003782  -0.025721
    22  C    0.000129  -0.000564   0.018085   0.016647  -0.000833  -0.008799
    23  N    0.000138   0.033911   0.009234  -0.001871   0.000298  -0.002477
    24  C    0.082042  -0.168239  -0.126670  -0.001083   0.000770   0.013524
    25  H    0.032607  -0.017942  -0.111931  -0.014256  -0.003229  -0.003817
    26  H   -0.001947   0.053214   0.004267   0.000177   0.000117  -0.002789
    27  O   -0.000166  -0.017367   0.000278  -0.000479  -0.000007   0.000087
    28  O    0.011020  -0.150405   0.012705  -0.001999   0.000082   0.000401
              13         14         15         16         17         18
     1  C    0.308465   0.007876  -0.033630   0.003773  -0.146429  -0.053786
     2  C   -0.055343  -0.005482   0.054344  -0.018754   0.000818   0.139810
     3  C    0.217787   0.007780   0.031827  -0.056845  -0.003918  -0.063376
     4  O   -0.014402   0.000109  -0.001332   0.000534   0.021149   0.322278
     5  H   -0.005505  -0.003992   0.000853   0.000983  -0.002004  -0.098620
     6  O   -0.084927   0.013051   0.086215  -0.056005   0.003611   0.003987
     7  H    0.001024  -0.001952  -0.000558   0.000215   0.000361  -0.023260
     8  N   -0.017136   0.013749  -0.002531   0.005135  -0.000370   0.010234
     9  C   -1.409289  -0.194882   0.019925   0.276715   0.032617  -0.022673
    10  H    0.110656   0.017677  -0.020698   0.020213   0.034662   0.004774
    11  O   -0.019976  -0.001355   0.019381  -0.003681   0.336264   0.002804
    12  C    0.075870   0.221426  -0.029702   0.041156  -0.016523  -0.003798
    13  H    2.542473   0.049677  -0.096491  -0.034464   0.000739   0.002842
    14  O    0.049677   8.293770  -0.083463  -0.077623  -0.000600   0.000318
    15  H   -0.096491  -0.083463   1.579723  -0.246802   0.001415   0.000192
    16  H   -0.034464  -0.077623  -0.246802   1.342457  -0.002224  -0.000574
    17  H    0.000739  -0.000600   0.001415  -0.002224   0.648851  -0.002043
    18  H    0.002842   0.000318   0.000192  -0.000574  -0.002043   0.619192
    19  H    0.005005   0.393993  -0.031112  -0.023508  -0.000091   0.000008
    20  C   -0.009449  -0.011925  -0.011483   0.026635  -0.000120   0.009172
    21  C   -0.009905  -0.011794  -0.001976   0.007060   0.000891  -0.001875
    22  C    0.001318   0.001438  -0.000408   0.000774  -0.000329   0.000652
    23  N   -0.000058   0.000485   0.000027  -0.000424   0.000170   0.002246
    24  C    0.005723  -0.001099   0.000455   0.001370  -0.002151  -0.003537
    25  H    0.008652  -0.012911   0.001548  -0.005418   0.002743  -0.000922
    26  H    0.000037   0.002917  -0.000174  -0.000033  -0.000057  -0.000043
    27  O   -0.000012  -0.000002   0.000011  -0.000004  -0.000002   0.000043
    28  O   -0.000113   0.000132   0.000089  -0.000111   0.000111   0.007111
              19         20         21         22         23         24
     1  C   -0.016473  -0.175623  -0.006337   0.000851  -0.023934   0.070311
     2  C    0.004877   0.549794  -0.032435   0.023108   0.050532  -0.146980
     3  C   -0.020988  -1.585178   0.033554  -0.198920  -0.036475   0.087748
     4  O   -0.000248  -0.019494   0.002801  -0.000072  -0.002580   0.007254
     5  H    0.000214  -0.109600   0.032245  -0.022340  -0.001584   0.016851
     6  O   -0.011614   0.297265  -0.042171   0.011815   0.002923  -0.068239
     7  H   -0.000195   0.020878  -0.014134   0.000129   0.000138   0.082042
     8  N   -0.001601   0.231581  -0.527358  -0.000564   0.033911  -0.168239
     9  C    0.068836   0.185061   0.092932   0.018085   0.009234  -0.126670
    10  H   -0.005856   0.112276  -0.036118   0.016647  -0.001871  -0.001083
    11  O    0.000906  -0.019087   0.003782  -0.000833   0.000298   0.000770
    12  C   -0.089479  -0.067126  -0.025721  -0.008799  -0.002477   0.013524
    13  H    0.005005  -0.009449  -0.009905   0.001318  -0.000058   0.005723
    14  O    0.393993  -0.011925  -0.011794   0.001438   0.000485  -0.001099
    15  H   -0.031112  -0.011483  -0.001976  -0.000408   0.000027   0.000455
    16  H   -0.023508   0.026635   0.007060   0.000774  -0.000424   0.001370
    17  H   -0.000091  -0.000120   0.000891  -0.000329   0.000170  -0.002151
    18  H    0.000008   0.009172  -0.001875   0.000652   0.002246  -0.003537
    19  H    0.580150   0.005603   0.001497   0.000203  -0.000132  -0.000247
    20  C    0.005603   9.429011  -2.031309   0.036382  -0.012209  -1.096667
    21  C    0.001497  -2.031309   9.986625  -2.470871   0.457327   0.636686
    22  C    0.000203   0.036382  -2.470871   9.185524  -0.467225  -0.537003
    23  N   -0.000132  -0.012209   0.457327  -0.467225   8.149355  -0.185182
    24  C   -0.000247  -1.096667   0.636686  -0.537003  -0.185182   6.840478
    25  H   -0.007696  -1.091732  -0.023555  -0.293050   0.079191   0.074177
    26  H   -0.000709   0.553934  -0.906134   0.151935  -0.072739  -0.095203
    27  O   -0.000030   0.101184  -0.105372   0.064739  -0.117378   0.039733
    28  O   -0.000018  -0.033365   0.003959   0.021516  -0.198540   0.144297
              25         26         27         28
     1  C    0.031969  -0.003108   0.000175  -0.022240
     2  C   -0.118042   0.006410   0.001076   0.014072
     3  C    0.255322   0.020024  -0.002166   0.109370
     4  O   -0.001789   0.000039  -0.000008   0.000161
     5  H   -0.002155   0.000075   0.000560   0.021161
     6  O   -0.211283   0.000370   0.000515   0.003542
     7  H    0.032607  -0.001947  -0.000166   0.011020
     8  N   -0.017942   0.053214  -0.017367  -0.150405
     9  C   -0.111931   0.004267   0.000278   0.012705
    10  H   -0.014256   0.000177  -0.000479  -0.001999
    11  O   -0.003229   0.000117  -0.000007   0.000082
    12  C   -0.003817  -0.002789   0.000087   0.000401
    13  H    0.008652   0.000037  -0.000012  -0.000113
    14  O   -0.012911   0.002917  -0.000002   0.000132
    15  H    0.001548  -0.000174   0.000011   0.000089
    16  H   -0.005418  -0.000033  -0.000004  -0.000111
    17  H    0.002743  -0.000057  -0.000002   0.000111
    18  H   -0.000922  -0.000043   0.000043   0.007111
    19  H   -0.007696  -0.000709  -0.000030  -0.000018
    20  C   -1.091732   0.553934   0.101184  -0.033365
    21  C   -0.023555  -0.906134  -0.105372   0.003959
    22  C   -0.293050   0.151935   0.064739   0.021516
    23  N    0.079191  -0.072739  -0.117378  -0.198540
    24  C    0.074177  -0.095203   0.039733   0.144297
    25  H    3.447800  -0.233219   0.006187  -0.000991
    26  H   -0.233219   2.156125  -0.016821   0.002578
    27  O    0.006187  -0.016821   8.830875  -0.006094
    28  O   -0.000991   0.002578  -0.006094   8.807690
 Mulliken charges:
               1
     1  C    0.836929
     2  C    1.312647
     3  C    0.819020
     4  O   -0.791445
     5  H   -0.430021
     6  O   -0.755475
     7  H   -0.552789
     8  N    0.047686
     9  C    0.603889
    10  H   -0.409869
    11  O   -0.638729
    12  C    1.209578
    13  H   -0.573197
    14  O   -0.617319
    15  H   -0.235644
    16  H   -0.200551
    17  H    0.092460
    18  H    0.148844
    19  H    0.148707
    20  C    0.715590
    21  C    0.987704
    22  C    0.465301
    23  N   -0.663029
    24  C    0.410885
    25  H   -0.786257
    26  H   -0.619240
    27  O   -0.779555
    28  O   -0.746119
 Sum of Mulliken charges =  -1.00000
 Mulliken charges with hydrogens summed into heavy atoms:
               1
     1  C    0.427060
     2  C    0.882626
     3  C    0.266231
     4  O   -0.642601
     6  O   -0.755475
     8  N    0.047686
     9  C    0.030693
    11  O   -0.546269
    12  C    0.773383
    14  O   -0.468612
    20  C   -0.070667
    21  C    0.368464
    22  C    0.465301
    23  N   -0.663029
    24  C    0.410885
    27  O   -0.779555
    28  O   -0.746119
 Electronic spatial extent (au):  <R**2>=           4123.3386
 Charge=             -1.0000 electrons
 Dipole moment (field-independent basis, Debye):
    X=            -16.5499    Y=              3.4046    Z=             -1.5962  Tot=             16.9717
 Quadrupole moment (field-independent basis, Debye-Ang):
   XX=           -175.0893   YY=           -104.4358   ZZ=           -107.4471
   XY=             -0.7678   XZ=             -2.1836   YZ=             -1.9649
 Traceless Quadrupole moment (field-independent basis, Debye-Ang):
   XX=            -46.0986   YY=             24.5549   ZZ=             21.5437
   XY=             -0.7678   XZ=             -2.1836   YZ=             -1.9649
 Octapole moment (field-independent basis, Debye-Ang**2):
  XXX=           -336.2463  YYY=             42.6178  ZZZ=             -4.3961  XYY=            -78.3975
  XXY=              3.5491  XXZ=            -53.8777  XZZ=             -3.0735  YZZ=             -5.0990
  YYZ=              5.2278  XYZ=             -7.4396
 Hexadecapole moment (field-independent basis, Debye-Ang**3):
 XXXX=          -5072.6275 YYYY=          -1206.2345 ZZZZ=           -407.6933 XXXY=           -155.8662
 XXXZ=           -131.4123 YYYX=             -5.8085 YYYZ=              3.3948 ZZZX=              7.5705
 ZZZY=              4.9548 XXYY=           -893.4158 XXZZ=           -737.2772 YYZZ=           -296.7414
 XXYZ=            -42.0322 YYXZ=             -9.9765 ZZXY=            -10.1034
 N-N= 1.308919964824D+03 E-N=-4.767410158423D+03  KE= 9.048963553138D+02
 Calling FoFJK, ICntrl=      2127 FMM=F ISym2X=0 I1Cent= 0 IOpClX= 0 NMat=1 NMatS=1 NMatT=0.
 ***** Axes restored to original set *****
 -------------------------------------------------------------------
 Center     Atomic                   Forces (Hartrees/Bohr)
 Number     Number              X              Y              Z
 -------------------------------------------------------------------
      1        6           0.003952014    0.000192451   -0.002089432
      2        6           0.003280037    0.004331969   -0.000877655
      3        6           0.017928553    0.003746244    0.007127955
      4        8          -0.006630470   -0.005036534    0.000373749
      5        1           0.000522737    0.000284631   -0.001735548
      6        8          -0.015658833    0.005979794   -0.000812517
      7        1          -0.000608388   -0.001227667    0.000506949
      8        7          -0.031477854    0.001588574   -0.007628734
      9        6           0.007636981   -0.000913021   -0.003680311
     10        1           0.000313151   -0.000667040   -0.000681755
     11        8          -0.006153580   -0.000893632    0.003029152
     12        6           0.001319641    0.000096863    0.001004754
     13        1          -0.001882046   -0.000530134    0.000087872
     14        8          -0.003115275    0.001366728    0.000339367
     15        1          -0.000921481    0.000276552    0.000461002
     16        1           0.000130934    0.000249003   -0.000722011
     17        1           0.001935294    0.000080452   -0.000668893
     18        1           0.002444704    0.002060085   -0.000109687
     19        1           0.000234356   -0.000499723   -0.000360786
     20        6          -0.003859484    0.000304215   -0.000665568
     21        6          -0.000891262    0.010037771    0.001298310
     22        6          -0.038254657   -0.057627299   -0.015404553
     23        7           0.000614533   -0.007678339    0.000206346
     24        6           0.069773081    0.048214529    0.020703347
     25        1           0.002014375   -0.000400257   -0.000060993
     26        1          -0.003263060    0.005050829   -0.000270320
     27        8           0.023580812    0.020289895    0.007591526
     28        8          -0.022964813   -0.028676940   -0.006961568
 -------------------------------------------------------------------
 Cartesian Forces:  Max     0.069773081 RMS     0.014345417

 GradGradGradGradGradGradGradGradGradGradGradGradGradGradGradGradGradGrad
 Berny optimization.
 FormGI is forming the generalized inverse of G from B-inverse, IUseBI=4.
 Internal  Forces:  Max     0.033025797 RMS     0.007048687
 Search for a local minimum.
 Step number   1 out of a maximum of  166
 All quantities printed in internal units (Hartrees-Bohrs-Radians)
 Mixed Optimization -- RFO/linear search
 Second derivative matrix not updated -- first step.
 ITU=  0
     Eigenvalues ---    0.00526   0.00664   0.00738   0.00902   0.01436
     Eigenvalues ---    0.01474   0.01497   0.01500   0.01700   0.01738
     Eigenvalues ---    0.01947   0.01955   0.02082   0.02257   0.02460
     Eigenvalues ---    0.03070   0.03746   0.04398   0.04912   0.05062
     Eigenvalues ---    0.05448   0.05537   0.05666   0.05943   0.06155
     Eigenvalues ---    0.06303   0.07036   0.07960   0.08164   0.09837
     Eigenvalues ---    0.11039   0.13180   0.13685   0.16000   0.16000
     Eigenvalues ---    0.16000   0.16000   0.16000   0.16041   0.16837
     Eigenvalues ---    0.18759   0.19934   0.22050   0.22445   0.24479
     Eigenvalues ---    0.24988   0.24997   0.25000   0.25000   0.26350
     Eigenvalues ---    0.28488   0.28636   0.31584   0.33323   0.33380
     Eigenvalues ---    0.33454   0.33940   0.34010   0.34024   0.34934
     Eigenvalues ---    0.35321   0.35494   0.37339   0.38761   0.42558
     Eigenvalues ---    0.43052   0.43131   0.43298   0.45728   0.46554
     Eigenvalues ---    0.48475   0.50287   0.53525   0.54085   0.54982
     Eigenvalues ---    0.55436   0.93736   0.95937
 RFO step:  Lambda=-2.17793895D-02 EMin= 5.25676510D-03
 Linear search not attempted -- first point.
 Iteration  1 RMS(Cart)=  0.11549616 RMS(Int)=  0.00328796
 Iteration  2 RMS(Cart)=  0.00520243 RMS(Int)=  0.00012148
 Iteration  3 RMS(Cart)=  0.00001488 RMS(Int)=  0.00012113
 Iteration  4 RMS(Cart)=  0.00000000 RMS(Int)=  0.00012113
 Variable       Old X    -DE/DX   Delta X   Delta X   Delta X     New X
                                 (Linear)    (Quad)   (Total)
    R1        2.88850  -0.00112   0.00000  -0.00394  -0.00392   2.88458
    R2        2.89498   0.00097   0.00000   0.00011   0.00006   2.89504
    R3        2.07431  -0.00066   0.00000  -0.00183  -0.00183   2.07248
    R4        2.64439   0.00485   0.00000   0.01013   0.01013   2.65452
    R5        2.90139  -0.00274   0.00000  -0.00746  -0.00742   2.89397
    R6        2.67304   0.00463   0.00000   0.01018   0.01018   2.68322
    R7        2.07313  -0.00100   0.00000  -0.00277  -0.00277   2.07037
    R8        2.64800   0.01212   0.00000   0.02691   0.02693   2.67493
    R9        2.07289   0.00039   0.00000   0.00107   0.00107   2.07396
   R10        2.78180  -0.00772   0.00000  -0.02050  -0.02050   2.76130
   R11        1.81848  -0.00024   0.00000  -0.00042  -0.00042   1.81806
   R12        2.70548  -0.00416   0.00000  -0.00965  -0.00968   2.69580
   R13        2.59159  -0.00945   0.00000  -0.01630  -0.01629   2.57530
   R14        2.61815   0.02407   0.00000   0.04830   0.04838   2.66653
   R15        2.84912   0.00209   0.00000   0.00619   0.00619   2.85531
   R16        2.08489   0.00163   0.00000   0.00458   0.00458   2.08946
   R17        1.82655  -0.00036   0.00000  -0.00063  -0.00063   1.82591
   R18        2.68219  -0.00163   0.00000  -0.00364  -0.00364   2.67854
   R19        2.08390   0.00104   0.00000   0.00293   0.00293   2.08682
   R20        2.08261   0.00074   0.00000   0.00207   0.00207   2.08468
   R21        1.81446  -0.00058   0.00000  -0.00101  -0.00101   1.81346
   R22        2.55587  -0.00514   0.00000  -0.00790  -0.00797   2.54790
   R23        2.05781  -0.00183   0.00000  -0.00493  -0.00493   2.05288
   R24        2.73762   0.01632   0.00000   0.03982   0.03974   2.77736
   R25        2.05156   0.00437   0.00000   0.01165   0.01165   2.06321
   R26        2.65474  -0.01810   0.00000  -0.04031  -0.04032   2.61442
   R27        2.30311   0.02881   0.00000   0.02936   0.02936   2.33248
   R28        2.59156  -0.02363   0.00000  -0.04596  -0.04589   2.54567
   R29        2.31257   0.03303   0.00000   0.03443   0.03443   2.34701
    A1        1.77382   0.00049   0.00000  -0.00510  -0.00506   1.76876
    A2        1.91263   0.00056   0.00000   0.00538   0.00535   1.91798
    A3        1.99998  -0.00115   0.00000  -0.00636  -0.00640   1.99359
    A4        1.90271   0.00034   0.00000   0.00288   0.00287   1.90558
    A5        1.99181  -0.00071   0.00000  -0.00291  -0.00299   1.98882
    A6        1.87979   0.00054   0.00000   0.00621   0.00624   1.88603
    A7        1.78158   0.00229   0.00000   0.00967   0.00972   1.79130
    A8        1.86162  -0.00262   0.00000  -0.00694  -0.00693   1.85469
    A9        1.97936   0.00167   0.00000   0.01263   0.01262   1.99197
   A10        1.94113   0.00129   0.00000   0.00607   0.00606   1.94719
   A11        1.94958  -0.00255   0.00000  -0.01427  -0.01434   1.93524
   A12        1.94322   0.00013   0.00000  -0.00533  -0.00531   1.93791
   A13        1.87927  -0.00382   0.00000  -0.01120  -0.01132   1.86795
   A14        1.92910   0.00035   0.00000  -0.01873  -0.01914   1.90996
   A15        1.95052  -0.00310   0.00000  -0.01212  -0.01256   1.93796
   A16        1.92877  -0.00014   0.00000  -0.00216  -0.00239   1.92639
   A17        1.91379   0.00877   0.00000   0.06421   0.06430   1.97810
   A18        1.86296  -0.00187   0.00000  -0.01887  -0.01937   1.84359
   A19        1.89311  -0.00553   0.00000  -0.03040  -0.03040   1.86271
   A20        1.92874   0.00049   0.00000  -0.00109  -0.00104   1.92770
   A21        2.14496   0.00618   0.00000   0.02035   0.02029   2.16525
   A22        2.00861  -0.00183   0.00000  -0.00919  -0.00926   1.99935
   A23        2.12938  -0.00435   0.00000  -0.01138  -0.01129   2.11808
   A24        1.83308  -0.00008   0.00000   0.00102   0.00089   1.83396
   A25        2.01348   0.00048   0.00000   0.00566   0.00554   2.01902
   A26        1.89959  -0.00007   0.00000  -0.00462  -0.00463   1.89496
   A27        1.91644   0.00128   0.00000   0.01661   0.01659   1.93303
   A28        1.90998  -0.00004   0.00000  -0.00145  -0.00139   1.90859
   A29        1.88932  -0.00153   0.00000  -0.01687  -0.01684   1.87248
   A30        1.86244  -0.00348   0.00000  -0.01917  -0.01917   1.84327
   A31        1.90240   0.00436   0.00000   0.01896   0.01895   1.92135
   A32        1.87410  -0.00074   0.00000  -0.00273  -0.00271   1.87139
   A33        1.90433  -0.00126   0.00000  -0.00402  -0.00405   1.90028
   A34        1.94575  -0.00182   0.00000  -0.00955  -0.00956   1.93619
   A35        1.93760  -0.00095   0.00000  -0.00096  -0.00099   1.93661
   A36        1.89822   0.00039   0.00000  -0.00177  -0.00180   1.89642
   A37        1.90159  -0.00014   0.00000  -0.00074  -0.00074   1.90084
   A38        2.13221  -0.01054   0.00000  -0.03646  -0.03652   2.09569
   A39        2.00276   0.00608   0.00000   0.02271   0.02273   2.02549
   A40        2.14822   0.00446   0.00000   0.01376   0.01379   2.16200
   A41        2.09876  -0.00037   0.00000   0.00162   0.00147   2.10023
   A42        2.11709  -0.00406   0.00000  -0.02418  -0.02411   2.09298
   A43        2.06734   0.00443   0.00000   0.02256   0.02263   2.08997
   A44        1.97416   0.01795   0.00000   0.06312   0.06302   2.03718
   A45        2.21576  -0.02507   0.00000  -0.09076  -0.09071   2.12505
   A46        2.09325   0.00711   0.00000   0.02765   0.02769   2.12094
   A47        2.23147  -0.02383   0.00000  -0.09400  -0.09392   2.13754
   A48        1.99959   0.02114   0.00000   0.07710   0.07723   2.07682
   A49        2.12890  -0.03084   0.00000  -0.11315  -0.11324   2.01565
   A50        2.15468   0.00970   0.00000   0.03598   0.03588   2.19056
    D1        0.58900   0.00167   0.00000   0.00640   0.00636   0.59536
    D2       -1.44899   0.00024   0.00000  -0.00193  -0.00196  -1.45095
    D3        2.68883   0.00088   0.00000   0.00168   0.00169   2.69052
    D4       -1.42226   0.00082   0.00000   0.00352   0.00349  -1.41877
    D5        2.82294  -0.00061   0.00000  -0.00482  -0.00483   2.81811
    D6        0.67758   0.00003   0.00000  -0.00121  -0.00118   0.67639
    D7        2.74586   0.00049   0.00000  -0.00418  -0.00418   2.74168
    D8        0.70787  -0.00094   0.00000  -0.01251  -0.01250   0.69537
    D9       -1.43749  -0.00030   0.00000  -0.00891  -0.00885  -1.44635
   D10       -0.60036  -0.00077   0.00000  -0.01224  -0.01219  -0.61255
   D11       -2.71274  -0.00261   0.00000  -0.03726  -0.03722  -2.74996
   D12        1.44348  -0.00089   0.00000  -0.01558  -0.01554   1.42794
   D13        1.41820   0.00023   0.00000  -0.00749  -0.00746   1.41074
   D14       -0.69418  -0.00161   0.00000  -0.03251  -0.03250  -0.72668
   D15       -2.82114   0.00012   0.00000  -0.01083  -0.01081  -2.83196
   D16       -2.76276   0.00070   0.00000   0.00061   0.00062  -2.76214
   D17        1.40805  -0.00114   0.00000  -0.02441  -0.02442   1.38363
   D18       -0.71892   0.00059   0.00000  -0.00273  -0.00273  -0.72165
   D19       -0.60111   0.00075   0.00000   0.01684   0.01679  -0.58432
   D20        1.43408   0.00002   0.00000   0.00333   0.00337   1.43745
   D21       -2.73412   0.00039   0.00000   0.00956   0.00956  -2.72456
   D22       -0.39505  -0.00060   0.00000   0.00470   0.00469  -0.39035
   D23       -2.50336   0.00175   0.00000   0.02548   0.02537  -2.47798
   D24        1.70770   0.00587   0.00000   0.06938   0.06912   1.77682
   D25        1.58468  -0.00191   0.00000   0.00417   0.00428   1.58895
   D26       -0.52364   0.00044   0.00000   0.02495   0.02496  -0.49868
   D27       -2.59576   0.00456   0.00000   0.06885   0.06871  -2.52706
   D28       -2.51555  -0.00269   0.00000  -0.00898  -0.00886  -2.52440
   D29        1.65933  -0.00034   0.00000   0.01180   0.01182   1.67115
   D30       -0.41280   0.00379   0.00000   0.05569   0.05557  -0.35723
   D31       -3.00403  -0.00005   0.00000  -0.01419  -0.01418  -3.01821
   D32        1.35027  -0.00194   0.00000  -0.02466  -0.02470   1.32558
   D33       -0.83625   0.00033   0.00000  -0.00652  -0.00650  -0.84275
   D34        0.01684   0.00001   0.00000  -0.01451  -0.01448   0.00236
   D35        2.12536  -0.00203   0.00000  -0.04569  -0.04596   2.07939
   D36       -2.10888   0.00092   0.00000  -0.03111  -0.03116  -2.14004
   D37       -1.77269  -0.00104   0.00000  -0.03954  -0.03953  -1.81222
   D38        1.34598  -0.00146   0.00000  -0.05031  -0.05028   1.29570
   D39        0.30977  -0.00200   0.00000  -0.01895  -0.01881   0.29096
   D40       -2.85474  -0.00242   0.00000  -0.02972  -0.02956  -2.88430
   D41        2.39947   0.00157   0.00000   0.00280   0.00262   2.40209
   D42       -0.76504   0.00115   0.00000  -0.00797  -0.00814  -0.77318
   D43        0.37240   0.00010   0.00000   0.01706   0.01704   0.38944
   D44        2.54738   0.00136   0.00000   0.03409   0.03412   2.58150
   D45       -1.66434   0.00024   0.00000   0.02258   0.02262  -1.64172
   D46       -3.13789  -0.00065   0.00000  -0.00913  -0.00900   3.13629
   D47        0.00645  -0.00076   0.00000  -0.01366  -0.01368  -0.00722
   D48        0.02818  -0.00025   0.00000   0.00229   0.00239   0.03057
   D49       -3.11066  -0.00036   0.00000  -0.00223  -0.00229  -3.11295
   D50        3.11960  -0.00012   0.00000   0.00785   0.00772   3.12732
   D51       -0.02825  -0.00035   0.00000  -0.00411  -0.00385  -0.03210
   D52       -0.04469  -0.00038   0.00000  -0.00235  -0.00225  -0.04694
   D53        3.09065  -0.00061   0.00000  -0.01431  -0.01383   3.07683
   D54        0.96598   0.00002   0.00000  -0.00608  -0.00604   0.95994
   D55       -1.14421   0.00015   0.00000  -0.00381  -0.00378  -1.14798
   D56        3.08446   0.00077   0.00000   0.00196   0.00199   3.08646
   D57       -1.10057  -0.00113   0.00000  -0.02336  -0.02343  -1.12400
   D58        3.07243  -0.00100   0.00000  -0.02109  -0.02116   3.05127
   D59        1.01791  -0.00038   0.00000  -0.01532  -0.01539   1.00252
   D60        3.09845  -0.00092   0.00000  -0.02115  -0.02112   3.07734
   D61        0.98827  -0.00078   0.00000  -0.01889  -0.01885   0.96942
   D62       -1.06625  -0.00016   0.00000  -0.01312  -0.01308  -1.07933
   D63       -3.07736  -0.00020   0.00000  -0.00356  -0.00352  -3.08088
   D64       -1.01162   0.00055   0.00000  -0.00069  -0.00073  -1.01235
   D65        1.10773  -0.00087   0.00000  -0.01022  -0.01023   1.09751
   D66        0.00151  -0.00023   0.00000  -0.00096  -0.00117   0.00034
   D67        3.14048  -0.00021   0.00000  -0.00430  -0.00448   3.13599
   D68        3.14012  -0.00011   0.00000   0.00395   0.00389  -3.13917
   D69       -0.00410  -0.00009   0.00000   0.00060   0.00058  -0.00351
   D70       -0.01023  -0.00010   0.00000  -0.00416  -0.00445  -0.01469
   D71        3.13594  -0.00017   0.00000  -0.00641  -0.00643   3.12950
   D72        3.13391  -0.00010   0.00000  -0.00084  -0.00108   3.13283
   D73       -0.00311  -0.00017   0.00000  -0.00309  -0.00306  -0.00617
   D74       -0.01038   0.00041   0.00000   0.00808   0.00817  -0.00220
   D75        3.12699   0.00038   0.00000   0.00980   0.00981   3.13680
   D76        0.03701  -0.00029   0.00000  -0.00516  -0.00514   0.03187
   D77       -3.09822   0.00011   0.00000   0.00760   0.00827  -3.08995
         Item               Value     Threshold  Converged?
 Maximum Force            0.033026     0.000450     NO 
 RMS     Force            0.007049     0.000300     NO 
 Maximum Displacement     0.604144     0.001800     NO 
 RMS     Displacement     0.116585     0.001200     NO 
 Predicted change in Energy=-1.196087D-02
 GradGradGradGradGradGradGradGradGradGradGradGradGradGradGradGradGradGrad

                          Input orientation:                          
 ---------------------------------------------------------------------
 Center     Atomic      Atomic             Coordinates (Angstroms)
 Number     Number       Type             X           Y           Z
 ---------------------------------------------------------------------
      1          6           0       -2.084135   -0.170904    0.818043
      2          6           0       -1.112589   -1.268115    0.391083
      3          6           0       -0.390170   -0.631115   -0.799547
      4          8           0       -1.910622   -2.371196   -0.011994
      5          1           0       -0.399212   -1.562240    1.168838
      6          8           0       -1.235078    0.388461   -1.299814
      7          1           0       -0.213442   -1.392931   -1.569544
      8          7           0        0.933474   -0.147995   -0.412609
      9          6           0       -2.434973    0.462893   -0.531848
     10          1           0       -1.563069    0.568155    1.438569
     11          8           0       -3.198174   -0.635186    1.536777
     12          6           0       -2.947049    1.883304   -0.474986
     13          1           0       -3.218207   -0.149592   -1.015553
     14          8           0       -2.021311    2.707310    0.212847
     15          1           0       -3.919131    1.859719    0.048442
     16          1           0       -3.109142    2.245761   -1.504221
     17          1           0       -3.398700   -1.506794    1.171137
     18          1           0       -1.308486   -3.103587   -0.175152
     19          1           0       -2.387062    3.591424    0.286851
     20          6           0        1.235949    1.164243   -0.203465
     21          6           0        2.485089    1.520372    0.158080
     22          6           0        3.528069    0.499029    0.328720
     23          7           0        3.151753   -0.815595    0.118493
     24          6           0        1.895852   -1.162511   -0.223657
     25          1           0        0.422910    1.870134   -0.347737
     26          1           0        2.725966    2.572909    0.319879
     27          8           0        4.682964    0.796699    0.646668
     28          8           0        1.484289   -2.324496   -0.375076
 ---------------------------------------------------------------------
                    Distance matrix (angstroms):
                    1          2          3          4          5
     1  C    0.000000
     2  C    1.526456   0.000000
     3  C    2.387029   1.531424   0.000000
     4  O    2.358039   1.419899   2.441289   0.000000
     5  H    2.213106   1.095590   2.177525   2.081617   0.000000
     6  O    2.349278   2.370313   1.415511   3.119382   3.255480
     7  H    3.270079   2.160580   1.097493   2.502676   2.749893
     8  N    3.258986   2.467177   1.461219   3.632079   2.505417
     9  C    1.531990   2.365775   2.334467   2.928695   3.337337
    10  H    1.096709   2.161492   2.796981   3.296166   2.442520
    11  O    1.404713   2.462291   3.652850   2.658987   2.971362
    12  C    2.576105   3.747901   3.600732   4.403330   4.589706
    13  H    2.156073   2.768275   2.876859   2.766303   3.835866
    14  O    2.941824   4.081857   3.851058   5.084686   4.666282
    15  H    2.843049   4.216329   4.401921   4.683845   5.035367
    16  H    3.504828   4.463825   4.020670   4.997948   5.384221
    17  H    1.907186   2.427294   3.701576   2.088388   3.000001
    18  H    3.191974   1.930791   2.710404   0.962074   2.238043
    19  H    3.811698   5.024965   4.795589   5.989085   5.593720
    20  C    3.721431   3.432999   2.494572   4.736760   3.462755
    21  C    4.916683   4.557767   3.716593   5.873286   4.340889
    22  C    5.673189   4.966125   4.231171   6.159029   4.514218
    23  N    5.321609   4.296940   3.663612   5.297599   3.777573
    24  C    4.231869   3.072421   2.416594   3.999370   2.714063
    25  H    3.436590   3.571025   2.668610   4.852522   3.841494
    26  H    5.560014   5.430750   4.607515   6.786182   5.252326
    27  O    6.838074   6.157696   5.465060   7.344710   5.627234
    28  O    4.335336   2.906324   2.561506   3.414591   2.551917
                    6          7          8          9         10
     6  O    0.000000
     7  H    2.071195   0.000000
     8  N    2.403650   2.050312   0.000000
     9  C    1.426555   3.075076   3.425469   0.000000
    10  H    2.763804   3.836156   3.189429   2.157276   0.000000
    11  O    3.598312   4.374018   4.594342   2.463223   2.032546
    12  C    2.417797   4.405040   4.380471   1.510967   2.703093
    13  H    2.074393   3.298698   4.195235   1.105696   3.045876
    14  O    2.878084   4.822581   4.156287   2.400644   2.507661
    15  H    3.344628   5.189388   5.271742   2.119100   3.025164
    16  H    2.646406   4.650745   4.823322   2.139773   3.723535
    17  H    3.791946   4.203590   4.808567   2.776437   2.783249
    18  H    3.669422   2.463696   3.717296   3.757125   4.018781
    19  H    3.755469   5.745835   5.049600   3.234234   3.338499
    20  C    2.812435   3.241303   1.362792   3.751718   3.299409
    21  C    4.152868   4.330598   2.348753   5.079495   4.351316
    22  C    5.035069   4.602372   2.774911   6.024927   5.211164
    23  N    4.765043   3.808848   2.376662   5.767927   5.087918
    24  C    3.656002   2.512693   1.411069   4.636050   4.209790
    25  H    2.418828   3.541942   2.082722   3.190880   2.971557
    26  H    4.804695   5.285634   3.339594   5.640292   4.864805
    27  O    6.243290   5.803522   4.009139   7.222558   6.300180
    28  O    3.950979   2.275271   2.245431   4.811936   4.576367
                   11         12         13         14         15
    11  O    0.000000
    12  C    3.233118   0.000000
    13  H    2.598191   2.120944   0.000000
    14  O    3.782867   1.417423   3.332179   0.000000
    15  H    2.993238   1.104300   2.379225   2.084985   0.000000
    16  H    4.189923   1.103165   2.447122   2.084400   1.793285
    17  H    0.966232   3.795587   2.579960   4.535879   3.586741
    18  H    3.548891   5.257744   3.616545   5.867298   5.612475
    19  H    4.481568   1.952346   4.047500   0.959639   2.324409
    20  C    5.091938   4.253027   4.714356   3.628239   5.207878
    21  C    6.232713   5.480931   6.057539   4.660415   6.414142
    22  C    6.927351   6.670031   6.909415   5.973739   7.575673
    23  N    6.508890   6.695645   6.504307   6.259422   7.560398
    24  C    5.415376   5.726591   5.273206   5.523605   6.559111
    25  H    4.789600   3.372386   4.216990   2.643735   4.360090
    26  H    6.846032   5.769789   6.672974   4.750386   6.688770
    27  O    8.059462   7.788191   8.129388   6.984693   8.688149
    28  O    5.332393   6.111654   5.220526   6.160679   6.847188
                   16         17         18         19         20
    16  H    0.000000
    17  H    4.617690   0.000000
    18  H    5.798648   2.954866   0.000000
    19  H    2.353752   5.272305   6.797054   0.000000
    20  C    4.662775   5.523037   4.968835   4.388374   0.000000
    21  C    5.880889   6.693952   5.990263   5.295630   1.348293
    22  C    7.103754   7.260380   6.051858   6.674836   2.445311
    23  N    7.155691   6.670401   5.021440   7.080158   2.773756
[...]
 5791,0.00012490,0.00010367,-0.00005439,-0.00006751,-0.00029691,-0.0422
 3073,0.01096823,-0.06320085,0.06257588,-0.09501760,0.12531563,-0.00030
 321,-0.00009897,-0.00041067,0.00050857,-0.00008991,0.00097647,-0.00625
 759,0.00012760,-0.00125257,0.00307610,-0.00016598,-0.00109389,-0.00013
 533,0.00000102,0.00008747,0.00387302,-0.00165875,0.00035086,0.00103228
 ,0.00019087,0.00022487,0.01104976,0.00543157,0.00070879,-0.00201539,-0
 .00009477,0.00031610,0.00042052,-0.00005951,-0.00005990,0.00120677,0.0
 0037239,0.00023012,0.00006783,0.00038005,-0.00013586,0.00036442,0.0000
 3175,0.00017003,0.00034705,-0.00064761,-0.00011286,0.00019145,-0.00009
 866,-0.00010608,-0.00008956,-0.00010025,0.00010414,-0.00080664,-0.0002
 2896,-0.00015552,-0.00419393,-0.00033614,0.00145103,-0.00039737,0.0005
 9567,0.00022604,-0.03294180,0.01828665,-0.00792059,-0.12303763,0.05830
 296,-0.01683598,0.88270538,-0.00010676,0.00032331,0.00063851,-0.001179
 91,0.00388973,-0.00142491,0.00119099,-0.00090759,0.00087338,0.00654258
 ,-0.00383388,-0.00080227,-0.00007097,-0.00038737,-0.00019406,0.0001339
 6,-0.00220165,0.00030593,-0.00137502,-0.00072742,-0.00076713,0.0087302
 9,-0.05347613,0.01118970,0.00083952,-0.00026659,0.00002191,-0.00008818
 ,-0.00001192,-0.00005632,0.00038051,-0.00096192,0.00023343,0.00027155,
 0.00035868,0.00028508,-0.00007931,-0.00008336,0.00000285,-0.00037181,-
 0.00059023,-0.00012016,-0.00009269,-0.00003989,-0.00004234,0.00004419,
 -0.00012188,0.00002003,-0.00082544,0.00022255,-0.00044265,-0.00961284,
 0.00086164,0.00254484,0.00068242,0.00043131,-0.00024404,0.03901599,0.0
 5315653,-0.00492114,0.03651625,-0.18817168,0.02443727,0.05471223,0.550
 90645,0.00005804,-0.00006716,-0.00025783,0.00034877,-0.00111500,0.0007
 9064,-0.00073163,0.00011316,-0.00100028,-0.00234211,0.00126193,0.00005
 860,0.00003164,0.00006129,-0.00000459,0.00042895,0.00015320,-0.0000516
 1,0.00015302,-0.00007972,0.00010262,0.00069486,0.00997356,-0.00949458,
 -0.00048406,0.00010214,0.00002731,0.00008721,-0.00000490,0.00001206,-0
 .00003576,0.00029126,-0.00010543,-0.00001546,-0.00000804,0.00002515,0.
 00004960,0.00001385,0.00000108,0.00002961,0.00001079,-0.00008065,0.000
 02460,-0.00000370,-0.00002158,-0.00002257,0.00002961,-0.00001528,0.000
 16747,-0.00006321,0.00016497,0.00314210,-0.00027300,-0.00032965,-0.000
 01755,-0.00002741,0.00009564,-0.01289485,-0.00743798,0.00428836,-0.010
 99857,0.02674481,-0.08792855,0.05872746,-0.05950962,0.23420367,0.00026
 178,0.00000764,-0.00023814,0.00053206,-0.00414910,0.00036784,0.0059598
 0,0.00340407,-0.00063170,-0.01021302,0.00415491,0.00273664,0.00012292,
 0.00057449,0.00017576,-0.00464778,0.00287836,-0.00051395,0.00014073,0.
 00032730,0.00054313,-0.05198065,0.04394447,-0.01829816,0.00113340,0.00
 035532,-0.00047368,-0.00026022,0.00004834,0.00011703,-0.00125654,0.000
 54758,-0.00039644,-0.00034549,-0.00062784,-0.00015721,-0.00029332,0.00
 005176,-0.00012085,0.00004724,0.00096691,0.00028614,-0.00008688,0.0001
 4441,0.00013644,0.00004247,0.00017382,-0.00008087,0.00142843,-0.000006
 11,0.00059502,0.01447128,-0.00071354,-0.00547633,-0.00022758,-0.000788
 69,-0.00015025,-0.02288479,-0.03106393,0.00307785,0.03252090,0.0026172
 8,0.00268985,-0.11006103,-0.05625627,0.00529689,0.63767067,0.00012130,
 -0.00048402,-0.00036562,0.00042584,-0.00471597,0.00140239,-0.00095320,
 -0.00775817,0.00118434,-0.01017012,0.00512171,0.00224460,0.00009565,0.
 00060938,0.00012083,0.00289220,0.00204966,-0.00018588,0.00063426,0.000
 59803,0.00074913,0.02647248,0.02823435,0.00270459,-0.00042966,-0.00039
 340,0.00049541,0.00001520,0.00007165,0.00002566,-0.00067600,0.00106432
 ,-0.00035381,0.00008044,-0.00019623,-0.00017893,0.00021515,0.00006735,
 -0.00006908,0.00017164,0.00053016,0.00005258,0.00006588,-0.00005880,0.
 00000525,-0.00002699,0.00013673,-0.00002434,0.00114730,-0.00020156,0.0
 0059184,0.01363185,-0.00127506,-0.00560384,-0.00038508,-0.00035686,0.0
 0012317,-0.01185458,-0.01438874,0.00088468,0.00094725,-0.04011878,0.01
 210114,-0.03327418,-0.26364291,0.03497152,0.17567493,0.44607050,-0.000
 08974,0.00006147,0.00012564,-0.00086766,-0.00016992,-0.00028550,0.0005
 3784,0.00323411,0.00391541,0.00034747,-0.00025384,-0.00004621,-0.00003
 585,0.00002462,-0.00011206,-0.00069361,-0.00039639,0.00010478,0.000480
 87,-0.00028627,-0.00032047,-0.01479869,0.00396920,0.01782212,0.0001191
 0,0.00000098,-0.00020172,-0.00006035,0.00000360,0.00000556,0.00004217,
 -0.00016262,0.00005790,-0.00003150,-0.00001257,-0.00005515,-0.00009521
 ,0.00001677,0.00001647,-0.00000442,-0.00000096,0.00009918,-0.00000779,
 0.00001269,0.00001698,0.00000897,-0.00002288,0.00001828,-0.00012209,0.
 00005692,-0.00008572,-0.00046759,0.00050846,0.00046368,0.00005440,-0.0
 0000870,-0.00009617,-0.00010175,-0.00062798,-0.00082378,0.00113036,0.0
 1152717,0.01662287,0.00046343,0.03387443,-0.06826283,0.02765525,-0.059
 49897,0.07693834,-0.00041694,0.00072730,-0.00043318,-0.00164433,0.0043
 7926,0.00010044,-0.03134493,0.02683589,-0.00824280,0.00701963,-0.00202
 586,-0.00039716,-0.00029495,-0.00024985,0.00010257,-0.00080167,-0.0058
 3500,0.00094521,-0.00060900,0.00015533,-0.00162530,-0.15268135,-0.0066
 9067,-0.01225385,-0.00162841,0.00053427,-0.00068490,0.00052019,-0.0001
 6265,-0.00004041,0.00189476,-0.00051984,0.00056099,-0.00004066,0.00057
 521,0.00009577,-0.00000643,-0.00000033,0.00021361,0.00007291,-0.001170
 89,-0.00025573,0.00010525,-0.00003101,-0.00012259,-0.00004823,-0.00023
 233,0.00009551,-0.00174774,-0.00011319,-0.00056973,-0.01366577,-0.0074
 2828,0.00288597,0.00026851,0.00094026,0.00020768,0.04826522,0.03943862
 ,-0.00083162,-0.02888967,0.00645803,-0.00594859,-0.04959071,-0.0678644
 1,0.01121934,-0.36585032,-0.03944523,-0.02435337,0.73672568,-0.0001978
 4,0.00086565,0.00221831,-0.00610384,0.01700755,-0.00599455,0.02325770,
 0.02785438,0.00133299,0.03437459,-0.01631966,-0.00645353,0.00009217,-0
 .00199890,-0.00098955,-0.01265112,-0.00484217,-0.00008787,-0.00614916,
 -0.00271630,-0.00317958,0.02154324,-0.13449288,0.01898059,0.00278696,0
 .00124066,-0.00196846,-0.00077389,-0.00010028,-0.00007947,0.00084447,-
 0.00401714,0.00092112,-0.00051185,-0.00014790,0.00038124,-0.00102508,-
 0.00013101,0.00004813,-0.00040551,-0.00040397,0.00013488,-0.00027788,0
 .00030526,0.00011342,0.00010240,-0.00024412,-0.00003423,-0.00322279,0.
 00101747,-0.00205533,-0.04553852,0.00060608,0.01721959,0.00079317,-0.0
 0001804,-0.00040189,-0.00257106,-0.05334635,0.01062035,0.01347297,0.00
 128329,0.00192296,-0.04478527,0.00017530,-0.00797662,-0.02295724,-0.11
 333688,0.00630768,0.19512662,0.68410315,0.00041038,-0.00037569,-0.0000
 3902,0.00191483,-0.00172342,0.00183707,-0.00853192,-0.00157167,-0.0045
 7088,-0.00214552,0.00188449,0.00027604,0.00003284,0.00003185,0.0001398
 2,0.00043597,0.00076979,-0.00032796,0.00038395,0.00091618,0.00153908,-
 0.01767244,0.01091943,-0.07183809,-0.00038280,0.00047581,0.00046667,0.
 00015469,0.00001090,-0.00004995,-0.00004820,0.00055822,-0.00032989,-0.
 00007897,0.00000423,0.00000756,0.00026540,0.00000720,-0.00003499,0.000
 10377,-0.00000822,-0.00015035,0.00003110,-0.00001750,-0.00001922,-0.00
 002973,0.00004556,-0.00001041,0.00044378,-0.00018119,0.00031998,0.0037
 6071,0.00252486,-0.00326492,-0.00018505,0.00008732,0.00020693,0.007167
 03,0.01656634,-0.00122390,-0.00686392,0.00053617,-0.00099621,0.0065380
 5,-0.01212894,-0.01588755,-0.02766009,0.00441949,-0.07477103,0.0136822
 9,-0.08445370,0.24179785,-0.00009119,-0.00013267,0.00005980,-0.0000580
 5,-0.00003175,0.00020962,-0.00006777,-0.00026887,0.00017475,-0.0002429
 1,0.00035406,-0.00017244,0.00003585,0.00003007,-0.00001584,-0.00477225
 ,-0.00318106,-0.00103451,0.00017735,0.00025628,-0.00007602,0.01259200,
 -0.00996426,0.00363218,-0.00119501,-0.00018883,0.00030493,0.00000419,0
 .00002412,-0.00002952,0.00005889,0.00019943,-0.00003974,-0.00007543,0.
 00003069,-0.00001953,0.00022261,0.00002809,0.00002731,0.00006773,-0.00
 013956,-0.00023654,0.00005238,-0.00002645,-0.00005629,-0.00006109,0.00
 005746,-0.00001799,0.00002728,-0.00004051,0.00002454,0.00037367,-0.000
 04947,-0.00009943,-0.00009656,0.00029531,0.00075940,-0.17846401,0.1403
 1462,-0.05046845,-0.01088640,0.02283695,-0.00743001,-0.00248158,-0.004
 98082,-0.00129976,0.00016407,0.00021653,0.00037294,-0.00114523,-0.0016
 8183,-0.00036486,0.18739630,0.00011472,-0.00024739,-0.00003868,-0.0000
 1568,-0.00041144,0.00010028,0.00359874,-0.00178351,0.00075152,-0.00066
 478,0.00056201,-0.00000228,0.00004221,0.00002039,0.00005126,0.00090826
 ,0.00157147,-0.00041818,-0.00030572,0.00001510,-0.00001529,0.02120401,
 -0.02505938,0.00892686,-0.00095048,0.00067859,0.00017475,0.00001026,0.
 00006649,-0.00008420,-0.00004924,0.00026285,-0.00004945,-0.00005610,0.
 00010993,-0.00001697,0.00029573,0.00003021,-0.00000337,0.00009924,-0.0
 0022140,-0.00010135,0.00005393,-0.00004757,0.00000053,0.00002226,0.000
 01406,0.00003040,0.00012391,-0.00004165,0.00004500,0.00101400,-0.00003
 770,-0.00041017,-0.00034733,0.00039508,0.00019003,0.13093474,-0.203729
 43,0.05461775,-0.00447950,0.00841756,-0.00049532,-0.00186560,0.0006948
 9,0.00240478,0.00096358,0.00060824,-0.00056571,-0.00782780,0.00132221,
 -0.00065966,-0.14372586,0.21951149,0.00007995,0.00006366,-0.00012466,0
 .00033068,0.00035564,0.00042616,-0.00015442,0.00007156,-0.00157426,0.0
 0008352,-0.00015279,-0.00014672,0.00000677,-0.00004987,-0.00013527,-0.
 00125176,-0.00132247,-0.00043679,-0.00022362,0.00001874,0.00003045,-0.
 00321592,0.00462761,0.00128564,-0.00019985,-0.00003544,-0.00011655,0.0
 0005772,0.00000962,0.00000644,0.00000227,-0.00004396,-0.00004158,0.000
 30323,0.00012724,0.00057349,-0.00004269,-0.00004575,0.00000407,-0.0004
 1287,-0.00023936,-0.00033297,-0.00005662,-0.00003268,-0.00008663,-0.00
 003364,0.00004268,-0.00011027,-0.00000948,0.00000262,0.00000922,-0.000
 17019,-0.00000367,0.00011540,0.00097433,0.00006719,-0.00017546,-0.0503
 3529,0.05744436,-0.05853595,-0.00054995,0.00276127,0.00772840,-0.00120
 181,0.00176119,0.01140244,-0.00021626,-0.00060028,-0.00218355,0.001158
 27,0.00001122,0.00337302,0.05451498,-0.06356664,0.04672842,0.00000201,
 -0.00002305,0.00007000,-0.00010486,0.00009514,-0.00027865,0.00074868,-
 0.00151182,0.00022869,0.00009030,-0.00010215,0.00006339,0.00000881,-0.
 00000445,0.00002055,-0.00004191,0.00027993,0.00003095,-0.00040450,-0.0
 0006942,-0.00005547,-0.00533820,0.00030704,-0.00189044,0.00013994,-0.0
 0001536,-0.00003239,-0.00004517,0.00000472,0.00000038,-0.00005536,-0.0
 0001033,0.00000896,-0.00003526,-0.00007046,-0.00002085,-0.00002524,-0.
 00000015,-0.00000499,0.00004014,0.00011081,0.00002872,0.00000010,0.000
 01382,0.00000897,-0.00000652,0.00001154,-0.00001129,0.00002354,0.00001
 888,-0.00001472,-0.00014658,0.00004621,0.00001032,-0.00001984,-0.00011
 252,-0.00000950,-0.00669295,-0.02844452,0.00526964,-0.09779874,-0.1053
 9065,0.01305643,0.01052699,0.01473224,-0.00204674,-0.00100598,0.004590
 02,-0.00117210,-0.00213582,0.00054224,-0.00035310,0.00069452,0.0004423
 1,0.00070067,0.10004411,0.00000979,-0.00001218,0.00003725,-0.00010163,
 -0.00013283,-0.00004282,0.00065265,0.00021225,0.00053194,-0.00030440,0
 .00013240,0.00007276,0.00001496,0.00001712,0.00000029,-0.00023141,0.00
 012753,-0.00004852,0.00009551,0.00006782,0.00005894,-0.00043459,0.0035
 3675,0.00090135,0.00009500,-0.00000793,-0.00001522,-0.00002203,0.00000
 344,-0.00000021,-0.00004977,0.00001381,-0.00002754,-0.00001249,-0.0000
 4114,-0.00000447,-0.00002344,0.00000196,-0.00000510,0.00000529,0.00006
 253,0.00001579,-0.00000364,0.00000761,0.00000693,0.00000140,0.00000917
 ,-0.00000671,0.00005197,-0.00000073,0.00002427,0.00040264,-0.00001544,
 -0.00016936,-0.00000260,-0.00005825,-0.00002086,0.00372199,-0.00104621
 ,0.00041666,-0.10852455,-0.29720244,0.04192392,-0.01810361,-0.01392467
 ,0.00123738,0.00275157,-0.00489084,0.00151437,0.00383556,0.00027433,0.
 00038008,-0.00042145,0.00041011,-0.00133074,0.11635508,0.30961195,-0.0
 0006238,0.00003371,0.00020834,-0.00060916,0.00011952,-0.00024618,-0.00
 019920,0.00048544,0.00235154,0.00020785,-0.00012326,-0.00005054,0.0000
 1321,-0.00000696,-0.00003242,0.00001396,0.00004487,-0.00014544,0.00055
 063,0.00013577,0.00015311,-0.00199167,0.00090609,0.00791495,-0.0000359
 1,-0.00001629,0.00005695,-0.00004335,0.00001401,-0.00003313,0.00002119
 ,-0.00004880,-0.00005491,0.00002231,0.00000897,0.00004946,0.00000374,0
 .00000312,-0.00000833,-0.00002253,-0.00003048,-0.00006423,0.00000329,-
 0.00000477,-0.00000491,-0.00000260,0.00000942,-0.00000988,-0.00001445,
 0.00000487,0.00001104,-0.00021055,0.00003605,0.00005804,-0.00003028,0.
 00003908,0.00006164,-0.00152794,-0.00394898,-0.00073175,0.01370555,0.0
 4302487,-0.03323842,0.00478972,0.00488343,0.00122406,-0.00092002,0.001
 77929,0.00120726,-0.00089836,-0.00014320,-0.00008632,0.00109983,-0.001
 36600,-0.00534979,-0.01436026,-0.04455787,0.02879955,0.00024434,0.0000
 7861,0.00038507,-0.00056083,-0.00006443,-0.00096028,0.00485086,-0.0006
 3401,0.00120148,-0.00300483,0.00031581,0.00120095,0.00011923,0.0000661
 3,-0.00005856,-0.00324564,0.00102303,-0.00024248,-0.00100920,-0.000149
 06,-0.00009424,-0.00901389,-0.00127296,-0.00001987,0.00184919,-0.00017
 466,-0.00027468,-0.00038367,0.00005401,0.00005871,-0.00107682,-0.00033
 788,-0.00020516,0.00001262,-0.00032232,0.00010946,-0.00035542,-0.00002
 767,-0.00014511,-0.00031737,0.00059099,0.00013210,-0.00016268,0.000070
 61,0.00009195,0.00008150,0.00008771,-0.00008764,0.00072386,0.00020937,
 0.00014536,0.00410063,0.00017538,-0.00177238,0.00038572,-0.00054304,-0
 .00029323,0.00613627,0.01106896,-0.00190038,-0.06832411,0.01413458,-0.
 01206758,-0.59005238,-0.04663429,-0.04337023,-0.06134710,-0.05298308,0
 .00337608,0.02400198,0.00153395,0.00102219,-0.00209396,0.00006014,0.00
 002193,0.00089030,0.00130547,-0.00006732,0.70723895,0.00004209,-0.0001
 2039,-0.00012628,0.00026389,-0.00103455,0.00025146,0.00025625,0.000130
 95,-0.00018681,-0.00198393,0.00107801,0.00035728,0.00002735,0.00011625
 ,0.00006555,-0.00025905,0.00082109,-0.00015171,0.00020797,0.00018404,0
 .00018325,-0.00422499,0.01190943,-0.00313331,-0.00013945,0.00008183,-0
 .00002956,-0.00001274,0.00001338,0.00001424,-0.00017921,0.00026448,-0.
 00007196,-0.00009992,-0.00015331,-0.00009473,0.00000307,0.00002308,-0.
 00001029,0.00011716,0.00024816,0.00006016,0.00001976,0.00001981,0.0000
 2066,-0.00001029,0.00004678,-0.00001391,0.00027560,-0.00005104,0.00012
 534,0.00277519,-0.00025365,-0.00094859,-0.00020006,-0.00018583,0.00005
 556,-0.00304187,-0.01304575,0.00264523,0.03648573,0.01299029,0.0059499
 0,-0.04608347,-0.10029855,-0.00008496,-0.07091842,-0.01135550,-0.00206
 608,0.01460387,-0.00635660,0.00515761,0.00143410,0.00020986,-0.0003399
 0,-0.00173787,0.00310916,-0.00125345,0.08014823,0.10559115,0.00001327,
 0.00002132,0.00005474,0.00000077,0.00029088,-0.00026490,0.00050362,-0.
 00025305,-0.00041829,0.00031606,-0.00029664,0.00013336,-0.00000796,0.0
 0000827,0.00002342,-0.00032954,-0.00002644,0.00001772,-0.00018363,0.00
 002490,-0.00001771,-0.00007090,-0.00277632,0.00002797,0.00026209,-0.00
 003034,-0.00004238,-0.00004399,0.00000456,0.00000569,-0.00004948,-0.00
 007993,0.00004635,-0.00001370,-0.00002601,-0.00003938,-0.00002995,-0.0
 0000363,-0.00000685,-0.00000748,0.00005129,0.00008567,-0.00001663,0.00
 000666,0.00001341,0.00001459,-0.00001078,0.00000992,-0.00000195,0.0000
 2630,-0.00004600,-0.00039658,0.00005621,-0.00005808,0.00003264,-0.0000
 3874,-0.00008160,0.00106686,0.00416096,0.00227847,-0.01658866,0.003836
 97,0.02140707,-0.04318161,-0.00076224,-0.07980137,0.00608596,0.0008566
 9,0.01522201,-0.00136669,0.00325472,0.00896972,-0.00005980,-0.00060096
 ,-0.00244909,0.00063172,-0.00082138,-0.00143776,0.05269262,-0.00637722
 ,0.03792686,0.00004705,-0.00001517,-0.00149363,0.00254959,-0.01600325,
 0.00428920,-0.00548935,-0.00694218,-0.00112656,-0.05269892,0.01397461,
 0.01797752,0.00012915,0.00192679,0.00043856,0.00139900,0.00501753,-0.0
 0053725,0.00111733,0.00275231,0.00094921,0.02578094,0.01780751,-0.0044
 0935,-0.00030647,-0.00034694,0.00072442,0.00010642,0.00004098,0.000150
 33,-0.00194170,0.00262219,-0.00131130,-0.00003811,-0.00047815,-0.00028
 337,0.00018315,0.00012748,-0.00022713,0.00013758,0.00107812,0.00015703
 ,0.00002956,-0.00001353,0.00007302,0.00000414,0.00030658,-0.00006795,0
 .00351561,-0.00029374,0.00243203,0.01667846,0.00688904,-0.01042671,-0.
 00050624,-0.00071640,0.00003818,-0.00924289,-0.00880491,-0.00063274,0.
 00724835,-0.00563472,0.00226856,0.00699400,0.02574601,-0.00620028,-0.0
 6403506,-0.07719980,0.00831285,-0.16633198,-0.14561759,0.02796961,-0.0
 0013539,0.00040005,-0.00015996,0.00064749,-0.00106325,0.00056468,-0.00
 968756,-0.00776900,0.00072835,0.24384586,-0.00004917,-0.00008500,-0.00
 169941,0.00100704,-0.00853087,0.00378030,-0.01349679,-0.00550648,-0.00
 264995,-0.02066113,0.01771513,0.00457352,-0.00002541,0.00150480,0.0005
 4497,0.00328204,0.00226467,-0.00096894,0.00295824,0.00061876,0.0017912
 7,-0.00018737,-0.08351379,0.02173743,-0.00209448,-0.00028370,0.0006829
 2,0.00037456,0.00008380,0.00012603,-0.00054970,0.00251724,-0.00035853,
 0.00002877,-0.00020615,-0.00037952,0.00042765,0.00012916,-0.00005031,0
 .00041865,0.00059708,0.00004190,0.00016552,-0.00009477,-0.00002920,-0.
 00006591,0.00022059,-0.00000607,0.00211719,-0.00075208,0.00112232,0.03
 220264,-0.01606509,-0.01208058,-0.00069453,-0.00026130,0.00030508,0.00
 723936,-0.00216023,0.00277984,0.00133415,-0.00486096,0.00071676,0.0092
 5887,0.01862724,-0.00071795,-0.05210562,-0.02198835,0.00296043,-0.1540
 1285,-0.39758314,0.05582447,-0.00124434,-0.00332106,0.00039894,-0.0000
 5722,-0.00026527,-0.00002844,-0.00777958,-0.00398259,-0.00049605,0.192
 20944,0.50518236,-0.00002616,-0.00015394,0.00077388,-0.00002117,0.0085
 4071,-0.00420561,0.00261418,-0.00155911,-0.00437565,0.02884516,-0.0075
 5008,-0.00107142,-0.00029318,-0.00066028,0.00025015,-0.00196955,0.0017
 4062,0.00166441,0.00023591,0.00099440,0.00021301,-0.00016447,0.0258830
 8,0.01294919,0.00168838,0.00031158,-0.00059054,-0.00018419,0.00000904,
 -0.00000240,0.00092721,-0.00151078,0.00124881,-0.00017716,0.00000545,0
 .00008751,-0.00017176,-0.00017296,0.00011187,-0.00012138,-0.00023335,0
 .00020751,-0.00008221,0.00008951,0.00004742,0.00003201,-0.00017125,0.0
 0002695,-0.00182753,0.00016315,-0.00179622,-0.01734478,-0.00280028,-0.
 00312989,0.00022289,0.00009785,-0.00030103,-0.00355846,0.00049875,0.00
 286638,0.00066124,0.00050387,-0.00191538,-0.00289724,0.00034386,0.0108
 4517,0.00557015,0.00216817,0.01460768,0.02675666,0.05035079,-0.0853330
 9,0.00024045,0.00110105,0.00011639,0.00012110,-0.00007113,-0.00060191,
 0.00112122,0.00000251,-0.00155898,-0.04019731,-0.07792122,0.05886580\\
 0.00000139,-0.00001805,-0.00000074,-0.00001185,0.00001493,-0.00000160,
 0.00001912,0.00000323,0.00000350,0.00000066,0.00000071,0.00000046,0.00
 000079,-0.00000617,-0.00000014,-0.00001220,-0.00001142,-0.00000328,-0.
 00000312,0.00000013,-0.00000197,-0.00000171,-0.00000216,0.00000068,0.0
 0000394,0.00001584,0.00000482,0.00000022,0.00000607,0.00000274,0.00000
 953,0.00000779,0.00000537,-0.00001348,-0.00000630,-0.00000698,0.000000
 15,-0.00000571,-0.00000215,0.00000190,0.00000488,0.00000590,-0.0000003
 5,0.00000326,0.00000012,-0.00000064,-0.00000332,-0.00000315,-0.0000050
 5,-0.00000326,-0.00000131,0.00000532,-0.00000075,-0.00000281,0.0000067
 3,0.00000259,0.00000015,-0.00000019,-0.00000358,0.00000164,-0.00000364
 ,0.00000709,-0.00000216,0.00001258,-0.00000007,-0.00000082,0.00000081,
 0.00000765,0.00000166,-0.00000431,-0.00002211,0.00000349,0.00000050,0.
 00000060,-0.00000181,-0.00000009,-0.00000163,-0.00000205,-0.00000621,-
 0.00000219,-0.00000074,-0.00000081,0.00001193,0.00000120\\\@
 The archive entry for this job was punched.


 The mind is not a vessel to be filled but a fire to be kindled.
                                  -- Plutarch
 Job cpu time:       0 days  9 hours 31 minutes 41.0 seconds.
 Elapsed time:       0 days  0 hours 14 minutes 24.8 seconds.
 File lengths (MBytes):  RWF=    600 Int=      0 D2E=      0 Chk=     20 Scr=      1
 Normal termination of Gaussian 16 at Thu Oct 24 09:32:55 2024.
