 Entering Gaussian System, Link 0=g16
 Input=UridineNsllaPBE0aVDZ.gjf
 Output=UridineNsllaPBE0aVDZ.log
 Initial command:
 /sw/contrib/chem-src/g16/c01/g16/l1.exe "/scr/Gau-16431.inp" -scrdir="/scr/"
 Entering Link 1 = /sw/contrib/chem-src/g16/c01/g16/l1.exe PID=     16432.
  
 Copyright (c) 1988-2019, Gaussian, Inc.  All Rights Reserved.
  
 This is part of the Gaussian(R) 16 program.  It is based on
 the Gaussian(R) 09 system (copyright 2009, Gaussian, Inc.),
 the Gaussian(R) 03 system (copyright 2003, Gaussian, Inc.),
 the Gaussian(R) 98 system (copyright 1998, Gaussian, Inc.),
 the Gaussian(R) 94 system (copyright 1995, Gaussian, Inc.),
 the Gaussian 92(TM) system (copyright 1992, Gaussian, Inc.),
 the Gaussian 90(TM) system (copyright 1990, Gaussian, Inc.),
 the Gaussian 88(TM) system (copyright 1988, Gaussian, Inc.),
 the Gaussian 86(TM) system (copyright 1986, Carnegie Mellon
 University), and the Gaussian 82(TM) system (copyright 1983,
 Carnegie Mellon University). Gaussian is a federally registered
 trademark of Gaussian, Inc.
  
 This software contains proprietary and confidential information,
 including trade secrets, belonging to Gaussian, Inc.
  
 This software is provided under written license and may be
 used, copied, transmitted, or stored only in accord with that
 written license.
  
 The following legend is applicable only to US Government
 contracts under FAR:
  
                    RESTRICTED RIGHTS LEGEND
  
 Use, reproduction and disclosure by the US Government is
 subject to restrictions as set forth in subparagraphs (a)
 and (c) of the Commercial Computer Software - Restricted
 Rights clause in FAR 52.227-19.
  
 Gaussian, Inc.
 340 Quinnipiac St., Bldg. 40, Wallingford CT 06492
  
  
 ---------------------------------------------------------------
 Warning -- This program may not be used in any manner that
 competes with the business of Gaussian, Inc. or will provide
 assistance to any competitor of Gaussian, Inc.  The licensee
 of this program is prohibited from giving any competitor of
 Gaussian, Inc. access to this program.  By using this program,
 the user acknowledges that Gaussian, Inc. is engaged in the
 business of creating and licensing software in the field of
 computational chemistry and represents and warrants to the
 licensee that it is not a competitor of Gaussian, Inc. and that
 it will not use this program in any manner prohibited above.
 ---------------------------------------------------------------
  

 Cite this work as:
 Gaussian 16, Revision C.01,
 M. J. Frisch, G. W. Trucks, H. B. Schlegel, G. E. Scuseria, 
 M. A. Robb, J. R. Cheeseman, G. Scalmani, V. Barone, 
 G. A. Petersson, H. Nakatsuji, X. Li, M. Caricato, A. V. Marenich, 
 J. Bloino, B. G. Janesko, R. Gomperts, B. Mennucci, H. P. Hratchian, 
 J. V. Ortiz, A. F. Izmaylov, J. L. Sonnenberg, D. Williams-Young, 
 F. Ding, F. Lipparini, F. Egidi, J. Goings, B. Peng, A. Petrone, 
 T. Henderson, D. Ranasinghe, V. G. Zakrzewski, J. Gao, N. Rega, 
 G. Zheng, W. Liang, M. Hada, M. Ehara, K. Toyota, R. Fukuda, 
 J. Hasegawa, M. Ishida, T. Nakajima, Y. Honda, O. Kitao, H. Nakai, 
 T. Vreven, K. Throssell, J. A. Montgomery, Jr., J. E. Peralta, 
 F. Ogliaro, M. J. Bearpark, J. J. Heyd, E. N. Brothers, K. N. Kudin, 
 V. N. Staroverov, T. A. Keith, R. Kobayashi, J. Normand, 
 K. Raghavachari, A. P. Rendell, J. C. Burant, S. S. Iyengar, 
 J. Tomasi, M. Cossi, J. M. Millam, M. Klene, C. Adamo, R. Cammi, 
 J. W. Ochterski, R. L. Martin, K. Morokuma, O. Farkas, 
 J. B. Foresman, and D. J. Fox, Gaussian, Inc., Wallingford CT, 2019.
 
 ******************************************
 Gaussian 16:  EM64L-G16RevC.01  3-Jul-2019
                17-Oct-2024 
 ******************************************
 %nprocshared=40
 Will use up to   40 processors via shared memory.
 %mem=50gb
 ------------------------------------------------------
 # PBE1PBE/aug-cc-pVDZ opt freq EmpiricalDispersion=GD3
 ------------------------------------------------------
 1/18=20,19=15,26=3,38=1/1,3;
 2/9=110,12=2,17=6,18=5,40=1/2;
 3/5=16,7=10,11=2,25=1,30=1,71=1,74=-13,124=31/1,2,3;
 4//1;
 5/5=2,38=5/2;
 6/7=2,8=2,9=2,10=2,28=1/1;
 7//1,2,3,16;
 1/18=20,19=15,26=3/3(2);
 2/9=110/2;
 99//99;
 2/9=110/2;
 3/5=16,7=10,11=2,25=1,30=1,71=1,74=-13,124=31/1,2,3;
 4/5=5,16=3,69=1/1;
 5/5=2,38=5/2;
 7//1,2,3,16;
 1/18=20,19=15,26=3/3(-5);
 2/9=110/2;
 6/7=2,8=2,9=2,10=2,19=2,28=1/1;
 99/9=1/99;
 ----
 blah
 ----
 Symbolic Z-matrix:
 Charge =  0 Multiplicity = 1
 C                    -3.1603   -1.81163   0.77854 
 C                    -2.32845  -1.49473  -0.45035 
 C                    -1.9548   -0.01627  -0.22733 
 O                    -3.15113  -1.66688  -1.62249 
 H                    -1.47556  -2.17205  -0.55725 
 O                    -2.89503   0.54618   0.70838 
 H                    -2.07093   0.54546  -1.16268 
 N                    -0.5789    0.15856   0.22898 
 C                    -3.85156  -0.48043   1.04166 
 H                    -2.50357  -2.09585   1.60772 
 O                    -4.08567  -2.86708   0.53445 
 C                    -4.32942  -0.31502   2.48439 
 H                    -4.71594  -0.35487   0.37705 
 O                    -3.25257  -0.47445   3.40997 
 H                    -5.09929  -1.05573   2.72225 
 H                    -4.73845   0.68986   2.63048 
 H                    -4.26986  -2.82952  -0.42831 
 H                    -2.57545  -1.47196  -2.38852 
 H                    -3.63357  -0.36648   4.29917 
 C                    -0.2714    0.44078   1.54507 
 C                     0.98887   0.59098   1.95844 
 C                     2.07972   0.45084   0.98228 
 N                     1.69862   0.16301  -0.29592 
 C                     0.41197  -0.00819  -0.73053 
 H                    -1.09436   0.54317   2.24749 
 H                     1.25298   0.81463   2.98313 
 H                     2.43202   0.05301  -0.9783 
 O                     3.25106   0.58052   1.31592 
 O                     0.17693  -0.31409  -1.89871 
 

 GradGradGradGradGradGradGradGradGradGradGradGradGradGradGradGradGradGrad
 Berny optimization.
 Initialization pass.
                           ----------------------------
                           !    Initial Parameters    !
                           ! (Angstroms and Degrees)  !
 --------------------------                            --------------------------
 ! Name  Definition              Value          Derivative Info.                !
 --------------------------------------------------------------------------------
 ! R1    R(1,2)                  1.5174         estimate D2E/DX2                !
 ! R2    R(1,9)                  1.5229         estimate D2E/DX2                !
 ! R3    R(1,10)                 1.0953         estimate D2E/DX2                !
 ! R4    R(1,11)                 1.4247         estimate D2E/DX2                !
 ! R5    R(2,3)                  1.5412         estimate D2E/DX2                !
 ! R6    R(2,4)                  1.4423         estimate D2E/DX2                !
 ! R7    R(2,5)                  1.0944         estimate D2E/DX2                !
 ! R8    R(3,6)                  1.4408         estimate D2E/DX2                !
 ! R9    R(3,7)                  1.0972         estimate D2E/DX2                !
 ! R10   R(3,8)                  1.4601         estimate D2E/DX2                !
 ! R11   R(4,18)                 0.9779         estimate D2E/DX2                !
 ! R12   R(6,9)                  1.4422         estimate D2E/DX2                !
 ! R13   R(8,20)                 1.3807         estimate D2E/DX2                !
 ! R14   R(8,24)                 1.3894         estimate D2E/DX2                !
 ! R15   R(9,12)                 1.5288         estimate D2E/DX2                !
 ! R16   R(9,13)                 1.0976         estimate D2E/DX2                !
 ! R17   R(11,17)                0.9809         estimate D2E/DX2                !
 ! R18   R(12,14)                1.4289         estimate D2E/DX2                !
 ! R19   R(12,15)                1.0945         estimate D2E/DX2                !
 ! R20   R(12,16)                1.0947         estimate D2E/DX2                !
 ! R21   R(14,19)                0.9734         estimate D2E/DX2                !
 ! R22   R(20,21)                1.3348         estimate D2E/DX2                !
 ! R23   R(20,25)                1.0868         estimate D2E/DX2                !
 ! R24   R(21,22)                1.4705         estimate D2E/DX2                !
 ! R25   R(21,26)                1.0816         estimate D2E/DX2                !
 ! R26   R(22,23)                1.3645         estimate D2E/DX2                !
 ! R27   R(22,28)                1.2248         estimate D2E/DX2                !
 ! R28   R(23,24)                1.3688         estimate D2E/DX2                !
 ! R29   R(23,27)                1.0078         estimate D2E/DX2                !
 ! R30   R(24,29)                1.2302         estimate D2E/DX2                !
 ! A1    A(2,1,9)              101.9006         estimate D2E/DX2                !
 ! A2    A(2,1,10)             109.7912         estimate D2E/DX2                !
 ! A3    A(2,1,11)             111.84           estimate D2E/DX2                !
 ! A4    A(9,1,10)             111.6051         estimate D2E/DX2                !
 ! A5    A(9,1,11)             112.4789         estimate D2E/DX2                !
 ! A6    A(10,1,11)            109.0811         estimate D2E/DX2                !
 ! A7    A(1,2,3)              102.4775         estimate D2E/DX2                !
 ! A8    A(1,2,4)              108.6949         estimate D2E/DX2                !
 ! A9    A(1,2,5)              112.1545         estimate D2E/DX2                !
 ! A10   A(3,2,4)              111.739          estimate D2E/DX2                !
 ! A11   A(3,2,5)              114.7667         estimate D2E/DX2                !
 ! A12   A(4,2,5)              106.9342         estimate D2E/DX2                !
 ! A13   A(2,3,6)              108.0745         estimate D2E/DX2                !
 ! A14   A(2,3,7)              110.0056         estimate D2E/DX2                !
 ! A15   A(2,3,8)              112.8642         estimate D2E/DX2                !
 ! A16   A(6,3,7)              106.5414         estimate D2E/DX2                !
 ! A17   A(6,3,8)              111.4218         estimate D2E/DX2                !
 ! A18   A(7,3,8)              107.749          estimate D2E/DX2                !
 ! A19   A(2,4,18)             106.0834         estimate D2E/DX2                !
 ! A20   A(3,6,9)              107.7589         estimate D2E/DX2                !
 ! A21   A(3,8,20)             122.1579         estimate D2E/DX2                !
 ! A22   A(3,8,24)             116.2226         estimate D2E/DX2                !
 ! A23   A(20,8,24)            121.6006         estimate D2E/DX2                !
 ! A24   A(1,9,6)              106.3348         estimate D2E/DX2                !
 ! A25   A(1,9,12)             113.5482         estimate D2E/DX2                !
 ! A26   A(1,9,13)             110.6626         estimate D2E/DX2                !
 ! A27   A(6,9,12)             110.3879         estimate D2E/DX2                !
 ! A28   A(6,9,13)             107.5156         estimate D2E/DX2                !
 ! A29   A(12,9,13)            108.2343         estimate D2E/DX2                !
 ! A30   A(1,11,17)            105.1736         estimate D2E/DX2                !
 ! A31   A(9,12,14)            111.3255         estimate D2E/DX2                !
 ! A32   A(9,12,15)            110.593          estimate D2E/DX2                !
 ! A33   A(9,12,16)            110.0019         estimate D2E/DX2                !
 ! A34   A(14,12,15)           108.289          estimate D2E/DX2                !
 ! A35   A(14,12,16)           107.3114         estimate D2E/DX2                !
 ! A36   A(15,12,16)           109.2317         estimate D2E/DX2                !
 ! A37   A(12,14,19)           106.5217         estimate D2E/DX2                !
 ! A38   A(8,20,21)            121.9028         estimate D2E/DX2                !
 ! A39   A(8,20,25)            117.8193         estimate D2E/DX2                !
 ! A40   A(21,20,25)           120.2775         estimate D2E/DX2                !
 ! A41   A(20,21,22)           118.9521         estimate D2E/DX2                !
 ! A42   A(20,21,26)           123.1772         estimate D2E/DX2                !
 ! A43   A(22,21,26)           117.8706         estimate D2E/DX2                !
 ! A44   A(21,22,23)           115.7695         estimate D2E/DX2                !
 ! A45   A(21,22,28)           121.2317         estimate D2E/DX2                !
 ! A46   A(23,22,28)           122.9976         estimate D2E/DX2                !
 ! A47   A(22,23,24)           125.8971         estimate D2E/DX2                !
 ! A48   A(22,23,27)           117.0041         estimate D2E/DX2                !
 ! A49   A(24,23,27)           117.092          estimate D2E/DX2                !
 ! A50   A(8,24,23)            115.8552         estimate D2E/DX2                !
 ! A51   A(8,24,29)            123.3239         estimate D2E/DX2                !
 ! A52   A(23,24,29)           120.8087         estimate D2E/DX2                !
 ! D1    D(9,1,2,3)             33.3495         estimate D2E/DX2                !
 ! D2    D(9,1,2,4)            -85.0323         estimate D2E/DX2                !
 ! D3    D(9,1,2,5)            156.9473         estimate D2E/DX2                !
 ! D4    D(10,1,2,3)           -85.0589         estimate D2E/DX2                !
 ! D5    D(10,1,2,4)           156.5593         estimate D2E/DX2                !
 ! D6    D(10,1,2,5)            38.5389         estimate D2E/DX2                !
 ! D7    D(11,1,2,3)           153.7086         estimate D2E/DX2                !
 ! D8    D(11,1,2,4)            35.3268         estimate D2E/DX2                !
 ! D9    D(11,1,2,5)           -82.6936         estimate D2E/DX2                !
 ! D10   D(2,1,9,6)            -36.2359         estimate D2E/DX2                !
 ! D11   D(2,1,9,12)          -157.8189         estimate D2E/DX2                !
 ! D12   D(2,1,9,13)            80.2331         estimate D2E/DX2                !
 ! D13   D(10,1,9,6)            80.8702         estimate D2E/DX2                !
 ! D14   D(10,1,9,12)          -40.7128         estimate D2E/DX2                !
 ! D15   D(10,1,9,13)         -162.6608         estimate D2E/DX2                !
 ! D16   D(11,1,9,6)          -156.1468         estimate D2E/DX2                !
 ! D17   D(11,1,9,12)           82.2702         estimate D2E/DX2                !
 ! D18   D(11,1,9,13)          -39.6777         estimate D2E/DX2                !
 ! D19   D(2,1,11,17)          -27.133          estimate D2E/DX2                !
 ! D20   D(9,1,11,17)           86.8374         estimate D2E/DX2                !
 ! D21   D(10,1,11,17)        -148.7754         estimate D2E/DX2                !
 ! D22   D(1,2,3,6)            -20.5395         estimate D2E/DX2                !
 ! D23   D(1,2,3,7)           -136.4864         estimate D2E/DX2                !
 ! D24   D(1,2,3,8)            103.1415         estimate D2E/DX2                !
 ! D25   D(4,2,3,6)             95.6698         estimate D2E/DX2                !
 ! D26   D(4,2,3,7)            -20.2772         estimate D2E/DX2                !
 ! D27   D(4,2,3,8)           -140.6493         estimate D2E/DX2                !
 ! D28   D(5,2,3,6)           -142.3722         estimate D2E/DX2                !
 ! D29   D(5,2,3,7)            101.6809         estimate D2E/DX2                !
 ! D30   D(5,2,3,8)            -18.6912         estimate D2E/DX2                !
 ! D31   D(1,2,4,18)          -178.8673         estimate D2E/DX2                !
 ! D32   D(3,2,4,18)            68.7693         estimate D2E/DX2                !
 ! D33   D(5,2,4,18)           -57.5899         estimate D2E/DX2                !
 ! D34   D(2,3,6,9)             -1.893          estimate D2E/DX2                !
 ! D35   D(7,3,6,9)            116.293          estimate D2E/DX2                !
 ! D36   D(8,3,6,9)           -126.4405         estimate D2E/DX2                !
 ! D37   D(2,3,8,20)          -103.4327         estimate D2E/DX2                !
 ! D38   D(2,3,8,24)            75.0066         estimate D2E/DX2                !
 ! D39   D(6,3,8,20)            18.3794         estimate D2E/DX2                !
 ! D40   D(6,3,8,24)          -163.1812         estimate D2E/DX2                !
 ! D41   D(7,3,8,20)           134.9117         estimate D2E/DX2                !
 ! D42   D(7,3,8,24)           -46.649          estimate D2E/DX2                !
 ! D43   D(3,6,9,1)             23.9158         estimate D2E/DX2                !
 ! D44   D(3,6,9,12)           147.494          estimate D2E/DX2                !
 ! D45   D(3,6,9,13)           -94.6443         estimate D2E/DX2                !
 ! D46   D(3,8,20,21)          179.5543         estimate D2E/DX2                !
 ! D47   D(3,8,20,25)           -0.6788         estimate D2E/DX2                !
 ! D48   D(24,8,20,21)           1.1981         estimate D2E/DX2                !
 ! D49   D(24,8,20,25)        -179.035          estimate D2E/DX2                !
 ! D50   D(3,8,24,23)          179.7318         estimate D2E/DX2                !
 ! D51   D(3,8,24,29)           -1.539          estimate D2E/DX2                !
 ! D52   D(20,8,24,23)          -1.8195         estimate D2E/DX2                !
 ! D53   D(20,8,24,29)         176.9097         estimate D2E/DX2                !
 ! D54   D(1,9,12,14)           56.366          estimate D2E/DX2                !
 ! D55   D(1,9,12,15)          -64.0688         estimate D2E/DX2                !
 ! D56   D(1,9,12,16)          175.1853         estimate D2E/DX2                !
 ! D57   D(6,9,12,14)          -62.927          estimate D2E/DX2                !
 ! D58   D(6,9,12,15)          176.6382         estimate D2E/DX2                !
 ! D59   D(6,9,12,16)           55.8923         estimate D2E/DX2                !
 ! D60   D(13,9,12,14)         179.6539         estimate D2E/DX2                !
 ! D61   D(13,9,12,15)          59.2191         estimate D2E/DX2                !
 ! D62   D(13,9,12,16)         -61.5268         estimate D2E/DX2                !
 ! D63   D(9,12,14,19)        -179.3626         estimate D2E/DX2                !
 ! D64   D(15,12,14,19)        -57.58           estimate D2E/DX2                !
 ! D65   D(16,12,14,19)         60.22           estimate D2E/DX2                !
 ! D66   D(8,20,21,22)          -0.0261         estimate D2E/DX2                !
 ! D67   D(8,20,21,26)         179.8381         estimate D2E/DX2                !
 ! D68   D(25,20,21,22)       -179.7873         estimate D2E/DX2                !
 ! D69   D(25,20,21,26)          0.0768         estimate D2E/DX2                !
 ! D70   D(20,21,22,23)         -0.4042         estimate D2E/DX2                !
 ! D71   D(20,21,22,28)        179.983          estimate D2E/DX2                !
 ! D72   D(26,21,22,23)        179.7244         estimate D2E/DX2                !
 ! D73   D(26,21,22,28)          0.1117         estimate D2E/DX2                !
 ! D74   D(21,22,23,24)         -0.3346         estimate D2E/DX2                !
 ! D75   D(21,22,23,27)       -179.3545         estimate D2E/DX2                !
 ! D76   D(28,22,23,24)        179.2706         estimate D2E/DX2                !
 ! D77   D(28,22,23,27)          0.2507         estimate D2E/DX2                !
 ! D78   D(22,23,24,8)           1.4163         estimate D2E/DX2                !
 ! D79   D(22,23,24,29)       -177.3474         estimate D2E/DX2                !
 ! D80   D(27,23,24,8)        -179.5646         estimate D2E/DX2                !
 ! D81   D(27,23,24,29)          1.6717         estimate D2E/DX2                !
 --------------------------------------------------------------------------------
 Trust Radius=3.00D-01 FncErr=1.00D-07 GrdErr=1.00D-06 EigMax=2.50D+02 EigMin=1.00D-04
 Number of steps in this run=    173 maximum allowed number of steps=    174.
 GradGradGradGradGradGradGradGradGradGradGradGradGradGradGradGradGradGrad

                          Input orientation:                          
 ---------------------------------------------------------------------
 Center     Atomic      Atomic             Coordinates (Angstroms)
 Number     Number       Type             X           Y           Z
 ---------------------------------------------------------------------
      1          6           0       -3.160299   -1.811625    0.778543
      2          6           0       -2.328447   -1.494733   -0.450348
      3          6           0       -1.954804   -0.016269   -0.227334
      4          8           0       -3.151133   -1.666884   -1.622487
      5          1           0       -1.475556   -2.172048   -0.557253
      6          8           0       -2.895030    0.546179    0.708379
      7          1           0       -2.070926    0.545462   -1.162683
      8          7           0       -0.578903    0.158558    0.228984
      9          6           0       -3.851561   -0.480434    1.041663
     10          1           0       -2.503572   -2.095848    1.607719
     11          8           0       -4.085665   -2.867078    0.534452
     12          6           0       -4.329416   -0.315015    2.484385
     13          1           0       -4.715944   -0.354871    0.377055
     14          8           0       -3.252566   -0.474455    3.409974
     15          1           0       -5.099291   -1.055728    2.722248
     16          1           0       -4.738450    0.689857    2.630477
     17          1           0       -4.269859   -2.829521   -0.428307
     18          1           0       -2.575452   -1.471962   -2.388516
     19          1           0       -3.633570   -0.366485    4.299174
     20          6           0       -0.271395    0.440776    1.545073
     21          6           0        0.988869    0.590983    1.958441
     22          6           0        2.079716    0.450838    0.982275
     23          7           0        1.698619    0.163009   -0.295925
     24          6           0        0.411972   -0.008190   -0.730527
     25          1           0       -1.094358    0.543174    2.247492
     26          1           0        1.252978    0.814634    2.983128
     27          1           0        2.432016    0.053014   -0.978298
     28          8           0        3.251061    0.580524    1.315917
     29          8           0        0.176934   -0.314092   -1.898708
 ---------------------------------------------------------------------
                    Distance matrix (angstroms):
                    1          2          3          4          5
     1  C    0.000000
     2  C    1.517423   0.000000
     3  C    2.385018   1.541169   0.000000
     4  O    2.405406   1.442344   2.470260   0.000000
     5  H    2.180050   1.094353   2.232915   2.048774   0.000000
     6  O    2.373716   2.414329   1.440809   3.224309   3.317452
     7  H    3.242059   2.176266   1.097225   2.504544   2.847081
     8  N    3.293515   2.501153   1.460100   3.657396   2.617992
     9  C    1.522874   2.361097   2.328839   2.999327   3.326183
    10  H    1.095265   2.151197   2.827228   3.322285   2.397859
    11  O    1.424733   2.437412   3.639781   2.639357   2.913342
    12  C    2.552759   3.742763   3.616830   4.481328   4.565595
    13  H    2.168723   2.772007   2.846723   2.858003   3.830820
    14  O    2.953128   4.098420   3.888975   5.172798   4.666742
    15  H    2.847641   4.235052   4.434897   4.800578   5.013258
    16  H    3.489646   4.480182   4.051467   5.114832   5.385035
    17  H    1.929695   2.356104   3.648871   2.007322   2.873505
    18  H    3.238469   1.953977   2.678611   0.977856   2.247981
    19  H    3.835005   5.053143   4.840473   6.081929   5.612662
    20  C    3.742545   3.458231   2.486801   4.771641   3.563233
    21  C    4.937640   4.599681   3.716393   5.921202   4.476209
    22  C    5.711217   5.026883   4.237770   6.215409   4.678636
    23  N    5.353760   4.357662   3.658462   5.350548   3.949198
    24  C    4.276774   3.130209   2.419689   4.030208   2.876642
    25  H    3.459914   3.599220   2.679199   4.908301   3.922288
    26  H    5.588779   5.472526   4.613819   6.838554   5.375822
    27  H    6.151207   5.033513   4.451172   5.877463   4.516336
    28  O    6.864159   6.209451   5.462491   7.394129   5.781550
    29  O    4.532924   3.125475   2.725160   3.603106   2.825283
                    6          7          8          9         10
     6  O    0.000000
     7  H    2.044510   0.000000
     8  N    2.396771   2.076671   0.000000
     9  C    1.442208   3.013680   3.432062   0.000000
    10  H    2.818219   3.852120   3.269191   2.178774   0.000000
    11  O    3.619141   4.311017   4.641677   2.451150   2.061484
    12  C    2.439942   4.375192   4.401983   1.528776   2.696965
    13  H    2.058493   3.190221   4.171408   1.097556   3.072479
    14  O    2.910007   4.831738   4.203317   2.442892   2.537328
    15  H    3.388294   5.179526   5.303279   2.170750   3.010280
    16  H    2.667077   4.639461   4.832316   2.163442   3.714952
    17  H    3.818057   4.094524   4.794143   2.802498   2.793465
    18  H    3.710227   2.413962   3.673706   3.791796   4.045281
    19  H    3.777857   5.753728   5.115966   3.266784   3.392864
    20  C    2.755835   3.252877   1.380687   3.730903   3.379497
    21  C    4.080360   4.371022   2.374010   5.041645   4.420318
    22  C    4.983192   4.673075   2.778692   6.004235   5.280465
    23  N    4.717738   3.886773   2.337232   5.745229   5.136604
    24  C    3.648841   2.580324   1.389352   4.641270   4.280900
    25  H    2.368818   3.547250   2.118490   3.178673   3.059351
    26  H    4.738409   5.320577   3.372171   5.612736   4.947153
    27  H    5.609412   4.533540   3.245659   6.621793   5.972028
    28  O    6.176141   5.870965   4.003511   7.186660   6.353260
    29  O    4.119943   2.516633   2.306894   4.990213   4.759705
                   11         12         13         14         15
    11  O    0.000000
    12  C    3.220975   0.000000
    13  H    2.594843   2.142857   0.000000
    14  O    3.832405   1.428895   3.369625   0.000000
    15  H    3.015771   1.094505   2.477516   2.054565   0.000000
    16  H    4.179861   1.094723   2.483923   2.042324   1.784852
    17  H    0.980939   3.848385   2.640359   4.616668   3.709487
    18  H    3.573630   5.306608   3.671237   5.922499   5.715148
    19  H    4.542080   1.944302   4.068745   0.973396   2.260551
    20  C    5.148972   4.233328   4.663832   3.633577   5.189783
    21  C    6.303716   5.420481   5.995024   4.607807   6.353012
    22  C    7.015771   6.627205   6.869967   5.931536   7.538925
    23  N    6.582469   6.655512   6.470527   6.217257   7.536993
    24  C    5.477423   5.736773   5.257609   5.548873   6.587337
    25  H    4.848942   3.355325   4.173835   2.654203   4.338360
    26  H    6.931965   5.717340   6.617204   4.705729   6.627038
    27  H    7.300378   7.605431   7.286747   7.200668   8.464274
    28  O    8.143967   7.722107   8.076484   6.913409   8.624585
    29  O    5.532428   6.286390   5.396389   6.322127   7.052787
                   16         17         18         19         20
    16  H    0.000000
    17  H    4.686337   0.000000
    18  H    5.877271   2.925132   0.000000
    19  H    2.263000   5.368472   6.860532   0.000000
    20  C    4.603773   5.529628   4.943720   4.420516   0.000000
    21  C    5.767460   6.711977   5.988003   5.269034   1.334804
    22  C    7.018624   7.284751   6.060527   6.656686   2.417554
    23  N    7.090645   6.677985   5.031874   7.058862   2.710606
    24  C    6.189545   5.474559   3.717024   6.464726   2.418040
    25  H    3.667097   5.349652   5.267541   3.388875   1.086806
    26  H    6.003095   7.444426   6.981402   5.196669   2.128729
    27  H    8.052602   7.316189   5.421163   8.051026   3.718359
    28  O    8.097673   8.440080   7.203040   7.562724   3.532667
    29  O    6.758878   5.316336   3.025922   7.275743   3.553935
                   21         22         23         24         25
    21  C    0.000000
    22  C    1.470539   0.000000
    23  N    2.401889   1.364506   0.000000
    24  C    2.814670   2.434290   1.368812   0.000000
    25  H    2.103729   3.418194   3.796606   3.382548   0.000000
    26  H    1.081553   2.195280   3.372743   3.895582   2.474842
    27  H    3.316100   2.031312   1.007771   2.036102   4.804300
    28  O    2.351692   1.224820   2.276494   3.548935   4.444310
    29  O    4.044256   3.536349   2.260988   1.230231   4.420641
                   26         27         28         29
    26  H    0.000000
    27  H    4.202748   0.000000
    28  O    2.612802   2.492493   0.000000
    29  O    5.124863   2.463192   4.537004   0.000000
 Stoichiometry    C9H12N2O6
 Framework group  C1[X(C9H12N2O6)]
 Deg. of freedom    81
 Full point group                 C1      NOp   1
 Largest Abelian subgroup         C1      NOp   1
 Largest concise Abelian subgroup C1      NOp   1
                         Standard orientation:                         
 ---------------------------------------------------------------------
 Center     Atomic      Atomic             Coordinates (Angstroms)
 Number     Number       Type             X           Y           Z
 ---------------------------------------------------------------------
      1          6           0       -2.115377   -0.254965    0.794558
      2          6           0       -1.111574   -1.320073    0.393941
      3          6           0       -0.370421   -0.653795   -0.781631
      4          8           0       -1.830206   -2.497906   -0.026337
      5          1           0       -0.471083   -1.618676    1.229533
      6          8           0       -1.207675    0.398384   -1.299180
      7          1           0       -0.235140   -1.375125   -1.597282
      8          7           0        0.948681   -0.150974   -0.408759
      9          6           0       -2.437221    0.393122   -0.545421
     10          1           0       -1.646925    0.455538    1.484011
     11          8           0       -3.266113   -0.818634    1.417415
     12          6           0       -2.991131    1.812495   -0.420037
     13          1           0       -3.164067   -0.211152   -1.103253
     14          8           0       -2.096074    2.657368    0.305774
     15          1           0       -3.954268    1.805348    0.099826
     16          1           0       -3.121026    2.252905   -1.413811
     17          1           0       -3.337090   -1.726278    1.052194
     18          1           0       -1.150540   -3.162014   -0.257027
     19          1           0       -2.518543    3.533067    0.352363
     20          6           0        1.190539    1.191855   -0.197546
     21          6           0        2.396508    1.645017    0.151719
     22          6           0        3.497715    0.684417    0.316276
     23          7           0        3.180191   -0.624830    0.099650
     24          6           0        1.945319   -1.104890   -0.244269
     25          1           0        0.362200    1.883132   -0.328452
     26          1           0        2.609507    2.691985    0.319785
     27          1           0        3.918795   -1.300298    0.217161
     28          8           0        4.620856    1.054425    0.635388
     29          8           0        1.751701   -2.313249   -0.370161
 ---------------------------------------------------------------------
 Rotational constants (GHZ):           0.7991961           0.3204353           0.2535119
 Standard basis: Aug-CC-pVDZ (5D, 7F)
 There are   533 symmetry adapted cartesian basis functions of A   symmetry.
 There are   499 symmetry adapted basis functions of A   symmetry.
   499 basis functions,   863 primitive gaussians,   533 cartesian basis functions
    64 alpha electrons       64 beta electrons
       nuclear repulsion energy      1317.6384545661 Hartrees.
 NAtoms=   29 NActive=   29 NUniq=   29 SFac= 1.00D+00 NAtFMM=   60 NAOKFM=F Big=F
 Integral buffers will be    131072 words long.
 Raffenetti 2 integral format.
 Two-electron integral symmetry is turned on.
 Nuclear repulsion after empirical dispersion term =     1317.6185302183 Hartrees.
 One-electron integrals computed using PRISM.
 NBasis=   499 RedAO= T EigKep=  3.12D-06  NBF=   499
 NBsUse=   499 1.00D-06 EigRej= -1.00D+00 NBFU=   499
 ExpMin= 2.97D-02 ExpMax= 1.17D+04 ExpMxC= 4.01D+02 IAcc=3 IRadAn=         5 AccDes= 0.00D+00
 Harris functional with IExCor= 1009 and IRadAn=       5 diagonalized for initial guess.
 HarFok:  IExCor= 1009 AccDes= 0.00D+00 IRadAn=         5 IDoV= 1 UseB2=F ITyADJ=14
 ICtDFT=  3500011 ScaDFX=  1.000000  1.000000  1.000000  1.000000
 FoFCou: FMM=F IPFlag=           0 FMFlag=      100000 FMFlg1=           0
         NFxFlg=           0 DoJE=T BraDBF=F KetDBF=T FulRan=T
         wScrn=  0.000000 ICntrl=       500 IOpCl=  0 I1Cent=   200000004 NGrid=           0
         NMat0=    1 NMatS0=      1 NMatT0=    0 NMatD0=    1 NMtDS0=    0 NMtDT0=    0
 Petite list used in FoFCou.
 Requested convergence on RMS density matrix=1.00D-08 within 128 cycles.
 Requested convergence on MAX density matrix=1.00D-06.
 Requested convergence on             energy=1.00D-06.
 No special actions if energy rises.
 SCF Done:  E(RPBE1PBE) =  -910.208617001     A.U. after   14 cycles
            NFock= 14  Conv=0.50D-08     -V/T= 2.0056

 **********************************************************************

            Population analysis using the SCF Density.

 **********************************************************************

 Orbital symmetries:
       Occupied  (A) (A) (A) (A) (A) (A) (A) (A) (A) (A) (A) (A)
                 (A) (A) (A) (A) (A) (A) (A) (A) (A) (A) (A) (A)
                 (A) (A) (A) (A) (A) (A) (A) (A) (A) (A) (A) (A)
                 (A) (A) (A) (A) (A) (A) (A) (A) (A) (A) (A) (A)
                 (A) (A) (A) (A) (A) (A) (A) (A) (A) (A) (A) (A)
                 (A) (A) (A) (A)
       Virtual   (A) (A) (A) (A) (A) (A) (A) (A) (A) (A) (A) (A)
                 (A) (A) (A) (A) (A) (A) (A) (A) (A) (A) (A) (A)
                 (A) (A) (A) (A) (A) (A) (A) (A) (A) (A) (A) (A)
                 (A) (A) (A) (A) (A) (A) (A) (A) (A) (A) (A) (A)
                 (A) (A) (A) (A) (A) (A) (A) (A) (A) (A) (A) (A)
                 (A) (A) (A) (A) (A) (A) (A) (A) (A) (A) (A) (A)
                 (A) (A) (A) (A) (A) (A) (A) (A) (A) (A) (A) (A)
                 (A) (A) (A) (A) (A) (A) (A) (A) (A) (A) (A) (A)
                 (A) (A) (A) (A) (A) (A) (A) (A) (A) (A) (A) (A)
                 (A) (A) (A) (A) (A) (A) (A) (A) (A) (A) (A) (A)
                 (A) (A) (A) (A) (A) (A) (A) (A) (A) (A) (A) (A)
                 (A) (A) (A) (A) (A) (A) (A) (A) (A) (A) (A) (A)
                 (A) (A) (A) (A) (A) (A) (A) (A) (A) (A) (A) (A)
                 (A) (A) (A) (A) (A) (A) (A) (A) (A) (A) (A) (A)
                 (A) (A) (A) (A) (A) (A) (A) (A) (A) (A) (A) (A)
                 (A) (A) (A) (A) (A) (A) (A) (A) (A) (A) (A) (A)
                 (A) (A) (A) (A) (A) (A) (A) (A) (A) (A) (A) (A)
                 (A) (A) (A) (A) (A) (A) (A) (A) (A) (A) (A) (A)
                 (A) (A) (A) (A) (A) (A) (A) (A) (A) (A) (A) (A)
                 (A) (A) (A) (A) (A) (A) (A) (A) (A) (A) (A) (A)
                 (A) (A) (A) (A) (A) (A) (A) (A) (A) (A) (A) (A)
                 (A) (A) (A) (A) (A) (A) (A) (A) (A) (A) (A) (A)
                 (A) (A) (A) (A) (A) (A) (A) (A) (A) (A) (A) (A)
                 (A) (A) (A) (A) (A) (A) (A) (A) (A) (A) (A) (A)
                 (A) (A) (A) (A) (A) (A) (A) (A) (A) (A) (A) (A)
                 (A) (A) (A) (A) (A) (A) (A) (A) (A) (A) (A) (A)
                 (A) (A) (A) (A) (A) (A) (A) (A) (A) (A) (A) (A)
                 (A) (A) (A) (A) (A) (A) (A) (A) (A) (A) (A) (A)
                 (A) (A) (A) (A) (A) (A) (A) (A) (A) (A) (A) (A)
                 (A) (A) (A) (A) (A) (A) (A) (A) (A) (A) (A) (A)
                 (A) (A) (A) (A) (A) (A) (A) (A) (A) (A) (A) (A)
                 (A) (A) (A) (A) (A) (A) (A) (A) (A) (A) (A) (A)
                 (A) (A) (A) (A) (A) (A) (A) (A) (A) (A) (A) (A)
                 (A) (A) (A) (A) (A) (A) (A) (A) (A) (A) (A) (A)
                 (A) (A) (A) (A) (A) (A) (A) (A) (A) (A) (A) (A)
                 (A) (A) (A) (A) (A) (A) (A) (A) (A) (A) (A) (A)
                 (A) (A) (A)
 The electronic state is 1-A.
 Alpha  occ. eigenvalues --  -19.26866 -19.26427 -19.24880 -19.24050 -19.22238
 Alpha  occ. eigenvalues --  -19.20059 -14.48495 -14.46656 -10.39973 -10.35457
 Alpha  occ. eigenvalues --  -10.35279 -10.31513 -10.30854 -10.30736 -10.30500
 Alpha  occ. eigenvalues --  -10.29956 -10.25140  -1.13309  -1.11498  -1.08817
 Alpha  occ. eigenvalues --   -1.08075  -1.07327  -1.05956  -1.02247  -0.98104
 Alpha  occ. eigenvalues --   -0.84310  -0.82400  -0.80110  -0.73138  -0.72103
 Alpha  occ. eigenvalues --   -0.68438  -0.65508  -0.63446  -0.60797  -0.58844
 Alpha  occ. eigenvalues --   -0.58004  -0.56289  -0.55043  -0.54358  -0.51690
 Alpha  occ. eigenvalues --   -0.50830  -0.49559  -0.48706  -0.48159  -0.47759
 Alpha  occ. eigenvalues --   -0.46208  -0.44906  -0.44564  -0.43452  -0.42654
 Alpha  occ. eigenvalues --   -0.42427  -0.40779  -0.40117  -0.39092  -0.37828
 Alpha  occ. eigenvalues --   -0.35932  -0.33008  -0.32681  -0.31690  -0.31319
 Alpha  occ. eigenvalues --   -0.31031  -0.29844  -0.28166  -0.26334
 Alpha virt. eigenvalues --   -0.04127  -0.01664  -0.00943  -0.00590   0.00033
 Alpha virt. eigenvalues --    0.00493   0.01656   0.02101   0.02338   0.02855
 Alpha virt. eigenvalues --    0.03806   0.04057   0.04801   0.05378   0.05937
 Alpha virt. eigenvalues --    0.06085   0.06320   0.06957   0.07534   0.07953
 Alpha virt. eigenvalues --    0.08274   0.08576   0.08992   0.09337   0.09577
 Alpha virt. eigenvalues --    0.09745   0.10180   0.10611   0.10883   0.11433
 Alpha virt. eigenvalues --    0.11573   0.11790   0.11920   0.12205   0.12505
 Alpha virt. eigenvalues --    0.12689   0.13108   0.13509   0.13588   0.13750
 Alpha virt. eigenvalues --    0.14256   0.14816   0.14839   0.15788   0.16252
 Alpha virt. eigenvalues --    0.16460   0.16672   0.17040   0.17391   0.17828
 Alpha virt. eigenvalues --    0.18464   0.19042   0.19264   0.19489   0.20015
 Alpha virt. eigenvalues --    0.20728   0.21203   0.21303   0.21740   0.22077
 Alpha virt. eigenvalues --    0.22305   0.22607   0.22920   0.23072   0.23229
 Alpha virt. eigenvalues --    0.23691   0.24608   0.24828   0.24851   0.25386
 Alpha virt. eigenvalues --    0.25627   0.26104   0.26400   0.26957   0.27300
 Alpha virt. eigenvalues --    0.27690   0.27719   0.27962   0.28140   0.28465
 Alpha virt. eigenvalues --    0.28729   0.29273   0.29481   0.29775   0.30117
 Alpha virt. eigenvalues --    0.30405   0.30787   0.31050   0.31946   0.32482
 Alpha virt. eigenvalues --    0.32820   0.33140   0.33289   0.33836   0.34619
 Alpha virt. eigenvalues --    0.34791   0.34900   0.35186   0.36034   0.36237
 Alpha virt. eigenvalues --    0.36612   0.36904   0.37538   0.37892   0.38189
 Alpha virt. eigenvalues --    0.38785   0.39340   0.39833   0.40296   0.40664
 Alpha virt. eigenvalues --    0.41401   0.42343   0.42646   0.42939   0.43241
 Alpha virt. eigenvalues --    0.44354   0.44573   0.44796   0.45212   0.46042
 Alpha virt. eigenvalues --    0.46187   0.46882   0.47523   0.47836   0.48111
 Alpha virt. eigenvalues --    0.48633   0.48912   0.50106   0.50432   0.51231
 Alpha virt. eigenvalues --    0.51867   0.52273   0.52866   0.53100   0.53479
 Alpha virt. eigenvalues --    0.54186   0.54753   0.55058   0.55540   0.55917
 Alpha virt. eigenvalues --    0.56237   0.57704   0.58189   0.58428   0.59041
 Alpha virt. eigenvalues --    0.59198   0.59883   0.60709   0.61475   0.61886
 Alpha virt. eigenvalues --    0.62676   0.62990   0.63139   0.63212   0.64049
 Alpha virt. eigenvalues --    0.65032   0.65701   0.66157   0.66385   0.66750
 Alpha virt. eigenvalues --    0.67231   0.67804   0.68363   0.68707   0.69054
 Alpha virt. eigenvalues --    0.69485   0.69726   0.70506   0.70970   0.71662
 Alpha virt. eigenvalues --    0.71806   0.72432   0.73748   0.74161   0.74615
 Alpha virt. eigenvalues --    0.74924   0.75437   0.76243   0.76473   0.77169
 Alpha virt. eigenvalues --    0.77764   0.78220   0.78747   0.78951   0.79810
 Alpha virt. eigenvalues --    0.80775   0.81037   0.81718   0.82479   0.82638
 Alpha virt. eigenvalues --    0.83196   0.84043   0.84496   0.85346   0.86100
 Alpha virt. eigenvalues --    0.87052   0.87772   0.88404   0.89265   0.90701
 Alpha virt. eigenvalues --    0.91549   0.91838   0.93130   0.94295   0.94691
 Alpha virt. eigenvalues --    0.95597   0.96133   0.96973   0.97542   0.99059
 Alpha virt. eigenvalues --    0.99278   0.99983   1.01095   1.02504   1.03451
 Alpha virt. eigenvalues --    1.03816   1.04781   1.05712   1.06020   1.06268
 Alpha virt. eigenvalues --    1.07515   1.08110   1.08474   1.09382   1.10846
 Alpha virt. eigenvalues --    1.12013   1.12254   1.13073   1.13604   1.15971
 Alpha virt. eigenvalues --    1.16183   1.16371   1.17759   1.18460   1.19464
 Alpha virt. eigenvalues --    1.20022   1.20979   1.22880   1.23134   1.24351
 Alpha virt. eigenvalues --    1.24608   1.26177   1.26771   1.28523   1.29236
 Alpha virt. eigenvalues --    1.30563   1.31051   1.31971   1.32253   1.33034
 Alpha virt. eigenvalues --    1.34007   1.34779   1.36937   1.38926   1.39216
 Alpha virt. eigenvalues --    1.40411   1.40984   1.41886   1.42961   1.43817
 Alpha virt. eigenvalues --    1.44556   1.45905   1.46959   1.47330   1.48648
 Alpha virt. eigenvalues --    1.49675   1.50070   1.50992   1.51905   1.52666
 Alpha virt. eigenvalues --    1.53652   1.55258   1.55393   1.56012   1.56669
 Alpha virt. eigenvalues --    1.57725   1.58453   1.59458   1.60484   1.60808
 Alpha virt. eigenvalues --    1.63152   1.63661   1.65708   1.65932   1.67361
 Alpha virt. eigenvalues --    1.68183   1.68980   1.69857   1.71459   1.72603
 Alpha virt. eigenvalues --    1.73162   1.74138   1.74744   1.75039   1.76488
 Alpha virt. eigenvalues --    1.76991   1.77819   1.78729   1.80096   1.80641
 Alpha virt. eigenvalues --    1.81816   1.83201   1.84217   1.84595   1.85946
 Alpha virt. eigenvalues --    1.86353   1.87427   1.88394   1.89335   1.89820
 Alpha virt. eigenvalues --    1.90408   1.91420   1.93770   1.95150   1.95654
 Alpha virt. eigenvalues --    1.96896   1.99403   1.99478   2.01057   2.01471
 Alpha virt. eigenvalues --    2.02336   2.03742   2.04737   2.05770   2.06790
 Alpha virt. eigenvalues --    2.07461   2.08180   2.09859   2.10771   2.11321
 Alpha virt. eigenvalues --    2.11931   2.12777   2.13434   2.14681   2.15866
 Alpha virt. eigenvalues --    2.17578   2.17755   2.19329   2.20699   2.21748
 Alpha virt. eigenvalues --    2.22583   2.23231   2.25551   2.26301   2.26929
 Alpha virt. eigenvalues --    2.27565   2.28954   2.29755   2.32000   2.33183
 Alpha virt. eigenvalues --    2.35861   2.36264   2.39572   2.40021   2.42238
 Alpha virt. eigenvalues --    2.42594   2.44356   2.46941   2.47544   2.48859
 Alpha virt. eigenvalues --    2.49369   2.50766   2.51623   2.53288   2.54244
 Alpha virt. eigenvalues --    2.54938   2.56540   2.57683   2.59441   2.61045
 Alpha virt. eigenvalues --    2.62800   2.63534   2.65044   2.68162   2.69853
 Alpha virt. eigenvalues --    2.71416   2.71942   2.73946   2.75447   2.78161
 Alpha virt. eigenvalues --    2.79785   2.81993   2.83012   2.84545   2.87459
 Alpha virt. eigenvalues --    2.88649   2.90537   2.95199   2.98165   3.00103
 Alpha virt. eigenvalues --    3.02384   3.11381   3.13195   3.16099   3.19397
 Alpha virt. eigenvalues --    3.23714   3.25454   3.29082   3.36947   3.39565
 Alpha virt. eigenvalues --    3.39984   3.41398   3.43259   3.43914   3.44819
 Alpha virt. eigenvalues --    3.45026   3.46282   3.48035   3.48347   3.51126
 Alpha virt. eigenvalues --    3.51781   3.53341   3.53982   3.54916   3.56295
 Alpha virt. eigenvalues --    3.59027   3.59533   3.60950   3.62773   3.64631
 Alpha virt. eigenvalues --    3.66944   3.67743   3.71079   3.73050   3.75091
 Alpha virt. eigenvalues --    3.78129   3.82966   3.84834   3.88771   4.00865
 Alpha virt. eigenvalues --    4.02036   4.06944   4.11098   4.23082   4.59852
          Condensed to atoms (all electrons):
               1          2          3          4          5          6
     1  C    8.593067  -2.244621   1.273075   0.136658   0.416252   0.004401
     2  C   -2.244621  10.390773  -3.689986  -0.639905  -1.490864   0.003604
     3  C    1.273075  -3.689986  12.545293   0.199362   0.687777  -0.067481
     4  O    0.136658  -0.639905   0.199362   8.668183   0.027600   0.000839
     5  H    0.416252  -1.490864   0.687777   0.027600   2.371294   0.011961
     6  O    0.004401   0.003604  -0.067481   0.000839   0.011961   9.462833
     7  H   -0.004296   0.183678  -0.731333   0.008423   0.100554  -0.305138
     8  N   -0.074822   0.785555  -1.172686  -0.020709  -0.307317  -0.082283
     9  C   -1.916299   0.651422  -2.106120   0.078988   0.014836   0.014415
    10  H   -0.735314   0.430110  -0.372665   0.006511  -0.188714   0.024991
    11  O   -0.277631   0.040529   0.053115  -0.030973   0.017184  -0.008222
    12  C   -0.010701  -0.273062   0.165750   0.008213   0.019264  -0.171730
    13  H    0.357577  -0.058424   0.203177  -0.013676  -0.008948  -0.082925
    14  O    0.032263  -0.009046   0.007290   0.000050  -0.001905   0.007895
    15  H   -0.033086   0.069327   0.037764  -0.001974   0.001900   0.090421
    16  H    0.017158  -0.031984  -0.050251   0.001082   0.000387  -0.067306
    17  H   -0.168328   0.013508  -0.013376   0.024343  -0.003316   0.003468
    18  H   -0.043719   0.134849  -0.060089   0.317056  -0.087341   0.002660
    19  H   -0.017370   0.004838  -0.017501  -0.000270   0.000077  -0.010057
    20  C   -0.319918   0.771766  -2.045733  -0.031115  -0.130022   0.236325
    21  C    0.035837  -0.098155   0.252809   0.005587   0.024264  -0.017200
    22  C   -0.011590   0.035298  -0.278264  -0.001649  -0.008682  -0.001786
    23  N   -0.026255   0.086174  -0.138500  -0.004695  -0.012719   0.001663
    24  C    0.118470  -0.287887   0.134667   0.024029   0.060516  -0.107934
    25  H    0.003736  -0.113306   0.218398  -0.000721  -0.005456  -0.156475
    26  H    0.000139   0.001794  -0.003102   0.000105   0.000137  -0.002374
    27  H    0.002074  -0.012447  -0.003595   0.000523  -0.000866  -0.000089
    28  O   -0.000187   0.002394   0.003186  -0.000014   0.000634   0.000604
    29  O   -0.018453  -0.025599   0.163951   0.004317   0.016484  -0.000411
               7          8          9         10         11         12
     1  C   -0.004296  -0.074822  -1.916299  -0.735314  -0.277631  -0.010701
     2  C    0.183678   0.785555   0.651422   0.430110   0.040529  -0.273062
     3  C   -0.731333  -1.172686  -2.106120  -0.372665   0.053115   0.165750
     4  O    0.008423  -0.020709   0.078988   0.006511  -0.030973   0.008213
     5  H    0.100554  -0.307317   0.014836  -0.188714   0.017184   0.019264
     6  O   -0.305138  -0.082283   0.014415   0.024991  -0.008222  -0.171730
     7  H    2.095883  -0.051278   0.123858  -0.024288   0.006561   0.005472
     8  N   -0.051278   8.219809   0.206260   0.047384  -0.013081   0.013585
     9  C    0.123858   0.206260   9.270816   0.077979   0.143645  -0.239425
    10  H   -0.024288   0.047384   0.077979   2.231746  -0.179833  -0.108018
    11  O    0.006561  -0.013081   0.143645  -0.179833   8.567677   0.032968
    12  C    0.005472   0.013585  -0.239425  -0.108018   0.032968   5.280587
    13  H   -0.004090  -0.019968  -1.227996   0.109972  -0.036842   0.001363
    14  O   -0.001182   0.008365  -0.209857   0.007726  -0.001271   0.209508
    15  H   -0.001352  -0.003164   0.069925  -0.026430   0.011638  -0.115317
    16  H    0.000888   0.005803   0.174254   0.019799  -0.001787   0.077419
    17  H   -0.001928   0.000014   0.058840   0.031534   0.343807  -0.016411
    18  H   -0.017996   0.017693  -0.028122   0.005017   0.002718  -0.003666
    19  H   -0.000257  -0.000727   0.054106  -0.003975   0.000622  -0.053182
    20  C   -0.044913   0.275546   0.331217   0.118964  -0.017466  -0.085593
    21  C   -0.014498  -0.296701   0.043270  -0.027406   0.002811  -0.005291
    22  C    0.001561  -0.126477   0.002516   0.005423  -0.000271  -0.007096
    23  N    0.000953   0.006048   0.009679   0.000304   0.000508  -0.003080
    24  C    0.154937  -0.306043  -0.188551  -0.008442  -0.000849   0.004244
    25  H    0.040989  -0.130976  -0.063232   0.002004  -0.001388   0.007789
    26  H   -0.002581   0.040116  -0.002380  -0.000522   0.000095  -0.000892
    27  H    0.002137   0.072655  -0.000856   0.000196  -0.000003  -0.000139
    28  O   -0.000253  -0.005368   0.000603  -0.000182  -0.000004   0.000036
    29  O    0.034138  -0.186176   0.013365  -0.000387   0.000331   0.000314
              13         14         15         16         17         18
     1  C    0.357577   0.032263  -0.033086   0.017158  -0.168328  -0.043719
     2  C   -0.058424  -0.009046   0.069327  -0.031984   0.013508   0.134849
     3  C    0.203177   0.007290   0.037764  -0.050251  -0.013376  -0.060089
     4  O   -0.013676   0.000050  -0.001974   0.001082   0.024343   0.317056
     5  H   -0.008948  -0.001905   0.001900   0.000387  -0.003316  -0.087341
     6  O   -0.082925   0.007895   0.090421  -0.067306   0.003468   0.002660
     7  H   -0.004090  -0.001182  -0.001352   0.000888  -0.001928  -0.017996
     8  N   -0.019968   0.008365  -0.003164   0.005803   0.000014   0.017693
     9  C   -1.227996  -0.209857   0.069925   0.174254   0.058840  -0.028122
    10  H    0.109972   0.007726  -0.026430   0.019799   0.031534   0.005017
    11  O   -0.036842  -0.001271   0.011638  -0.001787   0.343807   0.002718
    12  C    0.001363   0.209508  -0.115317   0.077419  -0.016411  -0.003666
    13  H    2.421209   0.043640  -0.105494  -0.032562  -0.000798   0.003362
    14  O    0.043640   8.287165  -0.070351  -0.065886  -0.000467   0.000174
    15  H   -0.105494  -0.070351   1.669075  -0.259174   0.000520   0.000254
    16  H   -0.032562  -0.065886  -0.259174   1.454115  -0.001706  -0.000602
    17  H   -0.000798  -0.000467   0.000520  -0.001706   0.587638  -0.001285
    18  H    0.003362   0.000174   0.000254  -0.000602  -0.001285   0.575825
    19  H    0.004958   0.380444  -0.033797  -0.024321  -0.000014   0.000006
    20  C   -0.000192  -0.011247  -0.013503   0.027442   0.000491   0.010052
    21  C   -0.008671  -0.002197  -0.000968   0.005929   0.000709  -0.001851
    22  C    0.001243   0.000575  -0.000384   0.000536  -0.000307   0.001147
    23  N    0.000357   0.000210  -0.000011  -0.000347   0.000180   0.002895
    24  C    0.000257   0.002448   0.000175   0.002618  -0.003426  -0.004360
    25  H    0.004751   0.010110  -0.000199   0.004324   0.001696  -0.000928
    26  H   -0.000110   0.001817  -0.000191   0.000094  -0.000030  -0.000013
    27  H    0.000015   0.000064  -0.000011   0.000019  -0.000040  -0.000094
    28  O   -0.000001  -0.000001   0.000007  -0.000005  -0.000003   0.000029
    29  O   -0.000126  -0.000058   0.000075  -0.000022   0.000094   0.006462
              19         20         21         22         23         24
     1  C   -0.017370  -0.319918   0.035837  -0.011590  -0.026255   0.118470
     2  C    0.004838   0.771766  -0.098155   0.035298   0.086174  -0.287887
     3  C   -0.017501  -2.045733   0.252809  -0.278264  -0.138500   0.134667
     4  O   -0.000270  -0.031115   0.005587  -0.001649  -0.004695   0.024029
     5  H    0.000077  -0.130022   0.024264  -0.008682  -0.012719   0.060516
     6  O   -0.010057   0.236325  -0.017200  -0.001786   0.001663  -0.107934
     7  H   -0.000257  -0.044913  -0.014498   0.001561   0.000953   0.154937
     8  N   -0.000727   0.275546  -0.296701  -0.126477   0.006048  -0.306043
     9  C    0.054106   0.331217   0.043270   0.002516   0.009679  -0.188551
    10  H   -0.003975   0.118964  -0.027406   0.005423   0.000304  -0.008442
    11  O    0.000622  -0.017466   0.002811  -0.000271   0.000508  -0.000849
    12  C   -0.053182  -0.085593  -0.005291  -0.007096  -0.003080   0.004244
    13  H    0.004958  -0.000192  -0.008671   0.001243   0.000357   0.000257
    14  O    0.380444  -0.011247  -0.002197   0.000575   0.000210   0.002448
    15  H   -0.033797  -0.013503  -0.000968  -0.000384  -0.000011   0.000175
    16  H   -0.024321   0.027442   0.005929   0.000536  -0.000347   0.002618
    17  H   -0.000014   0.000491   0.000709  -0.000307   0.000180  -0.003426
    18  H    0.000006   0.010052  -0.001851   0.001147   0.002895  -0.004360
    19  H    0.548137   0.005238   0.000388  -0.000190  -0.000046  -0.000650
    20  C    0.005238   9.593696  -2.174379   0.186763   0.173622  -1.267421
    21  C    0.000388  -2.174379   9.319979  -1.660085  -0.041227   0.459514
    22  C   -0.000190   0.186763  -1.660085   7.640418   0.207056  -0.362921
    23  N   -0.000046   0.173622  -0.041227   0.207056   7.076841  -0.175809
    24  C   -0.000650  -1.267421   0.459514  -0.362921  -0.175809   7.104534
    25  H   -0.006486  -0.750306  -0.077215  -0.147040   0.014214   0.024144
    26  H   -0.000175   0.473748  -0.831622   0.205307  -0.052880  -0.032178
    27  H   -0.000017  -0.029342   0.025375  -0.159069   0.417610  -0.284685
    28  O   -0.000007   0.097248  -0.131755   0.147653  -0.112691   0.034701
    29  O   -0.000017  -0.060882   0.023330  -0.022374  -0.258197   0.326901
              25         26         27         28         29
     1  C    0.003736   0.000139   0.002074  -0.000187  -0.018453
     2  C   -0.113306   0.001794  -0.012447   0.002394  -0.025599
     3  C    0.218398  -0.003102  -0.003595   0.003186   0.163951
     4  O   -0.000721   0.000105   0.000523  -0.000014   0.004317
     5  H   -0.005456   0.000137  -0.000866   0.000634   0.016484
     6  O   -0.156475  -0.002374  -0.000089   0.000604  -0.000411
     7  H    0.040989  -0.002581   0.002137  -0.000253   0.034138
     8  N   -0.130976   0.040116   0.072655  -0.005368  -0.186176
     9  C   -0.063232  -0.002380  -0.000856   0.000603   0.013365
    10  H    0.002004  -0.000522   0.000196  -0.000182  -0.000387
    11  O   -0.001388   0.000095  -0.000003  -0.000004   0.000331
    12  C    0.007789  -0.000892  -0.000139   0.000036   0.000314
    13  H    0.004751  -0.000110   0.000015  -0.000001  -0.000126
    14  O    0.010110   0.001817   0.000064  -0.000001  -0.000058
    15  H   -0.000199  -0.000191  -0.000011   0.000007   0.000075
    16  H    0.004324   0.000094   0.000019  -0.000005  -0.000022
    17  H    0.001696  -0.000030  -0.000040  -0.000003   0.000094
    18  H   -0.000928  -0.000013  -0.000094   0.000029   0.006462
    19  H   -0.006486  -0.000175  -0.000017  -0.000007  -0.000017
    20  C   -0.750306   0.473748  -0.029342   0.097248  -0.060882
    21  C   -0.077215  -0.831622   0.025375  -0.131755   0.023330
    22  C   -0.147040   0.205307  -0.159069   0.147653  -0.022374
    23  N    0.014214  -0.052880   0.417610  -0.112691  -0.258197
    24  C    0.024144  -0.032178  -0.284685   0.034701   0.326901
    25  H    3.064069  -0.220764   0.001020   0.003039  -0.003710
    26  H   -0.220764   2.029825   0.010150  -0.021245   0.001544
    27  H    0.001020   0.010150   1.122412  -0.051976  -0.003003
    28  O    0.003039  -0.021245  -0.051976   8.703836  -0.001697
    29  O   -0.003710   0.001544  -0.003003  -0.001697   8.659230
 Mulliken charges:
               1
     1  C    0.911878
     2  C    1.369666
     3  C    0.805066
     4  O   -0.766169
     5  H   -0.524973
     6  O   -0.784666
     7  H   -0.554647
     8  N    0.098944
     9  C    0.642842
    10  H   -0.443483
    11  O   -0.654589
    12  C    1.267091
    13  H   -0.551057
    14  O   -0.626274
    15  H   -0.285676
    16  H   -0.255915
    17  H    0.144593
    18  H    0.169868
    19  H    0.170246
    20  C    0.679916
    21  C    1.189422
    22  C    0.352689
    23  N   -0.171859
    24  C    0.579002
    25  H   -0.722080
    26  H   -0.593812
    27  H   -0.108017
    28  O   -0.668582
    29  O   -0.669425
 Sum of Mulliken charges =  -0.00000
 Mulliken charges with hydrogens summed into heavy atoms:
               1
     1  C    0.468396
     2  C    0.844693
     3  C    0.250419
     4  O   -0.596301
     6  O   -0.784666
     8  N    0.098944
     9  C    0.091784
    11  O   -0.509996
    12  C    0.725500
    14  O   -0.456028
    20  C   -0.042164
    21  C    0.595610
    22  C    0.352689
    23  N   -0.279877
    24  C    0.579002
    28  O   -0.668582
    29  O   -0.669425
 Electronic spatial extent (au):  <R**2>=           4234.7857
 Charge=             -0.0000 electrons
 Dipole moment (field-independent basis, Debye):
    X=             -4.0781    Y=              0.8099    Z=             -1.3146  Tot=              4.3606
 Quadrupole moment (field-independent basis, Debye-Ang):
   XX=           -116.0338   YY=            -90.4288   ZZ=           -102.7017
   XY=            -12.6388   XZ=              1.6411   YZ=             -1.2316
 Traceless Quadrupole moment (field-independent basis, Debye-Ang):
   XX=            -12.9791   YY=             12.6260   ZZ=              0.3531
   XY=            -12.6388   XZ=              1.6411   YZ=             -1.2316
 Octapole moment (field-independent basis, Debye-Ang**2):
  XXX=           -131.9373  YYY=             34.1091  ZZZ=             -2.8681  XYY=            -47.4644
  XXY=            -18.6765  XXZ=            -39.7778  XZZ=              2.7794  YZZ=             -5.9739
  YYZ=              3.2335  XYZ=             -9.4216
 Hexadecapole moment (field-independent basis, Debye-Ang**3):
 XXXX=          -4203.3940 YYYY=          -1128.2268 ZZZZ=           -372.3261 XXXY=           -355.2330
 XXXZ=            -45.6495 YYYX=            -59.4541 YYYZ=              9.1475 ZZZX=             11.0100
 ZZZY=              7.9905 XXYY=           -752.9286 XXZZ=           -716.7167 YYZZ=           -284.8630
 XXYZ=            -35.7972 YYXZ=             -2.8397 ZZXY=            -14.3355
 N-N= 1.317618530218D+03 E-N=-4.766673896586D+03  KE= 9.051616103889D+02
 Calling FoFJK, ICntrl=      2127 FMM=F ISym2X=0 I1Cent= 0 IOpClX= 0 NMat=1 NMatS=1 NMatT=0.
 ***** Axes restored to original set *****
 -------------------------------------------------------------------
 Center     Atomic                   Forces (Hartrees/Bohr)
 Number     Number              X              Y              Z
 -------------------------------------------------------------------
      1        6          -0.017229655   -0.010741137   -0.016345590
      2        6          -0.000010372   -0.001671810   -0.013306177
      3        6          -0.015391357    0.008353195   -0.003119075
      4        8           0.012925645    0.009974630    0.004032524
      5        1           0.006227434    0.004470094    0.003347511
      6        8           0.016198942   -0.020231878   -0.005508706
      7        1           0.003964949   -0.001968639   -0.001841647
      8        7           0.002509737    0.001819995    0.004655937
      9        6          -0.000063225    0.007524054    0.020705415
     10        1          -0.001520368    0.000679780    0.002347853
     11        8           0.006695856    0.007582092   -0.005130689
     12        6           0.008666931    0.006051087    0.003182442
     13        1          -0.002990571   -0.004303655   -0.000753737
     14        8          -0.001328722   -0.000371354    0.004704364
     15        1          -0.005351190   -0.003165331   -0.007255538
     16        1          -0.005538154    0.003883257   -0.004936826
     17        1           0.001288855   -0.001073052    0.012776140
     18        1          -0.008969058   -0.003978083    0.009952092
     19        1           0.007388008   -0.002024657   -0.010997913
     20        6          -0.009816954   -0.000292108    0.002288951
     21        6           0.015984598   -0.002464404   -0.016344079
     22        6           0.009639687    0.009855071    0.046145664
     23        7          -0.006373168    0.000276241   -0.002981873
     24        6          -0.006228287   -0.006324928   -0.015577963
     25        1          -0.006702808   -0.001808762   -0.004962331
     26        1           0.000331370    0.000427559    0.001969105
     27        1           0.001578192   -0.001257642   -0.004902429
     28        8           0.000742073   -0.002301310   -0.012339214
     29        8          -0.006628387    0.003081695    0.010195789
 -------------------------------------------------------------------
 Cartesian Forces:  Max     0.046145664 RMS     0.009300187

 GradGradGradGradGradGradGradGradGradGradGradGradGradGradGradGradGradGrad
 Berny optimization.
 FormGI is forming the generalized inverse of G from B-inverse, IUseBI=4.
 Internal  Forces:  Max     0.021448297 RMS     0.005470563
 Search for a local minimum.
 Step number   1 out of a maximum of  173
 All quantities printed in internal units (Hartrees-Bohrs-Radians)
 Mixed Optimization -- RFO/linear search
 Second derivative matrix not updated -- first step.
 ITU=  0
     Eigenvalues ---    0.00385   0.00523   0.00834   0.00897   0.01132
     Eigenvalues ---    0.01310   0.01365   0.01485   0.01589   0.01787
     Eigenvalues ---    0.01962   0.01989   0.02089   0.02134   0.02342
     Eigenvalues ---    0.02540   0.03090   0.03705   0.04393   0.04786
     Eigenvalues ---    0.04993   0.05014   0.05421   0.05642   0.05725
     Eigenvalues ---    0.05991   0.06316   0.06757   0.07856   0.08172
     Eigenvalues ---    0.09878   0.11590   0.13179   0.13861   0.15998
     Eigenvalues ---    0.16000   0.16000   0.16000   0.16000   0.16000
     Eigenvalues ---    0.16074   0.16927   0.19016   0.19725   0.22080
     Eigenvalues ---    0.22359   0.23437   0.24606   0.24989   0.24994
     Eigenvalues ---    0.24999   0.26335   0.28927   0.29423   0.29537
     Eigenvalues ---    0.33954   0.33991   0.34211   0.34272   0.34297
     Eigenvalues ---    0.34314   0.34830   0.35184   0.35807   0.36952
     Eigenvalues ---    0.37368   0.37948   0.39266   0.41149   0.41755
     Eigenvalues ---    0.45407   0.46259   0.46348   0.49764   0.51203
     Eigenvalues ---    0.51377   0.51803   0.52689   0.56964   0.90990
     Eigenvalues ---    0.93279
 RFO step:  Lambda=-1.86304697D-02 EMin= 3.85298071D-03
 Linear search not attempted -- first point.
 Iteration  1 RMS(Cart)=  0.08593196 RMS(Int)=  0.00231651
 Iteration  2 RMS(Cart)=  0.00342558 RMS(Int)=  0.00047624
 Iteration  3 RMS(Cart)=  0.00000463 RMS(Int)=  0.00047623
 Iteration  4 RMS(Cart)=  0.00000000 RMS(Int)=  0.00047623
 Variable       Old X    -DE/DX   Delta X   Delta X   Delta X     New X
                                 (Linear)    (Quad)   (Total)
    R1        2.86751   0.00511   0.00000   0.01904   0.01902   2.88653
    R2        2.87781  -0.00040   0.00000   0.00078   0.00064   2.87845
    R3        2.06975   0.00069   0.00000   0.00191   0.00191   2.07166
    R4        2.69236  -0.01132   0.00000  -0.02595  -0.02595   2.66641
    R5        2.91239  -0.00547   0.00000  -0.01800  -0.01789   2.89450
    R6        2.72564  -0.01434   0.00000  -0.03486  -0.03486   2.69077
    R7        2.06803   0.00176   0.00000   0.00487   0.00487   2.07289
    R8        2.72273  -0.01874   0.00000  -0.04805  -0.04795   2.67478
    R9        2.07345   0.00014   0.00000   0.00040   0.00040   2.07385
   R10        2.75919  -0.00201   0.00000  -0.00518  -0.00518   2.75401
   R11        1.84788  -0.01387   0.00000  -0.02584  -0.02584   1.82204
   R12        2.72538  -0.00508   0.00000  -0.01407  -0.01412   2.71126
   R13        2.60912  -0.00232   0.00000  -0.00563  -0.00564   2.60348
   R14        2.62550  -0.01072   0.00000  -0.02304  -0.02309   2.60240
   R15        2.88897  -0.01517   0.00000  -0.04831  -0.04831   2.84066
   R16        2.07408   0.00232   0.00000   0.00648   0.00648   2.08056
   R17        1.85371  -0.01282   0.00000  -0.02417  -0.02417   1.82954
   R18        2.70022   0.00076   0.00000   0.00176   0.00176   2.70198
   R19        2.06831   0.00433   0.00000   0.01197   0.01197   2.08029
   R20        2.06873   0.00498   0.00000   0.01377   0.01377   2.08250
   R21        1.83945  -0.01316   0.00000  -0.02413  -0.02413   1.81532
   R22        2.52241   0.01729   0.00000   0.02878   0.02883   2.55124
   R23        2.05377   0.00170   0.00000   0.00458   0.00458   2.05835
   R24        2.77892  -0.00853   0.00000  -0.02106  -0.02102   2.75790
   R25        2.04384   0.00203   0.00000   0.00540   0.00540   2.04924
   R26        2.57854   0.02145   0.00000   0.04076   0.04076   2.61930
   R27        2.31457  -0.00290   0.00000  -0.00304  -0.00304   2.31153
   R28        2.58668   0.00760   0.00000   0.01423   0.01418   2.60086
   R29        1.90441   0.00461   0.00000   0.00955   0.00955   1.91396
   R30        2.32480  -0.00918   0.00000  -0.00989  -0.00989   2.31491
    A1        1.77850  -0.00276   0.00000   0.00680   0.00615   1.78465
    A2        1.91622  -0.00149   0.00000  -0.01176  -0.01179   1.90443
    A3        1.95198   0.00694   0.00000   0.04941   0.04889   2.00087
    A4        1.94788  -0.00195   0.00000  -0.03499  -0.03513   1.91275
    A5        1.96313   0.00198   0.00000   0.01683   0.01563   1.97876
    A6        1.90382  -0.00260   0.00000  -0.02411  -0.02384   1.87998
    A7        1.78857   0.00031   0.00000   0.00336   0.00347   1.79204
    A8        1.89708  -0.00157   0.00000  -0.02179  -0.02183   1.87525
    A9        1.95746   0.00061   0.00000   0.01165   0.01132   1.96879
   A10        1.95021  -0.00113   0.00000  -0.01296  -0.01315   1.93706
   A11        2.00306  -0.00284   0.00000  -0.03601  -0.03593   1.96713
   A12        1.86635   0.00434   0.00000   0.05228   0.05237   1.91873
   A13        1.88626  -0.00023   0.00000  -0.00431  -0.00502   1.88124
   A14        1.91996  -0.00020   0.00000   0.01127   0.01108   1.93104
   A15        1.96985   0.00151   0.00000  -0.00781  -0.00867   1.96118
   A16        1.85950   0.00317   0.00000   0.04579   0.04569   1.90519
   A17        1.94468  -0.00463   0.00000  -0.04962  -0.04988   1.89479
   A18        1.88057   0.00050   0.00000   0.00844   0.00898   1.88955
   A19        1.85150   0.00259   0.00000   0.01448   0.01448   1.86598
   A20        1.88075   0.00807   0.00000   0.03688   0.03736   1.91811
   A21        2.13206   0.00191   0.00000   0.00960   0.00962   2.14168
   A22        2.02847  -0.00627   0.00000  -0.02084  -0.02082   2.00765
   A23        2.12233   0.00436   0.00000   0.01110   0.01104   2.13337
   A24        1.85589  -0.00355   0.00000  -0.01987  -0.01968   1.83621
   A25        1.98179   0.00454   0.00000   0.01730   0.01691   1.99870
   A26        1.93143  -0.00189   0.00000  -0.01708  -0.01697   1.91446
   A27        1.92663  -0.00178   0.00000  -0.02202  -0.02190   1.90474
   A28        1.87650   0.00305   0.00000   0.03419   0.03410   1.91060
   A29        1.88904  -0.00042   0.00000   0.00813   0.00829   1.89733
   A30        1.83563   0.00216   0.00000   0.01210   0.01210   1.84773
   A31        1.94300  -0.01543   0.00000  -0.06298  -0.06290   1.88009
   A32        1.93021  -0.00427   0.00000  -0.04777  -0.04765   1.88256
   A33        1.91990   0.00006   0.00000  -0.01123  -0.01052   1.90937
   A34        1.89000   0.01060   0.00000   0.05798   0.05546   1.94546
   A35        1.87294   0.00958   0.00000   0.06518   0.06427   1.93721
   A36        1.90645   0.00019   0.00000   0.00392   0.00147   1.90792
   A37        1.85915   0.00463   0.00000   0.02591   0.02591   1.88506
   A38        2.12761  -0.00029   0.00000  -0.00399  -0.00394   2.12366
   A39        2.05633  -0.00843   0.00000  -0.04601  -0.04603   2.01030
   A40        2.09924   0.00872   0.00000   0.05001   0.04998   2.14922
   A41        2.07611   0.00337   0.00000   0.01616   0.01626   2.09236
   A42        2.14985  -0.00186   0.00000  -0.00906  -0.00911   2.14074
   A43        2.05723  -0.00151   0.00000  -0.00710  -0.00715   2.05008
   A44        2.02056  -0.00995   0.00000  -0.03327  -0.03322   1.98734
   A45        2.11589   0.01913   0.00000   0.06935   0.06932   2.18521
   A46        2.14671  -0.00919   0.00000  -0.03607  -0.03610   2.11062
   A47        2.19732   0.00572   0.00000   0.02504   0.02501   2.22232
   A48        2.04211  -0.00038   0.00000   0.00139   0.00141   2.04352
   A49        2.04364  -0.00535   0.00000  -0.02647  -0.02645   2.01719
   A50        2.02205  -0.00323   0.00000  -0.01535  -0.01550   2.00655
   A51        2.15241  -0.00826   0.00000  -0.02892  -0.02893   2.12347
   A52        2.10851   0.01150   0.00000   0.04466   0.04465   2.15316
    D1        0.58206  -0.00294   0.00000  -0.02932  -0.02956   0.55250
    D2       -1.48409  -0.00111   0.00000  -0.00676  -0.00708  -1.49118
    D3        2.73925  -0.00584   0.00000  -0.06435  -0.06465   2.67460
    D4       -1.48456   0.00139   0.00000   0.01239   0.01239  -1.47217
    D5        2.73247   0.00321   0.00000   0.03495   0.03487   2.76734
    D6        0.67263  -0.00152   0.00000  -0.02263  -0.02270   0.64993
    D7        2.68272   0.00110   0.00000   0.01818   0.01849   2.70121
    D8        0.61657   0.00292   0.00000   0.04074   0.04097   0.65754
    D9       -1.44328  -0.00181   0.00000  -0.01685  -0.01660  -1.45987
   D10       -0.63244   0.00430   0.00000   0.03436   0.03435  -0.59808
   D11       -2.75446   0.00621   0.00000   0.06506   0.06510  -2.68936
   D12        1.40033   0.00493   0.00000   0.05485   0.05503   1.45536
   D13        1.41145   0.00019   0.00000   0.00908   0.00909   1.42054
   D14       -0.71057   0.00210   0.00000   0.03978   0.03984  -0.67073
   D15       -2.83897   0.00082   0.00000   0.02958   0.02977  -2.80920
   D16       -2.72528  -0.00322   0.00000  -0.03632  -0.03638  -2.76165
   D17        1.43589  -0.00132   0.00000  -0.00562  -0.00563   1.43025
   D18       -0.69251  -0.00259   0.00000  -0.01583  -0.01571  -0.70821
   D19       -0.47356  -0.00074   0.00000  -0.02595  -0.02662  -0.50018
   D20        1.51560   0.00143   0.00000   0.02419   0.02472   1.54032
   D21       -2.59662  -0.00162   0.00000  -0.02692  -0.02678  -2.62340
   D22       -0.35848   0.00202   0.00000   0.02767   0.02743  -0.33105
   D23       -2.38214  -0.00153   0.00000  -0.03063  -0.03083  -2.41296
   D24        1.80016  -0.00304   0.00000  -0.04408  -0.04423   1.75592
   D25        1.66975  -0.00014   0.00000  -0.00158  -0.00166   1.66809
   D26       -0.35390  -0.00369   0.00000  -0.05988  -0.05992  -0.41382
   D27       -2.45479  -0.00520   0.00000  -0.07333  -0.07333  -2.52812
   D28       -2.48486   0.00261   0.00000   0.03075   0.03059  -2.45428
   D29        1.77467  -0.00094   0.00000  -0.02755  -0.02767   1.74699
   D30       -0.32622  -0.00244   0.00000  -0.04100  -0.04108  -0.36730
   D31       -3.12182  -0.00058   0.00000   0.00394   0.00423  -3.11760
   D32        1.20025   0.00055   0.00000   0.01921   0.01887   1.21912
   D33       -1.00513   0.00180   0.00000   0.03599   0.03604  -0.96909
   D34       -0.03304  -0.00129   0.00000  -0.01262  -0.01257  -0.04561
   D35        2.02970   0.00004   0.00000   0.02260   0.02299   2.05268
   D36       -2.20680   0.00004   0.00000   0.03334   0.03260  -2.17421
   D37       -1.80524   0.00162   0.00000   0.03565   0.03518  -1.77006
   D38        1.30911   0.00148   0.00000   0.02995   0.02947   1.33858
   D39        0.32078  -0.00100   0.00000  -0.01232  -0.01179   0.30900
   D40       -2.84805  -0.00114   0.00000  -0.01802  -0.01750  -2.86555
   D41        2.35465   0.00056   0.00000   0.02059   0.02056   2.37521
   D42       -0.81418   0.00043   0.00000   0.01490   0.01484  -0.79933
   D43        0.41741   0.00027   0.00000  -0.00842  -0.00841   0.40900
   D44        2.57426   0.00248   0.00000  -0.01316  -0.01273   2.56153
   D45       -1.65186   0.00277   0.00000   0.00449   0.00480  -1.64706
   D46        3.13381   0.00008   0.00000   0.00170   0.00160   3.13542
   D47       -0.01185   0.00019   0.00000   0.00410   0.00399  -0.00786
   D48        0.02091   0.00039   0.00000   0.00819   0.00821   0.02912
   D49       -3.12475   0.00050   0.00000   0.01059   0.01060  -3.11415
   D50        3.13691  -0.00026   0.00000  -0.00615  -0.00603   3.13088
   D51       -0.02686   0.00063   0.00000   0.01419   0.01383  -0.01303
   D52       -0.03176  -0.00044   0.00000  -0.01183  -0.01173  -0.04349
   D53        3.08766   0.00045   0.00000   0.00851   0.00813   3.09578
   D54        0.98377  -0.00171   0.00000  -0.02074  -0.02031   0.96346
   D55       -1.11821  -0.00196   0.00000  -0.01989  -0.02039  -1.13860
   D56        3.05756   0.00052   0.00000   0.01345   0.01337   3.07093
   D57       -1.09828   0.00106   0.00000   0.00869   0.00913  -1.08915
   D58        3.08292   0.00081   0.00000   0.00954   0.00905   3.09197
   D59        0.97551   0.00329   0.00000   0.04289   0.04281   1.01832
   D60        3.13555  -0.00137   0.00000  -0.02494  -0.02436   3.11119
   D61        1.03357  -0.00162   0.00000  -0.02409  -0.02444   1.00912
   D62       -1.07384   0.00086   0.00000   0.00926   0.00932  -1.06453
   D63       -3.13047   0.00179   0.00000   0.02059   0.02078  -3.10969
   D64       -1.00496  -0.00621   0.00000  -0.04010  -0.04273  -1.04769
   D65        1.05104   0.00475   0.00000   0.03011   0.03256   1.08359
   D66       -0.00046   0.00004   0.00000   0.00014   0.00023  -0.00022
   D67        3.13877  -0.00001   0.00000  -0.00075  -0.00068   3.13809
   D68       -3.13788  -0.00003   0.00000  -0.00209  -0.00212  -3.14000
   D69        0.00134  -0.00008   0.00000  -0.00298  -0.00303  -0.00169
   D70       -0.00705  -0.00009   0.00000  -0.00312  -0.00307  -0.01012
   D71        3.14130  -0.00008   0.00000  -0.00445  -0.00454   3.13676
   D72        3.13678  -0.00004   0.00000  -0.00227  -0.00220   3.13459
   D73        0.00195  -0.00004   0.00000  -0.00360  -0.00366  -0.00172
   D74       -0.00584  -0.00006   0.00000  -0.00168  -0.00178  -0.00762
   D75       -3.13033   0.00008   0.00000   0.00125   0.00111  -3.12922
   D76        3.12886   0.00005   0.00000   0.00013   0.00007   3.12893
   D77        0.00438   0.00019   0.00000   0.00306   0.00296   0.00734
   D78        0.02472   0.00032   0.00000   0.00892   0.00894   0.03365
   D79       -3.09530  -0.00028   0.00000  -0.00988  -0.01028  -3.10558
   D80       -3.13399   0.00023   0.00000   0.00623   0.00632  -3.12768
   D81        0.02918  -0.00037   0.00000  -0.01257  -0.01290   0.01628
         Item               Value     Threshold  Converged?
 Maximum Force            0.021448     0.000450     NO 
 RMS     Force            0.005471     0.000300     NO 
 Maximum Displacement     0.608632     0.001800     NO 
 RMS     Displacement     0.086085     0.001200     NO 
 Predicted change in Energy=-1.045932D-02
 GradGradGradGradGradGradGradGradGradGradGradGradGradGradGradGradGradGrad

                          Input orientation:                          
 ---------------------------------------------------------------------
 Center     Atomic      Atomic             Coordinates (Angstroms)
 Number     Number       Type             X           Y           Z
 ---------------------------------------------------------------------
      1          6           0       -3.169300   -1.814260    0.748181
      2          6           0       -2.332671   -1.495056   -0.489307
      3          6           0       -1.972938   -0.020876   -0.280742
      4          8           0       -3.173375   -1.658814   -1.626796
      5          1           0       -1.448530   -2.137659   -0.582081
      6          8           0       -2.882502    0.517109    0.660918
      7          1           0       -2.058856    0.535323   -1.222880
      8          7           0       -0.619199    0.152717    0.230286
      9          6           0       -3.844560   -0.479373    1.035008
     10          1           0       -2.500071   -2.073282    1.576954
     11          8           0       -4.080748   -2.878728    0.583567
     12          6           0       -4.233884   -0.273343    2.472237
     13          1           0       -4.743169   -0.375777    0.407368
     14          8           0       -3.061444   -0.452686    3.270748
     15          1           0       -5.008551   -1.014590    2.721823
     16          1           0       -4.645905    0.740971    2.598054
     17          1           0       -4.313735   -2.884786   -0.356113
     18          1           0       -2.632400   -1.476987   -2.403925
     19          1           0       -3.311495   -0.350361    4.192598
     20          6           0       -0.351850    0.414743    1.556158
     21          6           0        0.911296    0.564927    2.008451
     22          6           0        2.033647    0.449607    1.082744
     23          7           0        1.657974    0.172523   -0.222359
     24          6           0        0.380719   -0.004724   -0.703454
     25          1           0       -1.227670    0.491345    2.199195
     26          1           0        1.139676    0.774531    3.047612
     27          1           0        2.400022    0.071241   -0.904212
     28          8           0        3.212542    0.572247    1.385078
     29          8           0        0.132945   -0.284211   -1.870122
 ---------------------------------------------------------------------
                    Distance matrix (angstroms):
                    1          2          3          4          5
     1  C    0.000000
     2  C    1.527487   0.000000
     3  C    2.388763   1.531703   0.000000
     4  O    2.380063   1.423897   2.436339   0.000000
     5  H    2.198916   1.096927   2.201494   2.072634   0.000000
     6  O    2.350563   2.382045   1.415435   3.170628   3.263298
     7  H    3.261703   2.176131   1.097435   2.493900   2.815662
     8  N    3.261936   2.483738   1.457358   3.640633   2.567791
     9  C    1.523211   2.375070   2.333321   2.987771   3.332544
    10  H    1.096277   2.152162   2.818026   3.299870   2.402356
    11  O    1.411002   2.474142   3.654751   2.682764   2.972623
    12  C    2.545610   3.725310   3.571345   4.454916   4.534614
    13  H    2.159271   2.804873   2.876391   2.871978   3.864955
    14  O    2.868598   3.969339   3.739570   5.045117   4.503877
    15  H    2.813819   4.207438   4.383812   4.763758   4.985059
    16  H    3.483044   4.458998   4.001578   5.077073   5.350044
    17  H    1.917088   2.423572   3.699593   2.101919   2.969622
    18  H    3.215243   1.938022   2.657641   0.964180   2.270936
    19  H    3.745293   4.918196   4.680926   5.966278   5.427949
    20  C    3.682295   3.428543   2.488351   4.732001   3.505642
    21  C    4.888770   4.583192   3.728589   5.902930   4.425337
    22  C    5.683984   5.031678   4.258306   6.236996   4.646627
    23  N    5.309598   4.333282   3.636528   5.354267   3.888021
    24  C    4.240790   3.103133   2.391370   4.027426   2.812525
    25  H    3.345322   3.520633   2.639675   4.800746   3.833528
    26  H    5.527793   5.451423   4.625903   6.809821   5.324879
    27  H    6.107607   5.002381   4.418143   5.880303   4.449086
    28  O    6.843169   6.207773   5.478682   7.404657   5.739242
    29  O    4.483456   3.074420   2.651456   3.588939   2.755972
                    6          7          8          9         10
     6  O    0.000000
     7  H    2.056069   0.000000
     8  N    2.332545   2.081031   0.000000
     9  C    1.434738   3.052279   3.383795   0.000000
    10  H    2.774076   3.852085   3.210337   2.154508   0.000000
[...]
 0.00022793,-0.00006405,-0.00000593,-0.00010443,-0.01477511,-0.00514467
 ,-0.02570822,0.03019463,0.00489687,0.02377795,-0.13333438,0.00278154,0
 .03429995,0.80507495,0.00004473,0.00003009,-0.00015802,0.00099702,-0.0
 0024991,0.00022968,0.00011702,0.00330859,-0.00228995,-0.00008258,0.000
 18843,0.00008897,0.00008882,0.00002617,0.00003414,-0.00031740,0.000067
 37,0.00076797,-0.00047424,-0.00051537,0.00037092,0.00059357,0.01073357
 ,0.00637645,0.00009311,0.00011529,-0.00006861,0.00001000,-0.00003437,-
 0.00004145,-0.00010790,0.00001321,0.00009299,-0.00010784,0.00000249,-0
 .00013964,-0.00000458,-0.00001829,-0.00000344,0.00014035,0.00007470,0.
 00012632,0.00002654,-0.00000438,0.00001683,0.00000448,0.00000948,0.000
 02984,0.00007855,0.00001465,-0.00003575,0.00017134,0.00004476,0.000030
 26,-0.00002207,-0.00002448,-0.00001914,-0.00259462,-0.00103396,-0.0049
 5401,0.00411315,0.00879301,-0.00744937,-0.00476586,-0.05866647,-0.0311
 4619,0.02322625,0.08882786,-0.00022764,0.00009285,-0.00066662,-0.00004
 951,-0.00036141,-0.00013160,0.00034103,-0.00161511,-0.00695661,-0.0003
 9794,-0.00001498,0.00086103,-0.00010357,0.00073461,-0.00024279,0.00182
 133,0.00024572,0.00165810,0.00085478,-0.00071042,0.00046987,0.01815714
 ,0.00581709,0.03515248,0.00010600,-0.00042254,0.00030092,-0.00006740,-
 0.00014017,0.00003087,-0.00029639,-0.00009666,0.00051593,-0.00050661,0
 .00009464,-0.00056974,0.00014514,0.00007672,-0.00002665,0.00068088,0.0
 0018609,0.00042372,0.00010750,-0.00000172,0.00005143,0.00004691,0.0000
 0869,0.00011811,0.00029167,0.00011101,-0.00023191,0.00103585,0.0004016
 2,0.00004929,-0.00007795,-0.00004173,-0.00005159,-0.00930907,-0.003770
 23,-0.01921756,0.01733989,-0.00803975,-0.03853635,-0.00295710,-0.03106
 102,-0.22907143,-0.07613112,0.12414008,0.71952050,-0.00070825,-0.00045
 457,0.00063180,-0.00103034,-0.00121297,-0.00049609,-0.04084924,0.00267
 857,0.01968174,0.00213270,0.00159301,0.00157894,-0.00010120,-0.0016881
 3,0.00006972,-0.00073364,-0.00090722,-0.00363902,-0.00056928,0.0009823
 7,0.00104065,-0.21402690,0.00231624,0.03258849,-0.00190681,-0.00037272
 ,0.00041858,0.00018347,-0.00009633,0.00021422,0.00109130,0.00115451,-0
 .00031734,0.00009490,0.00001702,0.00037051,0.00013537,0.00003213,0.000
 14107,0.00001482,0.00009857,-0.00066370,0.00003847,0.00008322,-0.00010
 214,-0.00003350,-0.00010973,-0.00010564,-0.00037976,-0.00028682,0.0001
 0159,-0.00004150,-0.00036562,-0.00084202,0.00010777,-0.00001915,0.0001
 4851,0.04424442,0.01151287,0.05299376,-0.03880179,-0.00104676,0.003653
 57,0.01201833,-0.01592994,-0.09338574,-0.28707281,-0.01543722,-0.00751
 149,0.66783622,0.00023140,-0.00011217,0.00086080,-0.00343836,0.0015396
 3,-0.00093775,0.00117317,-0.00024422,0.00575548,0.00047279,-0.00118074
 ,-0.00022776,-0.00091718,-0.00172634,0.00014046,0.00001289,0.00038844,
 -0.00159835,-0.00060478,0.00163125,-0.00079961,0.00502674,-0.07179482,
 -0.01655663,0.00059923,0.00016660,-0.00031292,-0.00007148,0.00005355,-
 0.00006311,0.00024184,-0.00015007,-0.00035797,0.00025462,-0.00005390,0
 .00021640,-0.00013370,-0.00001194,-0.00000990,-0.00027023,-0.00020839,
 -0.00022040,-0.00006333,-0.00000654,0.00000863,0.00001406,-0.00002071,
 -0.00010506,-0.00022982,-0.00001138,0.00010826,-0.00066682,0.00004770,
 -0.00012109,0.00004364,0.00005804,0.00002422,0.00457876,-0.00260505,-0
 .00547994,0.00055673,0.00055503,0.00078294,-0.00551601,-0.01466750,-0.
 00106209,-0.02424506,-0.06232705,-0.01973589,0.04127520,0.24864432,0.0
 0216196,-0.00050834,0.00157054,-0.00336380,0.00482995,0.00107085,0.019
 22457,0.00149356,0.02874422,-0.00163989,-0.00265917,-0.00494093,-0.000
 08405,-0.00229254,0.00140859,-0.01124147,-0.00077503,-0.00123006,-0.00
 749075,0.00146644,-0.00329661,0.05098094,-0.01628686,-0.16545351,0.001
 54511,0.00340401,-0.00302821,-0.00005425,0.00036869,-0.00043024,-0.000
 32339,-0.00109765,-0.00107045,0.00082536,-0.00036165,0.00060657,-0.000
 95692,-0.00062083,0.00012310,-0.00106889,-0.00033563,-0.00016008,-0.00
 020472,-0.00006802,0.00009726,-0.00001279,0.00004608,-0.00023066,-0.00
 046932,0.00000156,0.00057409,-0.00333160,-0.00071930,0.00044542,0.0000
 6556,0.00007495,-0.00003244,0.01599109,-0.00868057,-0.04989039,0.01268
 124,0.00112776,0.00348889,-0.03574353,0.00112916,0.00660725,-0.0535613
 8,-0.02208145,-0.15550411,0.08516076,0.15650987,0.93252942,0.00013717,
 -0.00057497,-0.00021836,-0.00002325,0.00018814,0.00010737,0.00083472,-
 0.00002938,-0.00090266,-0.00015940,-0.00001601,0.00011688,-0.00003817,
 0.00016299,0.00010109,-0.00312992,-0.00012774,-0.00171870,-0.00015854,
 0.00008011,0.00024663,0.01179704,-0.00014744,-0.00468274,-0.00118999,-
 0.00093155,-0.00045515,0.00011753,-0.00002803,-0.00015674,-0.00009117,
 0.00033752,0.00020893,-0.00206360,0.00012297,-0.00121377,0.00012255,0.
 00012209,0.00016955,-0.00113932,-0.00014195,0.00003836,0.00033974,0.00
 007061,0.00013104,0.00004585,-0.00012836,0.00016159,0.00003916,-0.0000
 5404,-0.00010973,0.00005995,-0.00001530,-0.00001928,0.00079009,0.00043
 803,0.00056370,-0.25104169,0.01424539,0.14361471,-0.01169733,0.0013331
 6,0.01450417,-0.00314043,-0.00124236,-0.00211832,-0.00007584,-0.000112
 58,-0.00067763,-0.00057333,-0.00015826,-0.00116823,0.25967830,-0.00043
 046,-0.00005969,-0.00049228,-0.00018636,0.00020209,-0.00035092,0.00069
 455,-0.00160671,0.00012508,-0.00010917,-0.00018032,0.00011028,0.000023
 32,-0.00001740,-0.00000697,0.00011838,-0.00069792,0.00094941,0.0002413
 5,0.00002297,-0.00003847,0.00549225,0.00324869,-0.00588811,-0.00023449
 ,0.00032839,-0.00060714,0.00003462,-0.00038555,-0.00000628,0.00015000,
 0.00003362,0.00031012,-0.00062803,0.00030697,-0.00065890,-0.00001811,-
 0.00008808,0.00011299,-0.00014568,-0.00094715,0.00027892,0.00018297,-0
 .00002813,0.00012984,0.00033428,-0.00011604,0.00005413,0.00006467,0.00
 003180,-0.00005472,0.00002046,0.00001913,0.00001524,0.00058254,0.00024
 105,-0.00006501,0.01222534,-0.04652161,-0.01189291,-0.00314154,0.00849
 569,0.00141205,-0.00114130,0.01168443,-0.00261848,0.00033410,-0.000774
 42,0.00026243,-0.00147215,0.00379268,-0.00087112,-0.01355249,0.0317164
 2,-0.00002392,-0.00003456,-0.00021806,-0.00013900,-0.00027762,-0.00024
 583,0.00233942,-0.00014189,-0.00137095,0.00007180,0.00012690,0.0001372
 2,0.00001934,0.00013814,0.00000036,0.00081563,0.00070296,0.00099795,0.
 00000900,-0.00004416,0.00005705,0.02646725,-0.00301062,-0.02109248,-0.
 00190344,-0.00109229,0.00081285,-0.00006559,-0.00004787,0.00021503,0.0
 0019462,0.00027944,0.00005766,0.00101410,-0.00047140,0.00188883,0.0003
 5996,0.00017651,-0.00012597,-0.00052920,-0.00008042,-0.00210703,-0.000
 39749,0.00004024,-0.00038838,-0.00019935,0.00009430,-0.00014420,-0.000
 00615,-0.00001196,-0.00002079,0.00003189,-0.00002140,-0.00003856,0.000
 18530,0.00014663,-0.00037675,0.13538669,-0.01326145,-0.15627253,-0.011
 10615,0.00027820,0.01301223,-0.00196448,-0.00245005,-0.00202104,0.0004
 0911,0.00031563,0.00099617,-0.00583298,-0.00102603,-0.00196822,-0.1453
 7467,0.01846868,0.16885319,0.00000639,-0.00001702,-0.00006532,-0.00008
 048,0.00027620,-0.00003502,0.00122630,-0.00031590,-0.00119412,-0.00013
 089,-0.00019499,-0.00008411,-0.00001088,-0.00000823,0.00000319,-0.0001
 6045,0.00003688,0.00043783,-0.00032757,-0.00007570,-0.00011630,-0.0055
 5899,-0.00103143,-0.00152429,0.00014124,0.00014196,-0.00011033,0.00000
 735,-0.00001483,-0.00001761,-0.00004464,-0.00003358,0.00004890,-0.0001
 5096,0.00000390,-0.00018200,-0.00002501,-0.00001906,0.00001514,0.00024
 333,0.00007423,0.00024588,0.00003851,0.00000596,0.00003775,0.00001444,
 -0.00000732,0.00001253,0.00002365,0.00001062,-0.00001739,-0.00001479,0
 .00002214,0.00004029,-0.00010034,-0.00005343,-0.00001191,-0.00055544,-
 0.00488556,-0.02855334,-0.06185493,-0.01045290,-0.04978239,0.00990174,
 0.00452836,0.02351286,-0.00418633,0.00037896,0.00401131,-0.00256808,-0
 .00007354,0.00032381,0.00087208,0.00033940,0.00010658,0.06107873,-0.00
 001399,0.00002827,-0.00000722,0.00031821,-0.00010703,0.00008529,-0.000
 08477,0.00193775,-0.00065656,0.00011696,0.00008566,0.00012476,-0.00000
 769,-0.00002146,0.00001396,0.00000864,-0.00004356,0.00008789,-0.000436
 66,-0.00006148,-0.00020302,-0.00046470,0.00778939,-0.00090138,0.000041
 89,0.00003449,0.00003068,-0.00000414,0.00001866,-0.00002251,0.00001185
 ,-0.00001248,0.00000542,-0.00005818,0.00001268,-0.00005202,-0.00000159
 ,-0.00000157,-0.00000193,0.00006452,-0.00008704,0.00013575,0.00000154,
 -0.00000045,0.00000559,0.00002409,-0.00001313,0.00000813,-0.00000550,0
 .00000152,-0.00000253,0.00000809,0.00002497,-0.00001405,-0.00007458,0.
 00006025,-0.00000888,0.00031507,-0.00159227,-0.00197259,-0.01066844,-0
 .03703965,-0.05707437,-0.00108395,0.00073963,-0.00125781,0.00018018,0.
 00273038,-0.00056237,0.00005393,-0.00015290,0.00023462,0.00033389,-0.0
 0529183,0.00095259,0.01140131,0.03310984,-0.00001359,0.00000348,-0.000
 02116,-0.00006979,0.00006697,-0.00005037,0.00038345,-0.00029177,-0.000
 01257,-0.00002775,-0.00004280,-0.00000562,0.00000154,0.00000972,-0.000
 00097,-0.00000771,-0.00000554,0.00009394,0.00000644,-0.00003418,0.0000
 5148,-0.00119374,-0.00094070,0.00316069,0.00001270,0.00004280,-0.00001
 385,-0.00000584,-0.00001086,0.00000954,0.00000882,0.00000082,0.0000175
 8,-0.00001696,-0.00002520,-0.00002131,-0.00000348,-0.00000848,0.000003
 15,0.00001069,0.00001535,-0.00000973,-0.00000080,0.00000437,0.00000363
 ,-0.00000249,-0.00000104,0.00000331,0.00000593,0.00000269,-0.00000612,
 0.00000572,0.00000125,0.00000458,0.00000797,-0.00001061,0.00001398,0.0
 0194389,-0.00051918,-0.00489082,-0.05021609,-0.05701506,-0.34110643,-0
 .00959441,-0.00292542,-0.01280938,0.00319632,-0.00061375,-0.00171050,0
 .00182388,0.00013406,0.00010145,-0.00014370,0.00101874,0.00035390,0.05
 455366,0.06047218,0.35498674,-0.00003039,-0.00003399,0.00003365,-0.000
 11112,0.00010706,-0.00004954,0.00032127,0.00009251,0.00139563,0.000068
 89,-0.00001857,-0.00003478,0.00000665,-0.00009615,0.00001083,-0.000337
 06,-0.00001684,0.00001604,-0.00009472,0.00006068,-0.00004342,-0.004177
 19,-0.00136705,-0.00449569,-0.00006614,0.00009927,-0.00008013,0.000003
 35,-0.00001446,0.00000896,0.00007221,0.00004483,-0.00001489,-0.0000439
 9,-0.00001127,-0.00002868,-0.00001862,-0.00002146,0.00001889,0.0000665
 1,0.00001436,-0.00000199,0.00001108,0.00000659,0.00000817,0.00000398,-
 0.00001035,-0.00000592,-0.00003063,-0.00001744,0.00001055,-0.00010751,
 -0.00004481,-0.00002370,-0.00000406,-0.00000761,0.00000930,0.00018324,
 -0.00007406,-0.00080055,-0.00006282,-0.00070865,-0.00282441,0.01646631
 ,0.00001965,-0.00309071,-0.27971323,0.02413411,0.18477948,-0.02113871,
 0.00440018,0.02607871,-0.00009872,0.00003661,0.00006513,0.00059200,-0.
 00005152,-0.00049968,0.28673239,-0.00001398,0.00002125,-0.00003950,-0.
 00004228,0.00005487,0.00012164,0.00032014,0.00096809,0.00011370,0.0000
 4810,-0.00006319,0.00001984,-0.00000358,0.00000826,-0.00000795,-0.0003
 6327,-0.00018067,0.00013959,-0.00003077,-0.00002516,-0.00006078,-0.001
 51202,0.00433240,-0.00138559,0.00003662,0.00013936,-0.00007010,0.00000
 466,0.00001256,0.00001767,-0.00000266,-0.00006254,-0.00000393,-0.00002
 285,-0.00000433,-0.00000761,-0.00001661,-0.00002378,0.00000473,0.00001
 249,-0.00002231,0.00002243,-0.00000129,-0.00000025,0.00000852,0.000007
 54,-0.00000629,-0.00000622,-0.00000954,0.00001536,0.00000870,-0.000007
 26,0.00005603,-0.00000172,-0.00000719,0.00001237,-0.00000337,-0.000089
 22,-0.00079554,-0.00011930,-0.00091490,0.00356698,-0.00158778,0.006452
 24,0.00088634,-0.00284519,0.02569654,-0.02326557,-0.03584844,-0.002637
 37,-0.00021208,0.00550813,0.00002121,-0.00038228,0.00006922,0.00024627
 ,0.00027443,-0.00015751,-0.02722685,0.02232853,0.00006510,0.00005424,-
 0.00000315,0.00004866,0.00013689,0.00010992,0.00022934,-0.00011481,0.0
 0090693,-0.00013968,-0.00010084,-0.00018170,-0.00000302,0.00001630,0.0
 0001114,-0.00063409,-0.00007291,0.00011822,-0.00002826,0.00002023,0.00
 000499,-0.00501736,-0.00118319,-0.00015101,0.00010460,0.00016425,-0.00
 006636,-0.00000301,0.00000235,-0.00002395,-0.00007969,-0.00009355,-0.0
 0000959,-0.00001213,-0.00002551,-0.00002235,-0.00004803,-0.00002680,0.
 00000358,-0.00000949,-0.00000025,0.00004288,-0.00000485,-0.00000522,0.
 00001854,0.00000235,0.00000915,0.00000223,0.00001743,0.00001833,0.0000
 1107,-0.00001313,0.00001488,0.00006747,-0.00000691,-0.00000330,-0.0000
 1106,-0.00107152,-0.00007462,-0.00094043,-0.00369646,-0.00177899,-0.00
 481916,0.02991499,-0.00218461,-0.01663335,0.18997257,-0.03445898,-0.23
 659775,-0.00851108,0.00340861,0.01805127,0.00005726,0.00009544,0.00000
 656,0.00126975,-0.00006510,-0.00051896,-0.20123838,0.03436272,0.238771
 74,0.00064760,0.00047224,-0.00026222,-0.00006665,0.00128333,0.00107385
 ,0.00510084,-0.00073703,-0.00005393,-0.00124502,-0.00103216,-0.0010924
 5,-0.00002781,0.00033177,-0.00003374,-0.00290892,-0.00037132,0.0008293
 4,-0.00076520,-0.00030549,-0.00022531,-0.00346734,-0.00194554,-0.01081
 307,0.00146520,0.00117938,-0.00055187,0.00000569,0.00018323,-0.0001482
 8,-0.00095653,-0.00103507,0.00005280,0.00026875,-0.00013299,0.00004920
 ,-0.00032911,-0.00018258,-0.00004090,-0.00063415,-0.00026484,0.0005777
 3,-0.00014610,-0.00008202,0.00007366,-0.00000589,0.00011686,-0.0000112
 3,0.00026334,0.00023690,0.00000317,0.00021930,0.00032127,0.00044577,-0
 .00012066,0.00003963,-0.00018962,0.00794655,0.00315582,0.01833365,-0.0
 7152708,-0.00519488,-0.00114213,-0.65500375,-0.05157203,-0.11642469,-0
 .03927337,-0.01292644,-0.05556429,0.00715900,0.00112104,0.00388705,-0.
 00032517,-0.00005997,-0.00136351,0.00092028,0.00017060,0.00020033,-0.0
 0305054,-0.00057522,-0.00210411,0.75958095,0.00005828,0.00000975,-0.00
 002187,-0.00001387,0.00002792,0.00006677,0.00050601,-0.00040925,0.0000
 9958,-0.00013985,-0.00003082,-0.00006874,-0.00002411,0.00008028,0.0000
 0473,-0.00026748,0.00005957,0.00024474,0.00004506,-0.00004595,-0.00009
 265,-0.00139696,0.00012930,0.00101378,0.00006845,0.00004832,-0.0000216
 3,0.00000504,0.00000010,-0.00002910,-0.00010317,-0.00003183,0.00002735
 ,-0.00001481,-0.00002676,-0.00003608,-0.00002202,-0.00000850,-0.000002
 44,-0.00001490,0.00006180,0.00006563,0.00000025,-0.00000281,0.00000679
 ,-0.00001105,0.00001626,0.00001117,0.00004099,0.00000905,-0.00000855,0
 .00007022,0.00000287,0.00003794,-0.00001550,-0.00002951,-0.00001129,0.
 00047289,0.00349820,-0.00165164,-0.00119560,0.02250952,0.00003570,-0.0
 5247517,-0.08109473,-0.01553141,-0.01779561,0.01601631,-0.01154998,0.0
 0405763,0.00697815,-0.00206227,0.00026704,-0.00264334,0.00053352,-0.00
 033167,-0.00195029,0.00074440,0.00033444,-0.00381122,0.00169604,0.0692
 4755,0.04240634,-0.00001561,0.00007305,-0.00024110,0.00012147,0.000131
 76,0.00003708,0.00091077,-0.00008274,-0.00003969,-0.00025781,-0.000123
 09,0.00007302,-0.00001685,0.00017917,-0.00003702,-0.00070343,0.0000210
 9,0.00099726,0.00011870,-0.00015536,0.00013901,-0.00698959,0.00129915,
 0.00881386,0.00011385,0.00019103,-0.00012687,-0.00001789,-0.00006532,-
 0.00001667,-0.00015013,-0.00010954,0.00018011,-0.00028867,0.00000109,-
 0.00031335,-0.00003242,-0.00003967,0.00001615,0.00037657,0.00009028,0.
 00021601,0.00005382,-0.00000230,0.00005561,0.00003217,0.00000638,0.000
 04463,0.00010689,0.00004693,-0.00007229,0.00021820,0.00009306,0.000047
 37,-0.00003274,-0.00000993,-0.00004172,0.00218582,-0.00245403,-0.01120
 217,0.02154827,0.00127570,0.02335737,-0.12058515,-0.01573511,-0.128093
 65,-0.08199517,-0.01268147,-0.02751438,0.02262922,-0.00097281,-0.00551
 693,0.00062043,0.00063979,0.00084314,-0.00286103,0.00061085,0.00222581
 ,0.00139356,0.00170444,0.00509258,0.17050672,0.02707102,0.13486846,-0.
 00038793,0.00090102,-0.00082395,0.00085197,-0.00045846,0.00050343,-0.0
 0173188,0.00295005,-0.00333398,-0.00025889,-0.00039879,0.00052257,-0.0
 0079611,0.00068711,0.00014750,-0.00064117,-0.00090123,0.00382242,-0.00
 035632,-0.00073108,0.00331965,0.01936370,0.00714592,0.04113083,0.00078
 404,0.00047173,0.00064203,-0.00000270,-0.00008136,-0.00002231,-0.00055
 442,-0.00060065,0.00033163,-0.00052539,-0.00013758,-0.00045384,-0.0000
 3580,-0.00002923,-0.00005893,0.00034946,0.00004619,0.00048203,0.000021
 65,-0.00002395,0.00016882,0.00004425,0.00005674,0.00008341,0.00030727,
 0.00019710,-0.00011509,0.00104990,0.00073226,0.00048932,-0.00007245,-0
 .00001248,-0.00009397,-0.01099815,-0.00137052,-0.00772149,0.00752944,0
 .00000568,-0.00261466,-0.00418690,0.00332520,0.02223453,-0.01729155,-0
 .01726469,-0.07584119,-0.12452163,-0.02361373,-0.09821119,0.00011170,0
 .00024492,0.00143015,0.00070374,-0.00009506,-0.00036531,0.00455755,0.0
 0063104,0.00093913,-0.00372421,-0.00135209,-0.00698998,0.13041082,-0.0
 0055545,0.00077131,-0.00065180,0.00092848,-0.00278539,0.00095246,-0.00
 252456,-0.00432793,-0.00100552,-0.00037819,0.00107143,0.00059134,-0.00
 078747,0.00135863,-0.00022220,0.00135234,0.00086754,-0.00046697,0.0003
 5783,-0.00036329,-0.00046444,0.00638266,0.01683587,-0.01910355,-0.0008
 1150,-0.00095943,0.00052840,-0.00000067,-0.00011632,0.00000449,-0.0002
 4158,0.00010718,0.00034747,-0.00020129,0.00024586,-0.00030483,0.000138
 21,0.00006110,0.00001556,0.00033105,0.00018060,0.00015375,0.00007686,0
 .00000116,-0.00004873,-0.00001611,0.00003593,0.00015458,0.00027076,0.0
 0001542,-0.00014933,0.00130679,-0.00034959,0.00014575,-0.00001475,-0.0
 0003732,-0.00001225,0.00099189,0.00438941,-0.00054125,0.00030572,-0.00
 109253,-0.00087813,0.00019595,0.00777406,0.00240947,-0.01147935,0.0159
 1791,-0.01819914,-0.02381858,-0.10836960,-0.11677434,-0.00046269,-0.00
 038347,-0.00035124,0.00004898,-0.00047276,0.00008526,0.00037078,-0.003
 82159,0.00018928,-0.00144203,-0.00176873,-0.00100341,0.02967593,0.0752
 1454,-0.00107360,-0.00002608,-0.00080030,0.00077062,-0.00233330,-0.001
 54624,-0.01293736,0.00030264,-0.00762507,0.00075273,0.00122612,0.00330
 419,0.00038989,0.00102420,-0.00083445,0.00242852,0.00040526,0.00121521
 ,0.00388640,-0.00099383,0.00111073,0.02705761,-0.01909606,-0.07768200,
 -0.00103577,-0.00122938,0.00113026,0.00002071,-0.00028593,0.00026272,0
 .00023686,0.00063959,0.00073303,-0.00082528,0.00014881,-0.00075129,0.0
 0041483,0.00020632,0.00000328,0.00120798,0.00037244,0.00026009,0.00020
 122,0.00004768,0.00003357,0.00005270,-0.00005022,0.00014345,0.00029546
 ,0.00003757,-0.00040913,0.00221291,0.00064024,-0.00052363,-0.00004633,
 -0.00006264,0.00002280,0.00737104,-0.00001517,0.00428294,-0.00111167,-
 0.00043393,-0.00381430,0.00383096,0.00064269,0.01073484,-0.04430437,-0
 .01647887,-0.04311880,-0.10183977,-0.11836242,-0.60266602,-0.00168203,
 -0.00043184,-0.00184135,-0.00006430,0.00003465,0.00014801,-0.00059643,
 0.00004364,-0.00324029,-0.00601193,-0.00057150,-0.00379158,0.12039840,
 0.15459933,0.72525934\\-0.00002090,0.00000965,-0.00004125,0.00001361,0
 .00001581,0.00003299,0.00001529,-0.00002970,-0.00003294,-0.00000400,0.
 00000467,-0.00001102,-0.00000034,0.00000033,-0.00000271,0.00000318,0.0
 0000163,0.00001166,0.00000591,-0.00000245,0.00000347,-0.00002638,0.000
 03299,0.00001542,0.00000838,-0.00001195,0.00003441,0.00000170,-0.00000
 436,0.00000882,0.00001062,0.00000730,-0.00001539,-0.00000629,0.0000382
 7,-0.00002279,-0.00000809,-0.00000537,-0.00001028,0.00000097,-0.000017
 32,0.00002181,-0.00000046,-0.00001304,-0.00000373,0.00000371,-0.000007
 57,0.00000315,-0.00000035,-0.00000282,0.00001486,-0.00000877,-0.000003
 00,0.00001140,0.00000829,0.00001177,-0.00000757,0.00000990,-0.00000758
 ,0.00002996,0.00001370,0.00000005,-0.00004162,-0.00002672,-0.00001990,
 0.00003473,0.00001072,0.00002990,0.00002343,-0.00001793,-0.00003004,-0
 .00005703,-0.00001616,-0.00000288,-0.00001432,0.00000311,0.00000275,0.
 00000531,-0.00000064,-0.00000439,-0.00000927,0.00002019,0.00000265,-0.
 00000759,0.00000772,0.00000460,0.00002608\\\@
 The archive entry for this job was punched.


 ALL THINGS ARE POSSIBLE EXCEPT SKIING THROUGH A REVOLVING DOOR.
 Job cpu time:       0 days 10 hours 40 minutes 29.4 seconds.
 Elapsed time:       0 days  0 hours 16 minutes  9.1 seconds.
 File lengths (MBytes):  RWF=    632 Int=      0 D2E=      0 Chk=     21 Scr=      1
 Normal termination of Gaussian 16 at Thu Oct 17 08:04:10 2024.
