 Entering Gaussian System, Link 0=g16
 Input=PseudoUridineAnNsrrgPBE0aVDZ.gjf
 Output=PseudoUridineAnNsrrgPBE0aVDZ.log
 Initial command:
 /sw/contrib/chem-src/g16/c01/g16/l1.exe "/scr/Gau-4387.inp" -scrdir="/scr/"
 Entering Link 1 = /sw/contrib/chem-src/g16/c01/g16/l1.exe PID=      4389.
  
 Copyright (c) 1988-2019, Gaussian, Inc.  All Rights Reserved.
  
 This is part of the Gaussian(R) 16 program.  It is based on
 the Gaussian(R) 09 system (copyright 2009, Gaussian, Inc.),
 the Gaussian(R) 03 system (copyright 2003, Gaussian, Inc.),
 the Gaussian(R) 98 system (copyright 1998, Gaussian, Inc.),
 the Gaussian(R) 94 system (copyright 1995, Gaussian, Inc.),
 the Gaussian 92(TM) system (copyright 1992, Gaussian, Inc.),
 the Gaussian 90(TM) system (copyright 1990, Gaussian, Inc.),
 the Gaussian 88(TM) system (copyright 1988, Gaussian, Inc.),
 the Gaussian 86(TM) system (copyright 1986, Carnegie Mellon
 University), and the Gaussian 82(TM) system (copyright 1983,
 Carnegie Mellon University). Gaussian is a federally registered
 trademark of Gaussian, Inc.
  
 This software contains proprietary and confidential information,
 including trade secrets, belonging to Gaussian, Inc.
  
 This software is provided under written license and may be
 used, copied, transmitted, or stored only in accord with that
 written license.
  
 The following legend is applicable only to US Government
 contracts under FAR:
  
                    RESTRICTED RIGHTS LEGEND
  
 Use, reproduction and disclosure by the US Government is
 subject to restrictions as set forth in subparagraphs (a)
 and (c) of the Commercial Computer Software - Restricted
 Rights clause in FAR 52.227-19.
  
 Gaussian, Inc.
 340 Quinnipiac St., Bldg. 40, Wallingford CT 06492
  
  
 ---------------------------------------------------------------
 Warning -- This program may not be used in any manner that
 competes with the business of Gaussian, Inc. or will provide
 assistance to any competitor of Gaussian, Inc.  The licensee
 of this program is prohibited from giving any competitor of
 Gaussian, Inc. access to this program.  By using this program,
 the user acknowledges that Gaussian, Inc. is engaged in the
 business of creating and licensing software in the field of
 computational chemistry and represents and warrants to the
 licensee that it is not a competitor of Gaussian, Inc. and that
 it will not use this program in any manner prohibited above.
 ---------------------------------------------------------------
  

 Cite this work as:
 Gaussian 16, Revision C.01,
 M. J. Frisch, G. W. Trucks, H. B. Schlegel, G. E. Scuseria, 
 M. A. Robb, J. R. Cheeseman, G. Scalmani, V. Barone, 
 G. A. Petersson, H. Nakatsuji, X. Li, M. Caricato, A. V. Marenich, 
 J. Bloino, B. G. Janesko, R. Gomperts, B. Mennucci, H. P. Hratchian, 
 J. V. Ortiz, A. F. Izmaylov, J. L. Sonnenberg, D. Williams-Young, 
 F. Ding, F. Lipparini, F. Egidi, J. Goings, B. Peng, A. Petrone, 
 T. Henderson, D. Ranasinghe, V. G. Zakrzewski, J. Gao, N. Rega, 
 G. Zheng, W. Liang, M. Hada, M. Ehara, K. Toyota, R. Fukuda, 
 J. Hasegawa, M. Ishida, T. Nakajima, Y. Honda, O. Kitao, H. Nakai, 
 T. Vreven, K. Throssell, J. A. Montgomery, Jr., J. E. Peralta, 
 F. Ogliaro, M. J. Bearpark, J. J. Heyd, E. N. Brothers, K. N. Kudin, 
 V. N. Staroverov, T. A. Keith, R. Kobayashi, J. Normand, 
 K. Raghavachari, A. P. Rendell, J. C. Burant, S. S. Iyengar, 
 J. Tomasi, M. Cossi, J. M. Millam, M. Klene, C. Adamo, R. Cammi, 
 J. W. Ochterski, R. L. Martin, K. Morokuma, O. Farkas, 
 J. B. Foresman, and D. J. Fox, Gaussian, Inc., Wallingford CT, 2019.
 
 ******************************************
 Gaussian 16:  EM64L-G16RevC.01  3-Jul-2019
                27-Oct-2024 
 ******************************************
 %nprocshared=40
 Will use up to   40 processors via shared memory.
 %mem=50gb
 ------------------------------------------------------
 # PBE1PBE/aug-cc-pVDZ opt freq EmpiricalDispersion=GD3
 ------------------------------------------------------
 1/18=20,19=15,26=3,38=1/1,3;
 2/9=110,12=2,17=6,18=5,40=1/2;
 3/5=16,7=10,11=2,25=1,30=1,71=1,74=-13,124=31/1,2,3;
 4//1;
 5/5=2,38=5/2;
 6/7=2,8=2,9=2,10=2,28=1/1;
 7//1,2,3,16;
 1/18=20,19=15,26=3/3(2);
 2/9=110/2;
 99//99;
 2/9=110/2;
 3/5=16,7=10,11=2,25=1,30=1,71=1,74=-13,124=31/1,2,3;
 4/5=5,16=3,69=1/1;
 5/5=2,38=5/2;
 7//1,2,3,16;
 1/18=20,19=15,26=3/3(-5);
 2/9=110/2;
 6/7=2,8=2,9=2,10=2,19=2,28=1/1;
 99/9=1/99;
 ----
 blah
 ----
 Symbolic Z-matrix:
 Charge = -1 Multiplicity = 1
 C                    -2.09981  -0.19003   0.85461 
 C                    -1.21976  -1.37513   0.43824 
 C                    -0.46373  -0.78406  -0.7583 
 O                    -2.02742  -2.44173  -0.00086 
 H                    -0.52763  -1.70429   1.23003 
 O                    -1.29114   0.27101  -1.27392 
 H                    -0.34289  -1.56716  -1.51829 
 C                     0.89093  -0.25416  -0.3792 
 C                    -2.48125   0.37853  -0.50427 
 H                    -1.51705   0.55316   1.41959 
 O                    -3.26437  -0.58031   1.55855 
 C                    -2.95066   1.82006  -0.50867 
 H                    -3.28088  -0.25567  -0.92602 
 O                    -1.91672   2.73176  -0.17705 
 H                    -3.74149   1.93269   0.24476 
 H                    -3.3835    2.06577  -1.49135 
 H                    -3.06716  -0.61288   2.49873 
 H                    -2.81393  -2.44544   0.5611 
 H                    -1.322     2.74307  -0.93388 
 C                     1.11496   1.02595  -0.009 
 N                     2.35788   1.47759   0.34876 
 C                     3.4885    0.68161   0.36851 
 N                     3.23638  -0.62128  -0.00291 
 C                     2.01266  -1.18802  -0.37433 
 H                     0.3099    1.75728   0.02999 
 H                     2.50667   2.44037   0.61312 
 O                     4.58588   1.098     0.68511 
 O                     1.94288  -2.37206  -0.65665 
 

 GradGradGradGradGradGradGradGradGradGradGradGradGradGradGradGradGradGrad
 Berny optimization.
 Initialization pass.
                           ----------------------------
                           !    Initial Parameters    !
                           ! (Angstroms and Degrees)  !
 --------------------------                            --------------------------
 ! Name  Definition              Value          Derivative Info.                !
 --------------------------------------------------------------------------------
 ! R1    R(1,2)                  1.5337         estimate D2E/DX2                !
 ! R2    R(1,9)                  1.5216         estimate D2E/DX2                !
 ! R3    R(1,10)                 1.1005         estimate D2E/DX2                !
 ! R4    R(1,11)                 1.4156         estimate D2E/DX2                !
 ! R5    R(2,3)                  1.5338         estimate D2E/DX2                !
 ! R6    R(2,4)                  1.4081         estimate D2E/DX2                !
 ! R7    R(2,5)                  1.102          estimate D2E/DX2                !
 ! R8    R(3,6)                  1.4365         estimate D2E/DX2                !
 ! R9    R(3,7)                  1.0979         estimate D2E/DX2                !
 ! R10   R(3,8)                  1.5032         estimate D2E/DX2                !
 ! R11   R(4,18)                 0.9667         estimate D2E/DX2                !
 ! R12   R(6,9)                  1.4214         estimate D2E/DX2                !
 ! R13   R(8,20)                 1.3513         estimate D2E/DX2                !
 ! R14   R(8,24)                 1.4596         estimate D2E/DX2                !
 ! R15   R(9,12)                 1.516          estimate D2E/DX2                !
 ! R16   R(9,13)                 1.1043         estimate D2E/DX2                !
 ! R17   R(11,17)                0.9612         estimate D2E/DX2                !
 ! R18   R(12,14)                1.4178         estimate D2E/DX2                !
 ! R19   R(12,15)                1.0981         estimate D2E/DX2                !
 ! R20   R(12,16)                1.1015         estimate D2E/DX2                !
 ! R21   R(14,19)                0.9626         estimate D2E/DX2                !
 ! R22   R(20,21)                1.37           estimate D2E/DX2                !
 ! R23   R(20,25)                1.0883         estimate D2E/DX2                !
 ! R24   R(21,22)                1.3829         estimate D2E/DX2                !
 ! R25   R(21,26)                1.0094         estimate D2E/DX2                !
 ! R26   R(22,23)                1.378          estimate D2E/DX2                !
 ! R27   R(22,27)                1.2157         estimate D2E/DX2                !
 ! R28   R(23,24)                1.3988         estimate D2E/DX2                !
 ! R29   R(24,28)                1.2192         estimate D2E/DX2                !
 ! A1    A(2,1,9)              100.9595         estimate D2E/DX2                !
 ! A2    A(2,1,10)             110.9362         estimate D2E/DX2                !
 ! A3    A(2,1,11)             113.2035         estimate D2E/DX2                !
 ! A4    A(9,1,10)             109.8089         estimate D2E/DX2                !
 ! A5    A(9,1,11)             109.9298         estimate D2E/DX2                !
 ! A6    A(10,1,11)            111.5007         estimate D2E/DX2                !
 ! A7    A(1,2,3)              101.3524         estimate D2E/DX2                !
 ! A8    A(1,2,4)              109.9274         estimate D2E/DX2                !
 ! A9    A(1,2,5)              113.3368         estimate D2E/DX2                !
 ! A10   A(3,2,4)              109.3506         estimate D2E/DX2                !
 ! A11   A(3,2,5)              111.472          estimate D2E/DX2                !
 ! A12   A(4,2,5)              110.9814         estimate D2E/DX2                !
 ! A13   A(2,3,6)              106.2084         estimate D2E/DX2                !
 ! A14   A(2,3,7)              108.6254         estimate D2E/DX2                !
 ! A15   A(2,3,8)              112.5379         estimate D2E/DX2                !
 ! A16   A(6,3,7)              109.8032         estimate D2E/DX2                !
 ! A17   A(6,3,8)              110.5288         estimate D2E/DX2                !
 ! A18   A(7,3,8)              109.0758         estimate D2E/DX2                !
 ! A19   A(2,4,18)             106.7567         estimate D2E/DX2                !
 ! A20   A(3,6,9)              110.0881         estimate D2E/DX2                !
 ! A21   A(3,8,20)             123.5355         estimate D2E/DX2                !
 ! A22   A(3,8,24)             117.8968         estimate D2E/DX2                !
 ! A23   A(20,8,24)            118.5412         estimate D2E/DX2                !
 ! A24   A(1,9,6)              104.2064         estimate D2E/DX2                !
 ! A25   A(1,9,12)             115.8171         estimate D2E/DX2                !
 ! A26   A(1,9,13)             107.9389         estimate D2E/DX2                !
 ! A27   A(6,9,12)             109.2451         estimate D2E/DX2                !
 ! A28   A(6,9,13)             110.8574         estimate D2E/DX2                !
 ! A29   A(12,9,13)            108.7089         estimate D2E/DX2                !
 ! A30   A(1,11,17)            109.0835         estimate D2E/DX2                !
 ! A31   A(9,12,14)            112.6405         estimate D2E/DX2                !
 ! A32   A(9,12,15)            108.5743         estimate D2E/DX2                !
 ! A33   A(9,12,16)            109.6544         estimate D2E/DX2                !
 ! A34   A(14,12,15)           107.3838         estimate D2E/DX2                !
 ! A35   A(14,12,16)           110.5959         estimate D2E/DX2                !
 ! A36   A(15,12,16)           107.8325         estimate D2E/DX2                !
 ! A37   A(12,14,19)           105.9148         estimate D2E/DX2                !
 ! A38   A(8,20,21)            122.295          estimate D2E/DX2                !
 ! A39   A(8,20,25)            121.5847         estimate D2E/DX2                !
 ! A40   A(21,20,25)           116.1181         estimate D2E/DX2                !
 ! A41   A(20,21,22)           123.7614         estimate D2E/DX2                !
 ! A42   A(20,21,26)           121.1018         estimate D2E/DX2                !
 ! A43   A(22,21,26)           115.1348         estimate D2E/DX2                !
 ! A44   A(21,22,23)           113.0035         estimate D2E/DX2                !
 ! A45   A(21,22,27)           122.9972         estimate D2E/DX2                !
 ! A46   A(23,22,27)           123.9991         estimate D2E/DX2                !
 ! A47   A(22,23,24)           127.9289         estimate D2E/DX2                !
 ! A48   A(8,24,23)            114.4556         estimate D2E/DX2                !
 ! A49   A(8,24,28)            125.2108         estimate D2E/DX2                !
 ! A50   A(23,24,28)           120.3331         estimate D2E/DX2                !
 ! D1    D(9,1,2,3)             38.3834         estimate D2E/DX2                !
 ! D2    D(9,1,2,4)            -77.2284         estimate D2E/DX2                !
 ! D3    D(9,1,2,5)            157.9368         estimate D2E/DX2                !
 ! D4    D(10,1,2,3)           -77.9547         estimate D2E/DX2                !
 ! D5    D(10,1,2,4)           166.4335         estimate D2E/DX2                !
 ! D6    D(10,1,2,5)            41.5987         estimate D2E/DX2                !
 ! D7    D(11,1,2,3)           155.8201         estimate D2E/DX2                !
 ! D8    D(11,1,2,4)            40.2084         estimate D2E/DX2                !
 ! D9    D(11,1,2,5)           -84.6265         estimate D2E/DX2                !
 ! D10   D(2,1,9,6)            -39.673          estimate D2E/DX2                !
 ! D11   D(2,1,9,12)          -159.685          estimate D2E/DX2                !
 ! D12   D(2,1,9,13)            78.2315         estimate D2E/DX2                !
 ! D13   D(10,1,9,6)            77.4955         estimate D2E/DX2                !
 ! D14   D(10,1,9,12)          -42.5165         estimate D2E/DX2                !
 ! D15   D(10,1,9,13)         -164.6            estimate D2E/DX2                !
 ! D16   D(11,1,9,6)          -159.4811         estimate D2E/DX2                !
 ! D17   D(11,1,9,12)           80.5069         estimate D2E/DX2                !
 ! D18   D(11,1,9,13)          -41.5766         estimate D2E/DX2                !
 ! D19   D(2,1,11,17)           89.5266         estimate D2E/DX2                !
 ! D20   D(9,1,11,17)         -158.421          estimate D2E/DX2                !
 ! D21   D(10,1,11,17)         -36.3978         estimate D2E/DX2                !
 ! D22   D(1,2,3,6)            -24.6749         estimate D2E/DX2                !
 ! D23   D(1,2,3,7)           -142.7276         estimate D2E/DX2                !
 ! D24   D(1,2,3,8)             96.391          estimate D2E/DX2                !
 ! D25   D(4,2,3,6)             91.3623         estimate D2E/DX2                !
 ! D26   D(4,2,3,7)            -26.6904         estimate D2E/DX2                !
 ! D27   D(4,2,3,8)           -147.5719         estimate D2E/DX2                !
 ! D28   D(5,2,3,6)           -145.5485         estimate D2E/DX2                !
 ! D29   D(5,2,3,7)             96.3988         estimate D2E/DX2                !
 ! D30   D(5,2,3,8)            -24.4827         estimate D2E/DX2                !
 ! D31   D(1,2,4,18)           -36.888          estimate D2E/DX2                !
 ! D32   D(3,2,4,18)          -147.3285         estimate D2E/DX2                !
 ! D33   D(5,2,4,18)            89.2915         estimate D2E/DX2                !
 ! D34   D(2,3,6,9)             -0.021          estimate D2E/DX2                !
 ! D35   D(7,3,6,9)            117.2485         estimate D2E/DX2                !
 ! D36   D(8,3,6,9)           -122.3701         estimate D2E/DX2                !
 ! D37   D(2,3,8,20)           -91.5865         estimate D2E/DX2                !
 ! D38   D(2,3,8,24)            86.51           estimate D2E/DX2                !
 ! D39   D(6,3,8,20)            26.975          estimate D2E/DX2                !
 ! D40   D(6,3,8,24)          -154.9285         estimate D2E/DX2                !
 ! D41   D(7,3,8,20)           147.7905         estimate D2E/DX2                !
 ! D42   D(7,3,8,24)           -34.113          estimate D2E/DX2                !
 ! D43   D(3,6,9,1)             25.2207         estimate D2E/DX2                !
 ! D44   D(3,6,9,12)           149.5682         estimate D2E/DX2                !
 ! D45   D(3,6,9,13)           -90.6572         estimate D2E/DX2                !
 ! D46   D(3,8,20,21)          179.1104         estimate D2E/DX2                !
 ! D47   D(3,8,20,25)           -0.324          estimate D2E/DX2                !
 ! D48   D(24,8,20,21)           1.0254         estimate D2E/DX2                !
 ! D49   D(24,8,20,25)        -178.409          estimate D2E/DX2                !
 ! D50   D(3,8,24,23)         -179.6061         estimate D2E/DX2                !
 ! D51   D(3,8,24,28)            0.1301         estimate D2E/DX2                !
 ! D52   D(20,8,24,23)          -1.4122         estimate D2E/DX2                !
 ! D53   D(20,8,24,28)         178.324          estimate D2E/DX2                !
 ! D54   D(1,9,12,14)           67.4161         estimate D2E/DX2                !
 ! D55   D(1,9,12,15)          -51.378          estimate D2E/DX2                !
 ! D56   D(1,9,12,16)         -168.9632         estimate D2E/DX2                !
 ! D57   D(6,9,12,14)          -49.8203         estimate D2E/DX2                !
 ! D58   D(6,9,12,15)         -168.6144         estimate D2E/DX2                !
 ! D59   D(6,9,12,16)           73.8004         estimate D2E/DX2                !
 ! D60   D(13,9,12,14)        -170.9105         estimate D2E/DX2                !
 ! D61   D(13,9,12,15)          70.2954         estimate D2E/DX2                !
 ! D62   D(13,9,12,16)         -47.2898         estimate D2E/DX2                !
 ! D63   D(9,12,14,19)          71.3792         estimate D2E/DX2                !
 ! D64   D(15,12,14,19)       -169.1337         estimate D2E/DX2                !
 ! D65   D(16,12,14,19)        -51.7174         estimate D2E/DX2                !
 ! D66   D(8,20,21,22)          -0.0986         estimate D2E/DX2                !
 ! D67   D(8,20,21,26)         179.3547         estimate D2E/DX2                !
 ! D68   D(25,20,21,22)        179.3648         estimate D2E/DX2                !
 ! D69   D(25,20,21,26)         -1.1819         estimate D2E/DX2                !
 ! D70   D(20,21,22,23)         -0.3431         estimate D2E/DX2                !
 ! D71   D(20,21,22,27)        179.7998         estimate D2E/DX2                !
 ! D72   D(26,21,22,23)       -179.8261         estimate D2E/DX2                !
 ! D73   D(26,21,22,27)          0.3169         estimate D2E/DX2                !
 ! D74   D(21,22,23,24)         -0.2009         estimate D2E/DX2                !
 ! D75   D(27,22,23,24)        179.6545         estimate D2E/DX2                !
 ! D76   D(22,23,24,8)           1.0603         estimate D2E/DX2                !
 ! D77   D(22,23,24,28)       -178.69           estimate D2E/DX2                !
 --------------------------------------------------------------------------------
 Trust Radius=3.00D-01 FncErr=1.00D-07 GrdErr=1.00D-06 EigMax=2.50D+02 EigMin=1.00D-04
 Number of steps in this run=    166 maximum allowed number of steps=    168.
 GradGradGradGradGradGradGradGradGradGradGradGradGradGradGradGradGradGrad

                          Input orientation:                          
 ---------------------------------------------------------------------
 Center     Atomic      Atomic             Coordinates (Angstroms)
 Number     Number       Type             X           Y           Z
 ---------------------------------------------------------------------
      1          6           0       -2.099808   -0.190031    0.854614
      2          6           0       -1.219755   -1.375131    0.438238
      3          6           0       -0.463734   -0.784059   -0.758302
      4          8           0       -2.027417   -2.441732   -0.000863
      5          1           0       -0.527628   -1.704288    1.230025
      6          8           0       -1.291144    0.271006   -1.273921
      7          1           0       -0.342894   -1.567162   -1.518292
      8          6           0        0.890932   -0.254159   -0.379197
      9          6           0       -2.481251    0.378527   -0.504269
     10          1           0       -1.517047    0.553155    1.419591
     11          8           0       -3.264366   -0.580313    1.558552
     12          6           0       -2.950664    1.820061   -0.508667
     13          1           0       -3.280880   -0.255672   -0.926021
     14          8           0       -1.916716    2.731760   -0.177048
     15          1           0       -3.741490    1.932688    0.244755
     16          1           0       -3.383498    2.065766   -1.491354
     17          1           0       -3.067157   -0.612877    2.498729
     18          1           0       -2.813930   -2.445440    0.561103
     19          1           0       -1.321999    2.743067   -0.933875
     20          6           0        1.114964    1.025949   -0.009004
     21          7           0        2.357878    1.477593    0.348764
     22          6           0        3.488495    0.681606    0.368508
     23          7           0        3.236381   -0.621277   -0.002912
     24          6           0        2.012661   -1.188023   -0.374328
     25          1           0        0.309901    1.757281    0.029993
     26          1           0        2.506673    2.440368    0.613119
     27          8           0        4.585876    1.098002    0.685112
     28          8           0        1.942880   -2.372059   -0.656653
 ---------------------------------------------------------------------
                    Distance matrix (angstroms):
                    1          2          3          4          5
     1  C    0.000000
     2  C    1.533729   0.000000
     3  C    2.372995   1.533832   0.000000
     4  O    2.409821   1.408107   2.401395   0.000000
     5  H    2.214872   1.101958   2.191882   2.075639   0.000000
     6  O    2.323178   2.376205   1.436535   3.085729   3.279404
     7  H    3.257901   2.152620   1.097924   2.430037   2.757930
     8  C    3.235881   2.525822   1.503208   3.666793   2.589359
     9  C    1.521618   2.356906   2.342331   2.900559   3.341038
    10  H    1.100516   2.183970   2.764205   3.353732   2.472030
    11  O    1.415643   2.463184   3.640448   2.725197   2.976741
    12  C    2.573511   3.755253   3.609512   4.390117   4.616838
    13  H    2.137733   2.713416   2.871173   2.684389   3.785158
    14  O    3.103983   4.210806   3.848376   5.177675   4.856742
    15  H    2.751905   4.163922   4.373845   4.704671   4.952500
    16  H    3.498578   4.499431   4.145346   4.937414   5.456666
    17  H    1.953888   2.870461   4.173172   3.267067   3.041381
    18  H    2.383902   1.924071   3.166139   0.966655   2.494783
    19  H    3.522321   4.341970   3.634290   5.315098   5.009237
    20  C    3.543897   3.378775   2.515922   4.679683   3.418698
    21  N    4.786211   4.576625   3.781820   5.891872   4.384875
    22  C    5.676723   5.138351   4.363254   6.349564   4.750152
    23  N    5.421830   4.540931   3.779942   5.569706   4.106192
    24  C    4.406664   3.338231   2.538337   4.246586   3.048532
    25  H    3.206044   3.509774   2.770980   4.805800   3.758190
    26  H    5.310083   5.336186   4.593587   6.691027   5.173561
    27  O    6.810736   6.315274   5.578903   7.532325   5.856422
    28  O    4.836166   3.492121   2.885111   4.024695   3.179447
                    6          7          8          9         10
     6  O    0.000000
     7  H    2.082728   0.000000
     8  C    2.416151   2.131629   0.000000
     9  C    1.421365   3.063743   3.433301   0.000000
    10  H    2.717655   3.808613   3.112195   2.159033   0.000000
    11  O    3.555454   4.356127   4.596493   2.405800   2.087387
    12  C    2.395661   4.392390   4.367724   1.516044   2.716337
    13  H    2.087456   3.271476   4.207497   1.104305   3.044208
    14  O    2.765824   4.770386   4.103592   2.442024   2.730442
    15  H    3.327425   5.187267   5.160518   2.136505   2.869059
    16  H    2.765210   4.737527   4.988958   2.152943   3.774286
    17  H    4.262436   4.946587   4.906894   3.216235   2.219687
    18  H    3.614591   3.346831   4.405891   3.036525   3.377940
    19  H    2.495530   4.458505   3.766709   2.668235   3.220646
    20  C    2.821225   3.335794   1.351262   3.687439   3.031815
    21  N    4.171849   4.477790   2.383448   5.035155   4.125082
    22  C    5.070613   4.826646   2.860429   6.040816   5.116320
    23  N    4.786451   4.000286   2.403642   5.826001   5.098812
    24  C    3.721983   2.645948   1.459590   4.760904   4.325354
    25  H    2.544121   3.724950   2.133290   3.158628   2.592034
    26  H    4.763451   5.359407   3.294812   5.511727   4.516890
    27  O    6.249888   6.020869   4.075991   7.202538   6.171060
    28  O    4.222052   2.571973   2.380982   5.211706   4.983850
                   11         12         13         14         15
    11  O    0.000000
    12  C    3.183331   0.000000
    13  H    2.505747   2.142871   0.000000
    14  O    3.974707   1.417820   3.368479   0.000000
    15  H    2.875567   1.098060   2.524242   2.036230   0.000000
    16  H    4.039536   1.101540   2.391486   2.079038   1.777623
    17  H    0.961189   3.870037   3.449954   4.435075   3.466270
    18  H    2.162521   4.399728   2.687874   5.305965   4.486474
    19  H    4.585830   1.919711   3.581859   0.962602   2.810662
    20  C    4.920959   4.172482   4.669788   3.482688   4.946889
    21  N    6.108043   5.388236   6.035302   4.485707   6.117207
    22  C    6.972071   6.597597   6.955482   5.806640   7.338474
    23  N    6.685773   6.670491   6.592457   6.150414   7.434700
    24  C    5.652641   5.805274   5.403260   5.553703   6.575132
    25  H    4.536102   3.305356   4.226068   2.439323   4.060869
    26  H    6.582040   5.605864   6.567599   4.502848   6.279568
    27  O    8.075019   7.664588   8.143343   6.759896   8.380671
    28  O    5.935731   6.445350   5.642634   6.416812   7.187172
                   16         17         18         19         20
    16  H    0.000000
    17  H    4.816219   0.000000
    18  H    4.988784   2.678956   0.000000
    19  H    2.240379   5.107906   5.601912   0.000000
    20  C    4.849200   5.144377   5.273687   3.121325   0.000000
    21  N    6.057671   6.198663   6.494834   4.097326   1.369969
    22  C    7.252536   7.013565   7.038187   5.393206   2.427908
    23  N    7.297839   6.781804   6.344442   5.741457   2.685852
    24  C    6.399486   5.864282   5.074654   5.185221   2.416815
    25  H    4.006352   4.807996   5.263389   2.136332   1.088344
    26  H    6.266039   6.629134   7.223755   4.140477   2.079537
    27  O    8.317722   8.048927   8.205394   6.342740   3.540370
    28  O    6.982931   6.176700   4.910759   6.074603   3.556874
                   21         22         23         24         25
    21  N    0.000000
    22  C    1.382852   0.000000
    23  N    2.302325   1.378049   0.000000
    24  C    2.783441   2.495076   1.398800   0.000000
    25  H    2.091423   3.372704   3.771327   3.426030   0.000000
    26  H    1.009435   2.029052   3.207123   3.792667   2.373279
    27  O    2.284993   1.215676   2.291383   3.601355   4.375819
    28  O    4.000363   3.572779   2.272831   1.219228   4.493279
                   26         27         28
    26  H    0.000000
    27  O    2.475927   0.000000
    28  O    5.008956   4.563670   0.000000
 Stoichiometry    C9H11N2O6(1-)
 Framework group  C1[X(C9H11N2O6)]
 Deg. of freedom    78
 Full point group                 C1      NOp   1
 Largest Abelian subgroup         C1      NOp   1
 Largest concise Abelian subgroup C1      NOp   1
                         Standard orientation:                         
 ---------------------------------------------------------------------
 Center     Atomic      Atomic             Coordinates (Angstroms)
 Number     Number       Type             X           Y           Z
 ---------------------------------------------------------------------
      1          6           0       -2.069951   -0.178783    0.854648
      2          6           0       -1.201992   -1.372769    0.438272
      3          6           0       -0.440001   -0.789413   -0.758268
      4          8           0       -2.020455   -2.431104   -0.000829
      5          1           0       -0.513247   -1.708945    1.230059
      6          8           0       -1.256642    0.274009   -1.273887
      7          1           0       -0.327128   -1.573704   -1.518258
      8          6           0        0.919982   -0.273312   -0.379163
      9          6           0       -2.445595    0.393623   -0.504235
     10          1           0       -1.479665    0.558440    1.419625
     11          8           0       -3.238417   -0.557206    1.558586
     12          6           0       -2.900329    1.839855   -0.508633
     13          1           0       -3.251630   -0.232414   -0.925987
     14          8           0       -1.857166    2.740995   -0.177014
     15          1           0       -3.689969    1.960515    0.244789
     16          1           0       -3.330643    2.089947   -1.491320
     17          1           0       -3.041549   -0.591773    2.498763
     18          1           0       -2.806965   -2.426816    0.561137
     19          1           0       -1.262365    2.746256   -0.933841
     20          6           0        1.157016    1.004452   -0.008970
     21          7           0        2.404457    1.443438    0.348798
     22          6           0        3.526924    0.635998    0.368542
     23          7           0        3.261578   -0.664255   -0.002878
     24          6           0        2.032159   -1.218531   -0.374294
     25          1           0        0.359429    1.743931    0.030027
     26          1           0        2.563032    2.404650    0.613153
     27          8           0        4.628481    1.041216    0.685146
     28          8           0        1.950345   -2.401797   -0.656619
 ---------------------------------------------------------------------
 Rotational constants (GHZ):           0.7912453           0.3147299           0.2540051
 Standard basis: Aug-CC-pVDZ (5D, 7F)
 There are   524 symmetry adapted cartesian basis functions of A   symmetry.
 There are   490 symmetry adapted basis functions of A   symmetry.
   490 basis functions,   852 primitive gaussians,   524 cartesian basis functions
    64 alpha electrons       64 beta electrons
       nuclear repulsion energy      1292.3692758803 Hartrees.
 NAtoms=   28 NActive=   28 NUniq=   28 SFac= 1.00D+00 NAtFMM=   60 NAOKFM=F Big=F
 Integral buffers will be    131072 words long.
 Raffenetti 2 integral format.
 Two-electron integral symmetry is turned on.
 Nuclear repulsion after empirical dispersion term =     1292.3497085853 Hartrees.
 One-electron integrals computed using PRISM.
 NBasis=   490 RedAO= T EigKep=  2.97D-06  NBF=   490
 NBsUse=   490 1.00D-06 EigRej= -1.00D+00 NBFU=   490
 ExpMin= 2.97D-02 ExpMax= 1.17D+04 ExpMxC= 4.01D+02 IAcc=3 IRadAn=         5 AccDes= 0.00D+00
 Harris functional with IExCor= 1009 and IRadAn=       5 diagonalized for initial guess.
 HarFok:  IExCor= 1009 AccDes= 0.00D+00 IRadAn=         5 IDoV= 1 UseB2=F ITyADJ=14
 ICtDFT=  3500011 ScaDFX=  1.000000  1.000000  1.000000  1.000000
 FoFCou: FMM=F IPFlag=           0 FMFlag=      100000 FMFlg1=           0
         NFxFlg=           0 DoJE=T BraDBF=F KetDBF=T FulRan=T
         wScrn=  0.000000 ICntrl=       500 IOpCl=  0 I1Cent=   200000004 NGrid=           0
         NMat0=    1 NMatS0=      1 NMatT0=    0 NMatD0=    1 NMtDS0=    0 NMtDT0=    0
 Petite list used in FoFCou.
 Requested convergence on RMS density matrix=1.00D-08 within 128 cycles.
 Requested convergence on MAX density matrix=1.00D-06.
 Requested convergence on             energy=1.00D-06.
 No special actions if energy rises.
 EnCoef did     3 forward-backward iterations
 SCF Done:  E(RPBE1PBE) =  -909.652389488     A.U. after   16 cycles
            NFock= 16  Conv=0.10D-07     -V/T= 2.0052

 **********************************************************************

            Population analysis using the SCF Density.

 **********************************************************************

 Orbital symmetries:
       Occupied  (A) (A) (A) (A) (A) (A) (A) (A) (A) (A) (A) (A)
                 (A) (A) (A) (A) (A) (A) (A) (A) (A) (A) (A) (A)
                 (A) (A) (A) (A) (A) (A) (A) (A) (A) (A) (A) (A)
                 (A) (A) (A) (A) (A) (A) (A) (A) (A) (A) (A) (A)
                 (A) (A) (A) (A) (A) (A) (A) (A) (A) (A) (A) (A)
                 (A) (A) (A) (A)
       Virtual   (A) (A) (A) (A) (A) (A) (A) (A) (A) (A) (A) (A)
                 (A) (A) (A) (A) (A) (A) (A) (A) (A) (A) (A) (A)
                 (A) (A) (A) (A) (A) (A) (A) (A) (A) (A) (A) (A)
                 (A) (A) (A) (A) (A) (A) (A) (A) (A) (A) (A) (A)
                 (A) (A) (A) (A) (A) (A) (A) (A) (A) (A) (A) (A)
                 (A) (A) (A) (A) (A) (A) (A) (A) (A) (A) (A) (A)
                 (A) (A) (A) (A) (A) (A) (A) (A) (A) (A) (A) (A)
                 (A) (A) (A) (A) (A) (A) (A) (A) (A) (A) (A) (A)
                 (A) (A) (A) (A) (A) (A) (A) (A) (A) (A) (A) (A)
                 (A) (A) (A) (A) (A) (A) (A) (A) (A) (A) (A) (A)
                 (A) (A) (A) (A) (A) (A) (A) (A) (A) (A) (A) (A)
                 (A) (A) (A) (A) (A) (A) (A) (A) (A) (A) (A) (A)
                 (A) (A) (A) (A) (A) (A) (A) (A) (A) (A) (A) (A)
                 (A) (A) (A) (A) (A) (A) (A) (A) (A) (A) (A) (A)
                 (A) (A) (A) (A) (A) (A) (A) (A) (A) (A) (A) (A)
                 (A) (A) (A) (A) (A) (A) (A) (A) (A) (A) (A) (A)
                 (A) (A) (A) (A) (A) (A) (A) (A) (A) (A) (A) (A)
                 (A) (A) (A) (A) (A) (A) (A) (A) (A) (A) (A) (A)
                 (A) (A) (A) (A) (A) (A) (A) (A) (A) (A) (A) (A)
                 (A) (A) (A) (A) (A) (A) (A) (A) (A) (A) (A) (A)
                 (A) (A) (A) (A) (A) (A) (A) (A) (A) (A) (A) (A)
                 (A) (A) (A) (A) (A) (A) (A) (A) (A) (A) (A) (A)
                 (A) (A) (A) (A) (A) (A) (A) (A) (A) (A) (A) (A)
                 (A) (A) (A) (A) (A) (A) (A) (A) (A) (A) (A) (A)
                 (A) (A) (A) (A) (A) (A) (A) (A) (A) (A) (A) (A)
                 (A) (A) (A) (A) (A) (A) (A) (A) (A) (A) (A) (A)
                 (A) (A) (A) (A) (A) (A) (A) (A) (A) (A) (A) (A)
                 (A) (A) (A) (A) (A) (A) (A) (A) (A) (A) (A) (A)
                 (A) (A) (A) (A) (A) (A) (A) (A) (A) (A) (A) (A)
                 (A) (A) (A) (A) (A) (A) (A) (A) (A) (A) (A) (A)
                 (A) (A) (A) (A) (A) (A) (A) (A) (A) (A) (A) (A)
                 (A) (A) (A) (A) (A) (A) (A) (A) (A) (A) (A) (A)
                 (A) (A) (A) (A) (A) (A) (A) (A) (A) (A) (A) (A)
                 (A) (A) (A) (A) (A) (A) (A) (A) (A) (A) (A) (A)
                 (A) (A) (A) (A) (A) (A) (A) (A) (A) (A) (A) (A)
                 (A) (A) (A) (A) (A) (A)
 The electronic state is 1-A.
 Alpha  occ. eigenvalues --  -19.17164 -19.15137 -19.13454 -19.12979 -19.01846
 Alpha  occ. eigenvalues --  -19.01418 -14.30095 -14.18576 -10.20180 -10.20167
 Alpha  occ. eigenvalues --  -10.19455 -10.18304 -10.18278 -10.17235 -10.15492
 Alpha  occ. eigenvalues --  -10.15309 -10.09767  -1.01049  -0.98946  -0.97312
 Alpha  occ. eigenvalues --   -0.95656  -0.92025  -0.89029  -0.83747  -0.71845
 Alpha  occ. eigenvalues --   -0.71233  -0.70412  -0.65451  -0.60681  -0.54086
 Alpha  occ. eigenvalues --   -0.52863  -0.50078  -0.48444  -0.47615  -0.45753
 Alpha  occ. eigenvalues --   -0.44214  -0.42726  -0.41653  -0.39459  -0.38570
 Alpha  occ. eigenvalues --   -0.36902  -0.36629  -0.34252  -0.32786  -0.31504
 Alpha  occ. eigenvalues --   -0.31167  -0.30329  -0.29701  -0.28291  -0.27809
 Alpha  occ. eigenvalues --   -0.27544  -0.26238  -0.25141  -0.24013  -0.22271
 Alpha  occ. eigenvalues --   -0.21143  -0.20354  -0.19436  -0.17760  -0.13050
 Alpha  occ. eigenvalues --   -0.10049  -0.09697  -0.07967  -0.07732
 Alpha virt. eigenvalues --    0.05852   0.07238   0.08181   0.09294   0.10218
 Alpha virt. eigenvalues --    0.10800   0.11474   0.11839   0.12526   0.12888
 Alpha virt. eigenvalues --    0.13508   0.14246   0.15118   0.15416   0.15641
 Alpha virt. eigenvalues --    0.16107   0.16792   0.16867   0.17336   0.17458
 Alpha virt. eigenvalues --    0.18561   0.18803   0.18957   0.19142   0.19367
 Alpha virt. eigenvalues --    0.20001   0.20292   0.20428   0.20787   0.21338
 Alpha virt. eigenvalues --    0.21904   0.22632   0.22756   0.23262   0.23485
 Alpha virt. eigenvalues --    0.23812   0.23914   0.24486   0.24675   0.25135
 Alpha virt. eigenvalues --    0.25918   0.26338   0.26822   0.27047   0.27684
 Alpha virt. eigenvalues --    0.28148   0.28420   0.28603   0.29135   0.29543
 Alpha virt. eigenvalues --    0.29764   0.30053   0.30805   0.31061   0.31755
 Alpha virt. eigenvalues --    0.31887   0.32191   0.32463   0.32938   0.33626
 Alpha virt. eigenvalues --    0.33767   0.34287   0.34426   0.35323   0.35591
 Alpha virt. eigenvalues --    0.35728   0.36038   0.36582   0.37108   0.37351
 Alpha virt. eigenvalues --    0.37781   0.38143   0.38177   0.38798   0.39186
 Alpha virt. eigenvalues --    0.39401   0.39735   0.40202   0.40337   0.40800
 Alpha virt. eigenvalues --    0.41276   0.41608   0.41844   0.42526   0.42754
 Alpha virt. eigenvalues --    0.43104   0.43554   0.44209   0.44666   0.44870
 Alpha virt. eigenvalues --    0.45180   0.45608   0.45972   0.46301   0.46912
 Alpha virt. eigenvalues --    0.47045   0.47499   0.47747   0.48539   0.49316
 Alpha virt. eigenvalues --    0.49621   0.49868   0.50432   0.50843   0.51397
 Alpha virt. eigenvalues --    0.51926   0.52174   0.52766   0.53493   0.53620
 Alpha virt. eigenvalues --    0.54420   0.55058   0.55220   0.56018   0.57053
 Alpha virt. eigenvalues --    0.57100   0.57572   0.58362   0.58850   0.59757
 Alpha virt. eigenvalues --    0.60229   0.60576   0.61270   0.61795   0.62322
 Alpha virt. eigenvalues --    0.62674   0.63060   0.63626   0.63915   0.64621
 Alpha virt. eigenvalues --    0.64915   0.65745   0.65894   0.66564   0.67730
 Alpha virt. eigenvalues --    0.67981   0.68797   0.69916   0.70272   0.70732
 Alpha virt. eigenvalues --    0.71266   0.71915   0.72074   0.72208   0.73169
 Alpha virt. eigenvalues --    0.73436   0.73936   0.75188   0.75494   0.76409
 Alpha virt. eigenvalues --    0.76814   0.77113   0.77628   0.78329   0.79415
 Alpha virt. eigenvalues --    0.79552   0.80020   0.80484   0.80922   0.80974
 Alpha virt. eigenvalues --    0.81848   0.82498   0.82973   0.83393   0.84171
 Alpha virt. eigenvalues --    0.84884   0.85235   0.85835   0.86873   0.87260
 Alpha virt. eigenvalues --    0.87619   0.88160   0.88737   0.89305   0.89970
 Alpha virt. eigenvalues --    0.90568   0.90657   0.91259   0.92142   0.92431
 Alpha virt. eigenvalues --    0.93439   0.93589   0.94566   0.94922   0.95866
 Alpha virt. eigenvalues --    0.96145   0.97438   0.98011   0.98866   0.99683
 Alpha virt. eigenvalues --    1.00287   1.01384   1.02469   1.02737   1.04263
 Alpha virt. eigenvalues --    1.04457   1.06088   1.06752   1.07050   1.08454
 Alpha virt. eigenvalues --    1.09632   1.10930   1.11192   1.11426   1.11843
 Alpha virt. eigenvalues --    1.13612   1.14062   1.15192   1.15722   1.17064
 Alpha virt. eigenvalues --    1.17243   1.18861   1.19810   1.20075   1.21208
 Alpha virt. eigenvalues --    1.21461   1.22492   1.24229   1.24675   1.25360
 Alpha virt. eigenvalues --    1.26021   1.26227   1.26623   1.27959   1.28765
 Alpha virt. eigenvalues --    1.29062   1.29744   1.30389   1.31372   1.32202
 Alpha virt. eigenvalues --    1.33243   1.33996   1.35635   1.37254   1.38127
 Alpha virt. eigenvalues --    1.38951   1.40137   1.41010   1.42123   1.42874
 Alpha virt. eigenvalues --    1.44195   1.45444   1.45772   1.46870   1.48646
 Alpha virt. eigenvalues --    1.48819   1.49790   1.51312   1.52757   1.53030
 Alpha virt. eigenvalues --    1.53291   1.55093   1.55873   1.57042   1.57162
 Alpha virt. eigenvalues --    1.58101   1.60790   1.61542   1.61968   1.62764
 Alpha virt. eigenvalues --    1.63492   1.63873   1.64516   1.64918   1.66380
 Alpha virt. eigenvalues --    1.67748   1.69791   1.70147   1.70446   1.71794
 Alpha virt. eigenvalues --    1.72873   1.73200   1.75076   1.75915   1.76661
 Alpha virt. eigenvalues --    1.78402   1.79894   1.80911   1.81772   1.82451
 Alpha virt. eigenvalues --    1.82805   1.83669   1.84666   1.86116   1.87069
 Alpha virt. eigenvalues --    1.87636   1.88205   1.89479   1.90723   1.92369
 Alpha virt. eigenvalues --    1.93140   1.93471   1.95700   1.95947   1.96671
 Alpha virt. eigenvalues --    1.97933   1.98295   1.99231   2.00321   2.02786
 Alpha virt. eigenvalues --    2.03280   2.03963   2.04697   2.05163   2.06254
 Alpha virt. eigenvalues --    2.07649   2.08437   2.09016   2.10591   2.11300
 Alpha virt. eigenvalues --    2.11916   2.12656   2.15262   2.16118   2.17990
 Alpha virt. eigenvalues --    2.18619   2.20065   2.21496   2.22069   2.23632
 Alpha virt. eigenvalues --    2.24395   2.24519   2.25156   2.26573   2.27565
 Alpha virt. eigenvalues --    2.28744   2.29657   2.31009   2.32293   2.33436
 Alpha virt. eigenvalues --    2.34829   2.35894   2.36576   2.37507   2.38677
 Alpha virt. eigenvalues --    2.39773   2.40544   2.41461   2.42926   2.43723
 Alpha virt. eigenvalues --    2.44380   2.46031   2.47213   2.49008   2.50420
 Alpha virt. eigenvalues --    2.51802   2.54992   2.55343   2.57509   2.58816
 Alpha virt. eigenvalues --    2.59861   2.60521   2.62868   2.63996   2.64737
 Alpha virt. eigenvalues --    2.67026   2.67745   2.68585   2.70337   2.71069
 Alpha virt. eigenvalues --    2.73208   2.74242   2.74495   2.76460   2.78144
 Alpha virt. eigenvalues --    2.80950   2.81716   2.82367   2.84917   2.86407
 Alpha virt. eigenvalues --    2.87690   2.91643   2.92580   2.92790   2.97657
 Alpha virt. eigenvalues --    3.02970   3.05033   3.07285   3.09613   3.10314
 Alpha virt. eigenvalues --    3.12126   3.15441   3.16663   3.21766   3.28652
 Alpha virt. eigenvalues --    3.29469   3.37236   3.42199   3.43921   3.46470
 Alpha virt. eigenvalues --    3.48799   3.51383   3.54762   3.55241   3.56784
 Alpha virt. eigenvalues --    3.58473   3.59733   3.60820   3.61678   3.62205
 Alpha virt. eigenvalues --    3.63918   3.64007   3.64797   3.67655   3.69120
 Alpha virt. eigenvalues --    3.70200   3.71227   3.73164   3.75606   3.77268
 Alpha virt. eigenvalues --    3.79538   3.80593   3.83704   3.85054   3.87801
 Alpha virt. eigenvalues --    3.89592   3.93407   3.96862   3.99975   4.06851
 Alpha virt. eigenvalues --    4.10217   4.12126   4.22673   4.27203   4.45959
 Alpha virt. eigenvalues --    4.71028
          Condensed to atoms (all electrons):
               1          2          3          4          5          6
     1  C   11.306464  -3.059562   1.104059   0.177172   0.371248  -0.087855
     2  C   -3.059562  10.050928  -2.257759  -0.699136  -0.957605   0.017858
     3  C    1.104059  -2.257759  14.237064   0.165481   0.047594  -0.101002
     4  O    0.177172  -0.699136   0.165481   8.813486  -0.113553   0.026907
     5  H    0.371248  -0.957605   0.047594  -0.113553   2.145801   0.023901
     6  O   -0.087855   0.017858  -0.101002   0.026907   0.023901   9.337094
     7  H   -0.018119   0.404493  -1.205623  -0.048490   0.052387  -0.178652
     8  C   -0.199783   0.866904  -2.751780   0.071120  -0.268244  -0.001605
     9  C   -3.124185   0.719583  -2.959143  -0.008938   0.241003  -0.063700
    10  H   -0.870508   0.476810   0.082929  -0.011620  -0.118804   0.030629
    11  O   -0.720874   0.283374   0.090564  -0.017461  -0.046046   0.013515
    12  C    0.050816  -0.355612   0.448963   0.029632   0.013989  -0.132437
    13  H    0.685746  -0.250801   0.348759   0.006523   0.009147  -0.039693
    14  O   -0.096131   0.004720  -0.050950   0.000060  -0.001208  -0.040760
    15  H   -0.037275   0.107980   0.018851  -0.001524   0.004502   0.083031
    16  H   -0.005039  -0.017662  -0.013690  -0.000179   0.000687  -0.024697
    17  H    0.318728  -0.211292   0.004690   0.009043   0.017503  -0.002768
    18  H   -0.230088   0.173131  -0.051021   0.284511  -0.012114   0.001820
    19  H    0.097644  -0.011175   0.056851   0.000642  -0.002074   0.043720
    20  C    0.071565  -0.471264  -1.194195   0.014077   0.052567   0.016343
    21  N    0.001021  -0.008425   0.335796  -0.000565  -0.000768   0.022973
    22  C   -0.017410   0.048234  -0.292082   0.002591  -0.013300   0.000678
    23  N   -0.004259   0.029454   0.047006  -0.003139   0.007318  -0.000881
    24  C   -0.063499   0.058280  -1.252662   0.008244  -0.026818  -0.031658
    25  H   -0.190311   0.065717   0.155114  -0.000811   0.032965  -0.036670
    26  H    0.003553   0.002055  -0.053327   0.000035  -0.001822  -0.001494
    27  O    0.001296  -0.002477   0.017955  -0.000038   0.000005   0.000307
    28  O   -0.000092  -0.022463   0.136960  -0.004875   0.006533   0.002425
               7          8          9         10         11         12
     1  C   -0.018119  -0.199783  -3.124185  -0.870508  -0.720874   0.050816
     2  C    0.404493   0.866904   0.719583   0.476810   0.283374  -0.355612
     3  C   -1.205623  -2.751780  -2.959143   0.082929   0.090564   0.448963
     4  O   -0.048490   0.071120  -0.008938  -0.011620  -0.017461   0.029632
     5  H    0.052387  -0.268244   0.241003  -0.118804  -0.046046   0.013989
     6  O   -0.178652  -0.001605  -0.063700   0.030629   0.013515  -0.132437
     7  H    1.964996   0.352723   0.183713  -0.007203  -0.005652  -0.014017
     8  C    0.352723  13.142327   0.527230   0.010619  -0.018039  -0.165931
     9  C    0.183713   0.527230  11.931188  -0.565525   0.184748  -0.480980
    10  H   -0.007203   0.010619  -0.565525   2.484688  -0.054569   0.004977
    11  O   -0.005652  -0.018039   0.184748  -0.054569   8.654398  -0.017746
    12  C   -0.014017  -0.165931  -0.480980   0.004977  -0.017746   5.209175
    13  H    0.012100  -0.110022  -1.586247   0.142476  -0.058643   0.054679
    14  O    0.001868   0.012450   0.080973   0.031815   0.011127   0.114573
    15  H   -0.000357   0.017196  -0.187557  -0.026350   0.028218   0.061930
    16  H    0.000783   0.002917   0.232522   0.013164   0.003321   0.129075
    17  H    0.000449   0.001285  -0.025499  -0.123355   0.282218   0.005246
    18  H   -0.011248  -0.000993   0.034611   0.017988   0.042858  -0.009454
    19  H   -0.002225   0.014525  -0.184183   0.013423  -0.003025   0.003470
    20  C    0.076189  -3.856641  -0.079466  -0.022291  -0.014292  -0.063548
    21  N   -0.018555  -0.006244   0.018048   0.007538   0.000355  -0.003492
    22  C   -0.006529   0.659557  -0.006277   0.011601   0.000645  -0.007931
    23  N    0.021987   0.436929   0.001119  -0.000588  -0.000344   0.000356
    24  C   -0.113016  -3.327858  -0.012467  -0.006156   0.007681  -0.010714
    25  H    0.021509  -0.065660   0.058256  -0.086515   0.006040   0.137481
    26  H   -0.002136  -0.017920   0.000898   0.004903  -0.000023  -0.004704
    27  O    0.000534   0.010519   0.000936   0.000446  -0.000016   0.000089
    28  O    0.017581   0.018334   0.007983   0.001887  -0.000141  -0.000204
              13         14         15         16         17         18
     1  C    0.685746  -0.096131  -0.037275  -0.005039   0.318728  -0.230088
     2  C   -0.250801   0.004720   0.107980  -0.017662  -0.211292   0.173131
     3  C    0.348759  -0.050950   0.018851  -0.013690   0.004690  -0.051021
     4  O    0.006523   0.000060  -0.001524  -0.000179   0.009043   0.284511
     5  H    0.009147  -0.001208   0.004502   0.000687   0.017503  -0.012114
     6  O   -0.039693  -0.040760   0.083031  -0.024697  -0.002768   0.001820
     7  H    0.012100   0.001868  -0.000357   0.000783   0.000449  -0.011248
     8  C   -0.110022   0.012450   0.017196   0.002917   0.001285  -0.000993
     9  C   -1.586247   0.080973  -0.187557   0.232522  -0.025499   0.034611
    10  H    0.142476   0.031815  -0.026350   0.013164  -0.123355   0.017988
    11  O   -0.058643   0.011127   0.028218   0.003321   0.282218   0.042858
    12  C    0.054679   0.114573   0.061930   0.129075   0.005246  -0.009454
    13  H    2.428686   0.015918  -0.031198  -0.072566  -0.005333   0.000282
    14  O    0.015918   8.353553  -0.166089  -0.044978  -0.002281  -0.000414
    15  H   -0.031198  -0.166089   1.731054  -0.320045  -0.002632  -0.000024
    16  H   -0.072566  -0.044978  -0.320045   1.394606  -0.000455  -0.000397
    17  H   -0.005333  -0.002281  -0.002632  -0.000455   0.603227  -0.007545
    18  H    0.000282  -0.000414  -0.000024  -0.000397  -0.007545   0.628058
    19  H    0.014575   0.278560   0.039800  -0.065660   0.000827  -0.000409
    20  C    0.026533   0.058730  -0.023256  -0.001133  -0.002243   0.000964
    21  N   -0.000308  -0.013306   0.000848   0.000348  -0.000442   0.000046
    22  C   -0.000678   0.000254  -0.000230  -0.000066  -0.000526   0.000306
    23  N    0.000498   0.000182  -0.000050   0.000052  -0.000210   0.000081
    24  C   -0.002922   0.001491   0.001296   0.000134   0.001071   0.001704
    25  H   -0.018390  -0.020104  -0.006848   0.004319  -0.001641   0.002761
    26  H    0.000505   0.001211   0.000070  -0.000262  -0.000051  -0.000014
    27  O    0.000078  -0.000067   0.000009  -0.000011   0.000021  -0.000035
    28  O    0.000309   0.000022   0.000028  -0.000006  -0.000213   0.000219
              19         20         21         22         23         24
     1  C    0.097644   0.071565   0.001021  -0.017410  -0.004259  -0.063499
     2  C   -0.011175  -0.471264  -0.008425   0.048234   0.029454   0.058280
     3  C    0.056851  -1.194195   0.335796  -0.292082   0.047006  -1.252662
     4  O    0.000642   0.014077  -0.000565   0.002591  -0.003139   0.008244
     5  H   -0.002074   0.052567  -0.000768  -0.013300   0.007318  -0.026818
     6  O    0.043720   0.016343   0.022973   0.000678  -0.000881  -0.031658
     7  H   -0.002225   0.076189  -0.018555  -0.006529   0.021987  -0.113016
     8  C    0.014525  -3.856641  -0.006244   0.659557   0.436929  -3.327858
     9  C   -0.184183  -0.079466   0.018048  -0.006277   0.001119  -0.012467
    10  H    0.013423  -0.022291   0.007538   0.011601  -0.000588  -0.006156
    11  O   -0.003025  -0.014292   0.000355   0.000645  -0.000344   0.007681
    12  C    0.003470  -0.063548  -0.003492  -0.007931   0.000356  -0.010714
    13  H    0.014575   0.026533  -0.000308  -0.000678   0.000498  -0.002922
    14  O    0.278560   0.058730  -0.013306   0.000254   0.000182   0.001491
    15  H    0.039800  -0.023256   0.000848  -0.000230  -0.000050   0.001296
    16  H   -0.065660  -0.001133   0.000348  -0.000066   0.000052   0.000134
    17  H    0.000827  -0.002243  -0.000442  -0.000526  -0.000210   0.001071
    18  H   -0.000409   0.000964   0.000046   0.000306   0.000081   0.001704
    19  H    0.547772  -0.025037   0.002265   0.000675  -0.000339   0.000929
    20  C   -0.025037  14.504125  -0.887999  -0.828428   0.255976  -1.605414
    21  N    0.002265  -0.887999   7.587127   0.093957  -0.000020   0.109237
    22  C    0.000675  -0.828428   0.093957   6.410652  -0.133786  -0.452176
    23  N   -0.000339   0.255976  -0.000020  -0.133786   8.179710  -0.850006
    24  C    0.000929  -1.605414   0.109237  -0.452176  -0.850006  13.070274
    25  H   -0.018296  -1.078385   0.066637  -0.061056   0.011626  -0.019297
    26  H    0.002774  -0.124314   0.337045  -0.212334   0.002727   0.017673
    27  O    0.000519   0.104449  -0.140722   0.062399  -0.099020   0.035959
    28  O   -0.000173  -0.124958   0.005822   0.051122  -0.141723   0.000455
              25         26         27         28
     1  C   -0.190311   0.003553   0.001296  -0.000092
     2  C    0.065717   0.002055  -0.002477  -0.022463
     3  C    0.155114  -0.053327   0.017955   0.136960
     4  O   -0.000811   0.000035  -0.000038  -0.004875
     5  H    0.032965  -0.001822   0.000005   0.006533
     6  O   -0.036670  -0.001494   0.000307   0.002425
     7  H    0.021509  -0.002136   0.000534   0.017581
     8  C   -0.065660  -0.017920   0.010519   0.018334
     9  C    0.058256   0.000898   0.000936   0.007983
    10  H   -0.086515   0.004903   0.000446   0.001887
    11  O    0.006040  -0.000023  -0.000016  -0.000141
    12  C    0.137481  -0.004704   0.000089  -0.000204
    13  H   -0.018390   0.000505   0.000078   0.000309
    14  O   -0.020104   0.001211  -0.000067   0.000022
    15  H   -0.006848   0.000070   0.000009   0.000028
    16  H    0.004319  -0.000262  -0.000011  -0.000006
    17  H   -0.001641  -0.000051   0.000021  -0.000213
    18  H    0.002761  -0.000014  -0.000035   0.000219
    19  H   -0.018296   0.002774   0.000519  -0.000173
    20  C   -1.078385  -0.124314   0.104449  -0.124958
    21  N    0.066637   0.337045  -0.140722   0.005822
    22  C   -0.061056  -0.212334   0.062399   0.051122
    23  N    0.011626   0.002727  -0.099020  -0.141723
    24  C   -0.019297   0.017673   0.035959   0.000455
    25  H    2.926407  -0.061929  -0.007980  -0.002816
    26  H   -0.061929   1.251977  -0.007008   0.002080
    27  O   -0.007980  -0.007008   8.741372  -0.005203
    28  O   -0.002816   0.002080  -0.005203   8.880199
 Mulliken charges:
               1
     1  C    0.535678
     2  C    1.015713
     3  C    0.884600
     4  O   -0.699195
     5  H   -0.464793
     6  O   -0.877331
     7  H   -0.479490
     8  C    0.646082
     9  C    1.061354
    10  H   -0.442408
    11  O   -0.652193
    12  C    1.002321
    13  H   -0.570014
    14  O   -0.531221
    15  H   -0.291376
    16  H   -0.215084
    17  H    0.142177
    18  H    0.134418
    19  H    0.193623
    20  C    1.221347
    21  N   -0.508217
    22  C    0.690137
    23  N   -0.760657
    24  C    0.460235
    25  H   -0.812126
    26  H   -0.140168
    27  O   -0.714318
    28  O   -0.829095
 Sum of Mulliken charges =  -1.00000
 Mulliken charges with hydrogens summed into heavy atoms:
               1
     1  C    0.093271
     2  C    0.550920
     3  C    0.405110
     4  O   -0.564777
     6  O   -0.877331
     8  C    0.646082
     9  C    0.491339
    11  O   -0.510016
    12  C    0.495860
    14  O   -0.337598
    20  C    0.409221
    21  N   -0.648384
    22  C    0.690137
    23  N   -0.760657
    24  C    0.460235
    27  O   -0.714318
    28  O   -0.829095
 Electronic spatial extent (au):  <R**2>=           4282.4019
 Charge=             -1.0000 electrons
 Dipole moment (field-independent basis, Debye):
    X=            -15.1824    Y=              5.2933    Z=              1.9821  Tot=             16.2004
 Quadrupole moment (field-independent basis, Debye-Ang):
   XX=           -173.2751   YY=           -123.1780   ZZ=            -97.5674
   XY=              8.7251   XZ=             -7.0889   YZ=             -9.1680
 Traceless Quadrupole moment (field-independent basis, Debye-Ang):
   XX=            -41.9349   YY=              8.1622   ZZ=             33.7727
   XY=              8.7251   XZ=             -7.0889   YZ=             -9.1680
 Octapole moment (field-independent basis, Debye-Ang**2):
  XXX=           -327.8290  YYY=             45.1750  ZZZ=             23.3407  XYY=            -27.9275
  XXY=             -3.9360  XXZ=            -25.0401  XZZ=            -30.7225  YZZ=             -0.7329
  YYZ=              7.3196  XYZ=             -2.7279
 Hexadecapole moment (field-independent basis, Debye-Ang**3):
 XXXX=          -5241.6165 YYYY=          -1535.1591 ZZZZ=           -367.8940 XXXY=            -95.9155
 XXXZ=           -158.4740 YYYX=            143.2930 YYYZ=            -62.8174 ZZZX=            -71.0074
 ZZZY=            -21.1121 XXYY=           -993.0999 XXZZ=           -691.4767 YYZZ=           -283.6240
 XXYZ=            -72.5894 YYXZ=              8.2813 ZZXY=              7.9349
 N-N= 1.292349708585D+03 E-N=-4.734370923831D+03  KE= 9.049324022023D+02
 Calling FoFJK, ICntrl=      2127 FMM=F ISym2X=0 I1Cent= 0 IOpClX= 0 NMat=1 NMatS=1 NMatT=0.
 ***** Axes restored to original set *****
 -------------------------------------------------------------------
 Center     Atomic                   Forces (Hartrees/Bohr)
 Number     Number              X              Y              Z
 -------------------------------------------------------------------
      1        6           0.004150369   -0.000173726   -0.002611066
      2        6           0.003886754    0.004519770   -0.000997831
      3        6           0.009707937    0.001450813    0.005230754
      4        8          -0.006561470   -0.004298930    0.000131188
      5        1           0.000077924    0.000369416   -0.001526285
      6        8          -0.013898762    0.004791660   -0.000631985
      7        1           0.000291965   -0.000410205    0.000377878
      8        6          -0.012074113   -0.004221405   -0.003401591
      9        6           0.006207939   -0.000036843   -0.003250086
     10        1           0.000234998   -0.000748341   -0.000656702
     11        8          -0.006064292   -0.000508730    0.003882069
     12        6           0.001862943   -0.000147426    0.001025896
     13        1          -0.001670657   -0.000635711    0.000047986
     14        8          -0.004666446    0.002362309   -0.001050878
     15        1          -0.000499227    0.000276404    0.000512132
     16        1          -0.000386771    0.000112442   -0.000922786
     17        1           0.001191462   -0.000072735   -0.001112606
     18        1           0.000986272    0.000129886   -0.000124427
     19        1           0.002465796   -0.002499584    0.001537219
     20        6           0.002551954    0.004290319    0.001707215
     21        7          -0.011771573    0.021976539    0.003495672
     22        6          -0.032534222   -0.071959239   -0.024074995
     23        7           0.004243256   -0.003976177    0.000019454
     24        6           0.050810725    0.050248768    0.021987193
     25        1           0.000796790    0.000682600    0.000135934
     26        1          -0.004073531    0.002154050   -0.000311224
     27        8           0.021145646    0.024889071    0.010168155
     28        8          -0.016411665   -0.028564996   -0.009586284
 -------------------------------------------------------------------
 Cartesian Forces:  Max     0.071959239 RMS     0.013917371

 GradGradGradGradGradGradGradGradGradGradGradGradGradGradGradGradGradGrad
 Berny optimization.
 FormGI is forming the generalized inverse of G from B-inverse, IUseBI=4.
 Internal  Forces:  Max     0.030900181 RMS     0.006756656
 Search for a local minimum.
 Step number   1 out of a maximum of  166
 All quantities printed in internal units (Hartrees-Bohrs-Radians)
 Mixed Optimization -- RFO/linear search
 Second derivative matrix not updated -- first step.
 ITU=  0
     Eigenvalues ---    0.00541   0.00554   0.00724   0.00934   0.01414
     Eigenvalues ---    0.01456   0.01485   0.01500   0.01585   0.01669
     Eigenvalues ---    0.01934   0.01941   0.02018   0.02274   0.02468
     Eigenvalues ---    0.03094   0.03891   0.04374   0.04924   0.04981
     Eigenvalues ---    0.05137   0.05519   0.05742   0.06007   0.06026
     Eigenvalues ---    0.06123   0.07104   0.07891   0.08180   0.09569
     Eigenvalues ---    0.11642   0.12704   0.13988   0.15712   0.15999
     Eigenvalues ---    0.16000   0.16000   0.16000   0.16000   0.16553
     Eigenvalues ---    0.18637   0.19720   0.22068   0.22443   0.24445
     Eigenvalues ---    0.24985   0.24998   0.25000   0.25000   0.26648
     Eigenvalues ---    0.27964   0.29101   0.30751   0.32043   0.33210
     Eigenvalues ---    0.33467   0.33512   0.33625   0.33898   0.33913
     Eigenvalues ---    0.35005   0.36077   0.38144   0.40177   0.42790
     Eigenvalues ---    0.43123   0.43700   0.44303   0.46067   0.46806
     Eigenvalues ---    0.48150   0.50208   0.53689   0.54066   0.54917
     Eigenvalues ---    0.55218   0.95726   0.97325
 RFO step:  Lambda=-1.93652346D-02 EMin= 5.41244767D-03
 Linear search not attempted -- first point.
 Iteration  1 RMS(Cart)=  0.04728741 RMS(Int)=  0.00134473
 Iteration  2 RMS(Cart)=  0.00164064 RMS(Int)=  0.00004487
 Iteration  3 RMS(Cart)=  0.00000276 RMS(Int)=  0.00004483
 Iteration  4 RMS(Cart)=  0.00000000 RMS(Int)=  0.00004483
 Variable       Old X    -DE/DX   Delta X   Delta X   Delta X     New X
                                 (Linear)    (Quad)   (Total)
    R1        2.89833  -0.00037   0.00000  -0.00274  -0.00277   2.89556
    R2        2.87544   0.00036   0.00000  -0.00069  -0.00071   2.87473
    R3        2.07967  -0.00072   0.00000  -0.00202  -0.00202   2.07766
    R4        2.67518   0.00555   0.00000   0.01231   0.01231   2.68748
    R5        2.89852  -0.00074   0.00000  -0.00117  -0.00113   2.89739
    R6        2.66094   0.00635   0.00000   0.01374   0.01374   2.67468
    R7        2.08240  -0.00116   0.00000  -0.00327  -0.00327   2.07913
    R8        2.71466   0.00949   0.00000   0.02423   0.02426   2.73892
    R9        2.07478   0.00006   0.00000   0.00018   0.00018   2.07495
   R10        2.84065   0.00087   0.00000   0.00256   0.00256   2.84322
   R11        1.82671  -0.00087   0.00000  -0.00156  -0.00156   1.82515
   R12        2.68599  -0.00465   0.00000  -0.01040  -0.01041   2.67558
   R13        2.55352  -0.00396   0.00000  -0.00596  -0.00602   2.54749
   R14        2.75822   0.01512   0.00000   0.03806   0.03801   2.79624
   R15        2.86491   0.00048   0.00000   0.00145   0.00145   2.86636
   R16        2.08683   0.00156   0.00000   0.00443   0.00443   2.09126
   R17        1.81638  -0.00084   0.00000  -0.00147  -0.00147   1.81491
   R18        2.67929  -0.00158   0.00000  -0.00353  -0.00353   2.67576
   R19        2.07503   0.00074   0.00000   0.00206   0.00206   2.07710
   R20        2.08161   0.00100   0.00000   0.00282   0.00282   2.08443
   R21        1.81905   0.00029   0.00000   0.00050   0.00050   1.81956
   R22        2.58887  -0.01255   0.00000  -0.02211  -0.02212   2.56675
   R23        2.05667  -0.00013   0.00000  -0.00034  -0.00034   2.05633
   R24        2.61321   0.02279   0.00000   0.04582   0.04586   2.65908
   R25        1.90756   0.00137   0.00000   0.00286   0.00286   1.91041
   R26        2.60413  -0.01969   0.00000  -0.03946  -0.03940   2.56474
   R27        2.29730   0.03026   0.00000   0.03049   0.03049   2.32778
   R28        2.64335  -0.02106   0.00000  -0.04589  -0.04588   2.59747
   R29        2.30401   0.03090   0.00000   0.03164   0.03164   2.33565
    A1        1.76208   0.00038   0.00000  -0.00389  -0.00397   1.75811
    A2        1.93620  -0.00017   0.00000  -0.00257  -0.00258   1.93362
    A3        1.97577   0.00005   0.00000   0.00429   0.00435   1.98013
    A4        1.91653   0.00015   0.00000   0.00223   0.00227   1.91879
    A5        1.91864  -0.00019   0.00000   0.00223   0.00223   1.92087
    A6        1.94605  -0.00016   0.00000  -0.00224  -0.00226   1.94380
    A7        1.76893   0.00139   0.00000   0.00326   0.00328   1.77221
    A8        1.91860  -0.00316   0.00000  -0.01541  -0.01546   1.90314
    A9        1.97810   0.00101   0.00000   0.00455   0.00456   1.98266
   A10        1.90853   0.00280   0.00000   0.02092   0.02102   1.92955
   A11        1.94555  -0.00229   0.00000  -0.01342  -0.01345   1.93211
   A12        1.93699   0.00036   0.00000   0.00086   0.00088   1.93787
   A13        1.85369  -0.00377   0.00000  -0.01408  -0.01416   1.83953
   A14        1.89587   0.00048   0.00000  -0.00891  -0.00903   1.88685
   A15        1.96416  -0.00044   0.00000  -0.00065  -0.00070   1.96346
   A16        1.91643  -0.00019   0.00000  -0.00291  -0.00303   1.91340
   A17        1.92909   0.00535   0.00000   0.03644   0.03643   1.96553
   A18        1.90373  -0.00151   0.00000  -0.01051  -0.01057   1.89316
   A19        1.86326  -0.00071   0.00000  -0.00398  -0.00398   1.85928
   A20        1.92140   0.00120   0.00000   0.00305   0.00306   1.92446
   A21        2.15610  -0.00111   0.00000  -0.00532  -0.00527   2.15083
   A22        2.05769   0.00134   0.00000   0.00376   0.00380   2.06149
   A23        2.06893  -0.00023   0.00000   0.00132   0.00119   2.07013
   A24        1.81874   0.00004   0.00000  -0.00164  -0.00168   1.81707
   A25        2.02139   0.00098   0.00000   0.00614   0.00615   2.02754
   A26        1.88389  -0.00003   0.00000   0.00117   0.00119   1.88507
   A27        1.90669  -0.00042   0.00000   0.00210   0.00213   1.90882
   A28        1.93483   0.00041   0.00000   0.00127   0.00125   1.93607
   A29        1.89733  -0.00091   0.00000  -0.00863  -0.00863   1.88870
   A30        1.90387  -0.00238   0.00000  -0.01327  -0.01327   1.89059
   A31        1.96595   0.00126   0.00000   0.00548   0.00548   1.97143
   A32        1.89498   0.00116   0.00000   0.00795   0.00796   1.90294
   A33        1.91383  -0.00167   0.00000  -0.00952  -0.00951   1.90432
   A34        1.87420  -0.00144   0.00000  -0.00823  -0.00824   1.86596
   A35        1.93026   0.00058   0.00000   0.00479   0.00480   1.93506
   A36        1.88203   0.00010   0.00000  -0.00052  -0.00049   1.88154
   A37        1.84856   0.00089   0.00000   0.00498   0.00498   1.85354
   A38        2.13445  -0.00934   0.00000  -0.03189  -0.03196   2.10248
   A39        2.12205   0.00573   0.00000   0.02188   0.02192   2.14397
   A40        2.02664   0.00360   0.00000   0.01001   0.01005   2.03669
   A41        2.16004  -0.00527   0.00000  -0.01591  -0.01588   2.14417
   A42        2.11363  -0.00157   0.00000  -0.01550  -0.01552   2.09811
   A43        2.00948   0.00684   0.00000   0.03140   0.03138   2.04086
   A44        1.97228   0.02086   0.00000   0.07776   0.07786   2.05015
   A45        2.14671  -0.02874   0.00000  -0.10687  -0.10692   2.03978
   A46        2.16419   0.00789   0.00000   0.02911   0.02906   2.19325
   A47        2.23278  -0.02353   0.00000  -0.09301  -0.09290   2.13988
   A48        1.99763   0.01751   0.00000   0.06170   0.06165   2.05928
   A49        2.18534  -0.02593   0.00000  -0.09464  -0.09462   2.09073
   A50        2.10021   0.00843   0.00000   0.03293   0.03295   2.13316
    D1        0.66992   0.00168   0.00000   0.01842   0.01847   0.68838
    D2       -1.34789  -0.00094   0.00000  -0.00085  -0.00080  -1.34869
    D3        2.75652   0.00029   0.00000   0.00662   0.00664   2.76316
    D4       -1.36057   0.00138   0.00000   0.01895   0.01897  -1.34159
    D5        2.90481  -0.00124   0.00000  -0.00032  -0.00029   2.90452
    D6        0.72603  -0.00001   0.00000   0.00715   0.00715   0.73319
    D7        2.71957   0.00170   0.00000   0.02066   0.02068   2.74025
    D8        0.70177  -0.00092   0.00000   0.00139   0.00141   0.70318
    D9       -1.47701   0.00031   0.00000   0.00886   0.00886  -1.46816
   D10       -0.69242  -0.00068   0.00000  -0.01204  -0.01198  -0.70440
   D11       -2.78703  -0.00075   0.00000  -0.01702  -0.01699  -2.80402
   D12        1.36540  -0.00021   0.00000  -0.01087  -0.01084   1.35455
   D13        1.35255  -0.00062   0.00000  -0.01603  -0.01600   1.33656
   D14       -0.74205  -0.00069   0.00000  -0.02100  -0.02101  -0.76306
   D15       -2.87281  -0.00015   0.00000  -0.01485  -0.01486  -2.88768
   D16       -2.78347  -0.00086   0.00000  -0.01587  -0.01583  -2.79930
   D17        1.40511  -0.00092   0.00000  -0.02085  -0.02084   1.38427
   D18       -0.72565  -0.00038   0.00000  -0.01470  -0.01469  -0.74034
   D19        1.56253  -0.00051   0.00000  -0.00844  -0.00842   1.55412
   D20       -2.76497  -0.00013   0.00000  -0.00942  -0.00945  -2.77442
   D21       -0.63526  -0.00019   0.00000  -0.00657  -0.00656  -0.64182
   D22       -0.43066  -0.00099   0.00000  -0.01484  -0.01477  -0.44543
   D23       -2.49107   0.00101   0.00000   0.00066   0.00061  -2.49046
   D24        1.68234   0.00286   0.00000   0.02041   0.02036   1.70270
   D25        1.59457  -0.00277   0.00000  -0.02241  -0.02228   1.57229
   D26       -0.46584  -0.00077   0.00000  -0.00690  -0.00690  -0.47274
   D27       -2.57562   0.00108   0.00000   0.01284   0.01285  -2.56276
   D28       -2.54030  -0.00191   0.00000  -0.01577  -0.01569  -2.55599
   D29        1.68248   0.00009   0.00000  -0.00027  -0.00031   1.68216
   D30       -0.42730   0.00194   0.00000   0.01948   0.01944  -0.40786
   D31       -0.64382   0.00058   0.00000  -0.00099  -0.00108  -0.64489
   D32       -2.57137  -0.00091   0.00000  -0.00782  -0.00772  -2.57908
   D33        1.55843  -0.00019   0.00000  -0.00587  -0.00589   1.55254
   D34       -0.00037   0.00066   0.00000   0.00722   0.00716   0.00679
   D35        2.04637  -0.00096   0.00000  -0.01260  -0.01263   2.03374
   D36       -2.13576   0.00044   0.00000  -0.00433  -0.00426  -2.14002
   D37       -1.59849   0.00011   0.00000  -0.01455  -0.01462  -1.61311
   D38        1.50988  -0.00019   0.00000  -0.02334  -0.02338   1.48651
   D39        0.47080  -0.00132   0.00000  -0.00813  -0.00806   0.46275
   D40       -2.70401  -0.00162   0.00000  -0.01691  -0.01681  -2.72082
   D41        2.57943   0.00082   0.00000   0.00433   0.00429   2.58372
   D42       -0.59538   0.00052   0.00000  -0.00445  -0.00447  -0.59985
   D43        0.44018  -0.00029   0.00000   0.00275   0.00275   0.44293
   D44        2.61046   0.00068   0.00000   0.01024   0.01024   2.62070
   D45       -1.58227  -0.00046   0.00000   0.00169   0.00170  -1.58056
   D46        3.12607  -0.00042   0.00000  -0.00753  -0.00751   3.11856
   D47       -0.00566  -0.00036   0.00000  -0.00796  -0.00796  -0.01362
   D48        0.01790  -0.00014   0.00000   0.00126   0.00124   0.01914
   D49       -3.11382  -0.00009   0.00000   0.00083   0.00079  -3.11304
   D50       -3.13472   0.00006   0.00000   0.00594   0.00593  -3.12879
   D51        0.00227   0.00008   0.00000   0.00316   0.00324   0.00551
   D52       -0.02465  -0.00025   0.00000  -0.00253  -0.00254  -0.02719
   D53        3.11234  -0.00022   0.00000  -0.00531  -0.00524   3.10711
   D54        1.17663  -0.00076   0.00000  -0.02791  -0.02789   1.14874
   D55       -0.89672  -0.00051   0.00000  -0.02628  -0.02628  -0.92300
   D56       -2.94896  -0.00036   0.00000  -0.02487  -0.02486  -2.97383
   D57       -0.86953  -0.00114   0.00000  -0.03127  -0.03126  -0.90079
   D58       -2.94288  -0.00089   0.00000  -0.02964  -0.02966  -2.97253
   D59        1.28806  -0.00074   0.00000  -0.02823  -0.02823   1.25982
   D60       -2.98295  -0.00083   0.00000  -0.02880  -0.02880  -3.01175
   D61        1.22689  -0.00057   0.00000  -0.02718  -0.02719   1.19969
   D62       -0.82536  -0.00042   0.00000  -0.02577  -0.02577  -0.85113
   D63        1.24580  -0.00290   0.00000  -0.06934  -0.06933   1.17648
   D64       -2.95194  -0.00166   0.00000  -0.06165  -0.06166  -3.01360
   D65       -0.90264  -0.00207   0.00000  -0.06446  -0.06447  -0.96711
   D66       -0.00172  -0.00005   0.00000  -0.00016  -0.00023  -0.00195
   D67        3.13033  -0.00005   0.00000  -0.00172  -0.00175   3.12859
   D68        3.13051  -0.00009   0.00000   0.00033   0.00028   3.13079
   D69       -0.02063  -0.00009   0.00000  -0.00123  -0.00123  -0.02186
   D70       -0.00599  -0.00003   0.00000  -0.00160  -0.00167  -0.00766
   D71        3.13810  -0.00009   0.00000  -0.00276  -0.00274   3.13536
   D72       -3.13856   0.00000   0.00000   0.00009   0.00002  -3.13853
   D73        0.00553  -0.00006   0.00000  -0.00107  -0.00105   0.00448
   D74       -0.00351   0.00011   0.00000   0.00194   0.00197  -0.00153
   D75        3.13556   0.00011   0.00000   0.00289   0.00293   3.13850
   D76        0.01851  -0.00006   0.00000  -0.00018  -0.00015   0.01835
   D77       -3.11873   0.00002   0.00000   0.00283   0.00298  -3.11575
         Item               Value     Threshold  Converged?
 Maximum Force            0.030900     0.000450     NO 
 RMS     Force            0.006757     0.000300     NO 
 Maximum Displacement     0.208281     0.001800     NO 
 RMS     Displacement     0.047440     0.001200     NO 
 Predicted change in Energy=-1.050815D-02
 GradGradGradGradGradGradGradGradGradGradGradGradGradGradGradGradGradGrad

                          Input orientation:                          
 ---------------------------------------------------------------------
 Center     Atomic      Atomic             Coordinates (Angstroms)
 Number     Number       Type             X           Y           Z
 ---------------------------------------------------------------------
      1          6           0       -2.093629   -0.176383    0.848275
      2          6           0       -1.197816   -1.346193    0.427692
      3          6           0       -0.442607   -0.741920   -0.761979
      4          8           0       -2.012941   -2.422857    0.003832
      5          1           0       -0.495705   -1.667262    1.211563
      6          8           0       -1.309146    0.298141   -1.279729
      7          1           0       -0.314945   -1.526611   -1.519345
      8          6           0        0.916952   -0.224343   -0.378014
      9          6           0       -2.495684    0.375530   -0.511106
     10          1           0       -1.516515    0.577196    1.403113
     11          8           0       -3.249362   -0.580223    1.571960
     12          6           0       -3.013699    1.801050   -0.527735
     13          1           0       -3.280994   -0.282777   -0.928946
     14          8           0       -2.026933    2.751389   -0.169866
     15          1           0       -3.828337    1.894911    0.204173
     16          1           0       -3.429257    2.022635   -1.525178
     17          1           0       -3.026907   -0.606519    2.505883
     18          1           0       -2.787593   -2.424689    0.580665
     19          1           0       -1.376097    2.743045   -0.879414
     20          6           0        1.144018    1.051603   -0.006921
     21          7           0        2.390552    1.452255    0.354341
     22          6           0        3.497723    0.583920    0.366963
     23          7           0        3.284717   -0.707240    0.007063
     24          6           0        2.046876   -1.179557   -0.358960
     25          1           0        0.358901    1.804168    0.029627
     26          1           0        2.558833    2.412723    0.621171
     27          8           0        4.579248    1.065643    0.706962
     28          8           0        1.855608   -2.363028   -0.659692
 ---------------------------------------------------------------------
                    Distance matrix (angstroms):
                    1          2          3          4          5
     1  C    0.000000
     2  C    1.532262   0.000000
     3  C    2.374579   1.533233   0.000000
     4  O    2.401300   1.415377   2.424452   0.000000
     5  H    2.215415   1.100227   2.180355   2.081237   0.000000
     6  O    2.317108   2.373082   1.449374   3.089772   3.275826
     7  H    3.254606   2.145453   1.098017   2.450820   2.740496
     8  C    3.251105   2.525857   1.504565   3.682872   2.569897
     9  C    1.521240   2.351624   2.350906   2.886031   3.337740
    10  H    1.099448   2.180008   2.753356   3.347349   2.473123
    11  O    1.422155   2.470810   3.653942   2.717180   2.982310
    12  C    2.578792   3.757048   3.623821   4.373268   4.625434
    13  H    2.140016   2.703877   2.880127   2.656685   3.775767
    14  O    3.100469   4.223113   3.881223   5.177180   4.876216
    15  H    2.777469   4.180233   4.398806   4.688168   4.980998
    16  H    3.500409   4.487988   4.140691   4.909809   5.450764
    17  H    1.950305   2.865583   4.168436   3.253840   3.034374
    18  H    2.368139   1.927160   3.183295   0.965829   2.494891
    19  H    3.467394   4.296764   3.609734   5.279417   4.959646
    20  C    3.566745   3.379719   2.510820   4.694506   3.400827
    21  N    4.796282   4.551162   3.753314   5.876232   4.335516
    22  C    5.663298   5.077116   4.307965   6.288083   4.661398
    23  N    5.469557   4.547339   3.805992   5.568531   4.082163
    24  C    4.428043   3.342846   2.559585   4.261400   3.028055
    25  H    3.256942   3.536467   2.784173   4.847066   3.765389
    26  H    5.329207   5.317828   4.568754   6.683192   5.130794
    27  O    6.788954   6.266531   5.535711   7.491394   5.786064
    28  O    4.759397   3.397022   2.814293   3.925496   3.084535
                    6          7          8          9         10
     6  O    0.000000
     7  H    2.091788   0.000000
     8  C    2.457965   2.125114   0.000000
     9  C    1.415854   3.064362   3.467513   0.000000
    10  H    2.705275   3.796121   3.120359   2.159554   0.000000
    11  O    3.559227   4.366077   4.613808   2.412604   2.090667
    12  C    2.393685   4.397715   4.424324   1.516813   2.732682
    13  H    2.085354   3.270038   4.234347   1.106648   3.048186
    14  O    2.786653   4.801384   4.191034   2.445583   2.731649
    15  H    3.331360   5.198197   5.229526   2.143852   2.918621
    16  H    2.743901   4.721878   5.025378   2.147756   3.784543
    17  H    4.254406   4.940017   4.900708   3.216961   2.213270
    18  H    3.613956   3.366092   4.414096   3.019669   3.362049
    19  H    2.478364   4.445843   3.783499   2.644665   3.149690
    20  C    2.864570   3.326138   1.348075   3.736136   3.048228
    21  N    4.205940   4.438926   2.349218   5.077760   4.138940
    22  C    5.089131   4.748572   2.805113   6.060971   5.120179
    23  N    4.875470   3.994854   2.446995   5.903722   5.162418
    24  C    3.780780   2.654268   1.479705   4.803780   4.346129
    25  H    2.600944   3.734632   2.143000   3.237600   2.628519
    26  H    4.800640   5.325295   3.263167   5.565999   4.537516
    27  O    6.261724   5.969033   4.031582   7.212116   6.154798
    28  O    4.181141   2.479898   2.352529   5.143493   4.926590
                   11         12         13         14         15
    11  O    0.000000
    12  C    3.183507   0.000000
    13  H    2.518731   2.138867   0.000000
    14  O    3.953218   1.415952   3.369723   0.000000
    15  H    2.886579   1.099151   2.515127   2.029412   0.000000
    16  H    4.049629   1.103033   2.385875   2.081938   1.779391
    17  H    0.960411   3.872905   3.459395   4.408528   3.492464
    18  H    2.144284   4.374533   2.666488   5.285233   4.459130
    19  H    4.534586   1.921659   3.575847   0.962869   2.811934
    20  C    4.945454   4.256704   4.712901   3.601494   5.047776
    21  N    6.117369   5.486861   6.068245   4.634298   6.236431
    22  C    6.952008   6.684348   6.955685   5.958854   7.444216
    23  N    6.720062   6.800557   6.645664   6.340903   7.576646
    24  C    5.669021   5.875536   5.432799   5.664276   6.654893
    25  H    4.591697   3.418346   4.303840   2.574729   4.191856
    26  H    6.602792   5.722520   6.616054   4.665800   6.421678
    27  O    8.046381   7.727752   8.141120   6.874024   8.463330
    28  O    5.849734   6.408362   5.548389   6.439823   7.154266
                   16         17         18         19         20
    16  H    0.000000
    17  H    4.829471   0.000000
    18  H    4.962359   2.658849   0.000000
    19  H    2.269684   5.040336   5.552444   0.000000
    20  C    4.915573   5.143945   5.280856   3.158038   0.000000
    21  N    6.142321   6.181953   6.472643   4.168446   1.358263
    22  C    7.323466   6.968710   6.971556   5.474432   2.428671
[...]
 07452,0.00008493,0.00001639,0.00001447,0.00003130,0.00000427,-0.000122
 12,-0.00002397,-0.00007333,-0.00009719,-0.00020754,-0.00042005,-0.0007
 3468,-0.09041427,0.00904395,-0.08459167,0.21310597,-0.14712791,0.20515
 241,-0.00108583,-0.00007127,0.00061141,-0.00064358,-0.00150889,0.00066
 663,-0.00414005,0.00119467,-0.00082201,0.00171522,0.00125299,-0.000050
 88,-0.00035684,-0.00012062,0.00019322,0.00330344,-0.00096673,-0.000132
 08,0.00147122,0.00051168,0.00074300,0.00210284,0.00942962,-0.00380323,
 -0.00190319,0.00011813,0.00096872,-0.00005128,0.00022627,0.00027765,0.
 00158616,0.00025563,-0.00102912,-0.00038956,0.00001129,-0.00040394,0.0
 0049222,0.00011081,-0.00000338,0.00095100,-0.00054190,-0.00007656,0.00
 024942,-0.00007605,-0.00010538,0.00001688,-0.00005595,0.00021233,-0.00
 021193,0.00000601,0.00031594,-0.00011555,0.00002685,0.00006327,-0.0011
 5377,0.00073749,0.00025103,-0.03822360,-0.00046666,-0.01918865,-0.1219
 1055,0.02269497,-0.03938887,0.69333925,0.00009869,0.00018230,0.0007383
 3,-0.00083755,0.00049530,-0.00182022,0.00120241,-0.00374803,-0.0006090
 9,0.00058968,-0.00034425,0.00089697,-0.00175172,0.00016904,0.00056942,
 0.00208539,-0.00150711,0.00119321,-0.00207626,-0.00051811,-0.00130810,
 0.00342815,-0.02271000,0.01363817,0.00005248,-0.00017623,0.00023982,-0
 .00012619,0.00007750,-0.00012348,0.00022864,-0.00034576,-0.00013295,0.
 00031461,0.00029607,0.00013117,0.00009554,-0.00001519,-0.00005972,0.00
 008346,-0.00092021,-0.00008454,-0.00000600,-0.00000392,-0.00001444,0.0
 0001531,-0.00010700,0.00003805,-0.00019737,0.00018095,0.00008679,-0.00
 027337,0.00000579,-0.00002666,-0.00058093,0.00096978,-0.00012769,0.041
 89086,0.04355220,0.00152671,-0.01566206,-0.15211072,0.02636037,0.24200
 574,0.67282103,-0.00057325,0.00008773,0.00010363,-0.00012780,-0.000781
 18,0.00119332,-0.00250798,0.00182508,-0.00064145,0.00079974,0.00070601
 ,-0.00047338,0.00046641,-0.00014712,-0.00014309,0.00123917,0.00001298,
 -0.00022299,0.00130520,0.00031825,0.00075146,0.00076053,0.01155524,-0.
 00717157,-0.00115574,0.00015287,0.00056251,0.00003970,0.00007279,0.000
 17324,0.00078380,0.00016453,-0.00058808,-0.00024667,-0.00004046,-0.000
 20863,0.00025318,0.00005623,-0.00000361,0.00052575,-0.00016590,-0.0002
 6369,0.00012628,-0.00004440,-0.00006515,-0.00002923,0.00001142,0.00006
 751,-0.00002847,-0.00001468,0.00015934,0.00004873,0.00005715,0.0000688
 8,-0.00050927,0.00020411,0.00046654,-0.03095320,-0.01589489,-0.0100802
 5,-0.02925430,0.04533576,-0.09328287,0.17605776,-0.01822525,0.32471256
 ,0.00029933,-0.00019029,-0.00101607,0.00095376,0.00052359,0.00075833,0
 .00166685,0.00500358,-0.00035696,-0.00112163,-0.00043215,-0.00042898,0
 .00135264,-0.00022441,-0.00049241,-0.00442308,0.00155704,-0.00063045,0
 .00052678,-0.00008148,0.00047697,-0.02950177,0.00091126,-0.02682022,0.
 00102010,0.00008521,-0.00103829,0.00005796,-0.00007401,0.00001231,-0.0
 0084752,0.00013356,0.00066416,-0.00012218,-0.00025099,0.00007349,-0.00
 037598,-0.00004200,0.00012067,-0.00028771,0.00074667,0.00022722,-0.000
 10442,0.00008188,0.00007058,0.00000576,0.00008435,-0.00010291,0.000168
 48,-0.00012656,-0.00020662,0.00022441,-0.00001641,-0.00001729,0.000578
 00,-0.00080723,-0.00027432,-0.01741440,-0.01284871,-0.00243579,0.03243
 889,0.01559133,0.00058253,-0.11235004,-0.05170785,-0.00496130,0.430059
 29,-0.00027826,-0.00015125,-0.00101472,0.00012976,-0.00051725,0.001900
 09,0.00020115,-0.00220406,0.00179812,-0.00080614,0.00045267,-0.0008719
 6,0.00218365,-0.00032697,-0.00100854,0.00085240,0.00079965,-0.00030780
 ,0.00103979,0.00036416,0.00094568,0.00579915,0.02962894,-0.00345476,-0
 .00005340,0.00021928,0.00050720,0.00001877,-0.00004128,0.00009144,-0.0
 0033328,0.00041094,0.00025140,-0.00027183,-0.00030925,-0.00030082,0.00
 006297,0.00001184,-0.00003265,0.00020735,0.00075429,0.00013387,0.00002
 034,-0.00001649,0.00002057,0.00000239,0.00014800,-0.00001970,0.0001775
 7,-0.00021011,-0.00014006,0.00032526,-0.00004626,-0.00000894,0.0000714
 0,-0.00069005,-0.00002348,-0.02863141,-0.02003587,-0.00613420,0.031896
 18,-0.04492682,0.03581346,-0.03786789,-0.30331204,0.05719460,0.2102138
 3,0.57066219,0.00011789,-0.00018930,-0.00043969,0.00003044,0.00036387,
 -0.00016750,0.00044999,0.00357771,0.00168246,-0.00049380,-0.00026021,0
 .00002620,0.00039567,-0.00008290,-0.00023576,-0.00312219,0.00063008,-0
 .00087619,0.00044122,-0.00016449,-0.00006898,-0.02492040,-0.00212072,0
 .00759223,0.00074072,0.00000442,-0.00076065,-0.00001944,0.00006460,0.0
 0000941,-0.00032313,0.00002088,0.00039687,-0.00010581,-0.00011572,-0.0
 0001169,-0.00023348,-0.00003721,0.00011190,-0.00000079,0.00016272,0.00
 017886,-0.00004113,0.00005843,0.00004643,0.00002982,0.00000393,-0.0000
 0138,-0.00002113,-0.00006080,-0.00010606,0.00001209,-0.00003802,-0.000
 05093,0.00015259,-0.00020603,-0.00019077,0.00066798,-0.00077704,0.0001
 8489,-0.00352260,0.03025973,0.00700826,-0.00907182,0.04668253,-0.09015
 693,0.12587386,-0.04860151,0.13849727,-0.00053317,0.00032410,0.0006732
 4,-0.00163266,0.00048834,-0.00096440,-0.01724787,0.01064613,-0.0123659
 7,0.00196029,0.00069891,0.00061970,-0.00306357,-0.00114472,0.00101276,
 -0.00143848,-0.00082136,-0.00082377,-0.00079868,-0.00001445,-0.0008372
 3,-0.14880974,0.01711842,-0.03322444,-0.00087319,-0.00021777,-0.000349
 00,-0.00012194,0.00013899,0.00026893,0.00111784,0.00000697,-0.00068528
 ,-0.00040279,-0.00009931,-0.00029574,0.00006353,0.00008829,0.00013573,
 0.00110911,-0.00075451,-0.00027634,0.00021273,0.00001670,-0.00001769,0
 .00001543,-0.00009623,0.00015658,-0.00018738,0.00007286,0.00026213,-0.
 00012897,0.00008147,0.00007942,-0.00141811,0.00110046,0.00057275,0.049
 86080,0.03102695,0.00982470,-0.04338986,0.00492816,-0.01946992,-0.0131
 2855,-0.05981681,0.02163192,-0.25954063,-0.06860177,-0.07826982,0.5239
 5469,0.00174623,0.00066964,0.00261294,-0.00007369,0.00177436,-0.005111
 22,0.00190319,0.02092201,-0.00463945,0.00147930,-0.00189391,0.00261922
 ,-0.00637365,0.00000436,0.00301963,-0.00948497,-0.00164735,-0.00125577
 ,-0.00265891,-0.00203886,-0.00297981,0.02746650,-0.10853122,0.02372316
 ,0.00214970,-0.00095591,-0.00338231,0.00008563,-0.00007730,-0.00063050
 ,-0.00011500,-0.00147379,0.00000645,0.00112978,0.00080519,0.00132103,-
 0.00086846,-0.00014199,0.00030117,-0.00214742,-0.00046250,-0.00009356,
 -0.00029383,0.00010441,0.00000142,-0.00007475,-0.00040129,-0.00015905,
 -0.00032974,0.00052772,0.00018350,-0.00079706,0.00014349,0.00001244,0.
 00196623,-0.00061536,-0.00017328,0.01404407,-0.03066382,0.01771305,0.0
 0487010,0.00832688,-0.00226494,-0.04246850,-0.04618760,-0.01511044,-0.
 04769126,-0.11716970,-0.00596322,0.12685370,0.81462811,-0.00045714,-0.
 00025447,-0.00013612,-0.00030029,-0.00035898,0.00138040,-0.00942281,0.
 00073438,-0.00461912,0.00028862,0.00064813,-0.00055596,0.00122077,0.00
 034355,-0.00009781,0.00377086,-0.00023247,0.00245991,0.00070541,0.0000
 6379,0.00074845,-0.03683006,0.01335336,-0.10302309,-0.00174437,0.00015
 174,0.00075540,0.00005370,-0.00002728,0.00017553,0.00043800,0.00035259
 ,-0.00036820,-0.00037927,-0.00016196,-0.00028071,0.00032244,0.00010740
 ,-0.00007794,0.00068686,-0.00022904,-0.00001986,0.00013012,-0.00004735
 ,-0.00006816,0.00000219,0.00008289,0.00005950,0.00005988,-0.00005167,0
 .00009144,0.00011999,0.00000578,0.00004456,-0.00087601,0.00106573,0.00
 008995,0.01667253,0.02875992,0.00367167,-0.02056083,-0.00165405,-0.015
 29709,0.01573981,-0.02375605,-0.00523610,-0.08425907,-0.01735106,-0.09
 650580,0.11310925,-0.08835081,0.29041408,-0.00001059,-0.00004868,0.000
 12855,-0.00024442,0.00018030,-0.00024853,-0.00159330,0.00031367,0.0015
 1024,-0.00001499,0.00005157,0.00002202,0.00002479,0.00004039,-0.000047
 97,-0.00205092,-0.00239194,-0.00045743,0.00036246,0.00032873,0.0001289
 3,0.01058659,-0.00180855,0.00160927,-0.00064678,0.00023260,0.00061881,
 -0.00000729,0.00001969,-0.00000818,0.00005321,0.00005792,-0.00010269,-
 0.00015567,-0.00001566,0.00014333,0.00019346,-0.00000243,-0.00008933,-
 0.00057565,-0.00015084,0.00008583,-0.00007127,-0.00002342,-0.00010490,
 -0.00010663,0.00004855,-0.00003599,-0.00000181,0.00001175,0.00000930,0
 .00000365,-0.00003623,0.00000327,0.00016281,0.00071056,0.00116541,-0.1
 3857655,0.09190481,-0.08846911,-0.01891536,0.02105380,-0.01891707,0.00
 147643,-0.00781703,0.00152046,0.00025488,0.00130623,0.00089091,0.00088
 340,-0.00279864,-0.00399265,0.15155033,0.00015268,-0.00012675,0.000117
 19,0.00021235,-0.00000464,0.00018013,0.00292766,-0.00103652,-0.0005730
 9,-0.00011648,0.00011545,-0.00008326,0.00018824,0.00007129,-0.00013503
 ,0.00014883,0.00104569,-0.00118591,-0.00049728,-0.00024570,-0.00006587
 ,0.01871521,-0.01042087,0.01693514,-0.00074555,0.00051955,0.00044753,0
 .00002628,-0.00003859,-0.00004992,0.00001670,0.00011129,-0.00020891,-0
 .00004751,0.00003185,-0.00004870,0.00024020,0.00001379,-0.00009272,0.0
 0024535,-0.00021605,-0.00034108,0.00008378,-0.00004503,0.00000786,0.00
 000951,0.00005106,0.00000030,0.00003253,0.00000744,-0.00001053,0.00001
 339,-0.00005063,0.00001812,-0.00001429,0.00052936,0.00041568,0.0964275
 4,-0.16218928,0.10056834,-0.01000488,0.01062648,-0.00829916,-0.0017556
 9,-0.00049071,0.00082438,0.00076254,0.00055169,-0.00073309,-0.00730199
 ,-0.00158593,0.00168076,-0.10154284,0.16493233,0.00011604,0.00015769,0
 .00002509,0.00025098,0.00003045,0.00062018,0.00060631,-0.00060113,-0.0
 0433948,0.00028764,-0.00000773,-0.00011163,-0.00005662,0.00001303,0.00
 002507,-0.00048512,-0.00223014,-0.00064566,-0.00063563,-0.00032205,-0.
 00013405,-0.00674277,0.00383716,0.00419520,-0.00002163,0.00026862,0.00
 007380,-0.00003773,0.00005509,-0.00012087,-0.00000433,-0.00018187,-0.0
 0003737,0.00102157,0.00054658,0.00071707,-0.00000751,-0.00008240,-0.00
 005654,-0.00172802,-0.00027212,0.00021973,-0.00020296,-0.00009105,-0.0
 0008010,-0.00011882,-0.00002652,-0.00016903,0.00000024,0.00004459,-0.0
 0000507,0.00000111,0.00012332,0.00001810,0.00315126,-0.00036768,-0.001
 93666,-0.09311764,0.10134983,-0.12699640,-0.00558675,0.00620119,-0.002
 69123,-0.00066314,-0.00138598,0.00399216,0.00081743,-0.00036331,-0.001
 68075,-0.00102583,0.00216495,0.00888987,0.10415657,-0.10884187,0.12424
 741,-0.00000810,-0.00006005,0.00001369,0.00005034,0.00005788,-0.000272
 46,0.00095340,-0.00156930,-0.00015007,-0.00011862,-0.00001670,0.000086
 12,-0.00005349,0.00000251,0.00002256,-0.00002829,0.00037898,0.00011670
 ,-0.00038673,-0.00010279,-0.00010828,-0.00439742,0.00027697,-0.0041658
 7,0.00016435,-0.00003745,-0.00007393,0.00000991,-0.00002106,0.00000512
 ,-0.00003336,0.00005268,0.00002971,-0.00024320,-0.00016656,-0.00013649
 ,-0.00001735,0.00002175,0.00001454,0.00031892,0.00032865,0.00006521,0.
 00004008,0.00003240,0.00001065,0.00001448,0.00000704,0.00003122,-0.000
 00486,-0.00001624,-0.00000567,-0.00000875,-0.00004634,0.00000381,-0.00
 022936,-0.00041905,-0.00000385,-0.00544699,-0.02884598,0.01119193,-0.0
 8163155,-0.10307155,-0.00565653,0.01587406,0.02191844,0.00214433,-0.00
 271512,0.00363489,-0.00455905,-0.00111820,-0.00070455,-0.00028371,-0.0
 0008209,0.00067342,0.00066958,0.08091562,-0.00006803,-0.00002297,0.000
 02291,-0.00019256,-0.00014696,-0.00005972,-0.00036772,0.00034506,0.000
 90943,0.00006178,0.00005595,0.00001178,-0.00001730,-0.00000818,-0.0000
 1450,0.00026745,-0.00009127,-0.00008230,0.00030405,0.00010441,0.000166
 19,-0.00091301,0.00414353,-0.00110917,-0.00017461,0.00003021,0.0000714
 1,-0.00000699,0.00003569,0.00002242,0.00011153,0.00000635,-0.00006498,
 0.00006278,0.00006211,0.00002545,0.00003542,-0.00000142,-0.00000281,-0
 .00008700,-0.00015744,-0.00000593,0.00000100,-0.00001364,-0.00001133,-
 0.00000255,-0.00000746,0.00000560,-0.00001439,0.00000539,0.00002030,-0
 .00001343,-0.00000590,-0.00000354,-0.00001689,0.00016763,0.00001314,0.
 00160632,-0.00456241,-0.00061328,-0.10670738,-0.41946223,0.08325823,-0
 .00996082,-0.01741921,-0.00056701,0.00253740,-0.00081593,0.00303339,0.
 00355925,0.00004745,0.00157331,0.00012434,0.00072788,-0.00083121,0.111
 05520,0.43414568,0.00013108,-0.00002747,0.00001643,-0.00029193,0.00003
 570,-0.00040531,-0.00090337,0.00003259,0.00238950,-0.00027559,-0.00018
 567,0.00007512,0.00003161,0.00001571,-0.00002822,0.00003978,0.00009149
 ,-0.00023203,0.00032834,0.00005440,0.00006417,-0.00283694,-0.00060752,
 0.00263304,-0.00004256,-0.00000924,0.00001655,-0.00001286,0.00000237,-
 0.00001827,-0.00009601,-0.00001668,0.00002723,0.00012678,0.00002980,0.
 00010544,-0.00001263,-0.00001363,-0.00001441,-0.00020490,-0.00003407,-
 0.00018536,-0.00001228,-0.00000616,-0.00000534,-0.00003722,0.00001475,
 -0.00004732,0.00001689,0.00001852,-0.00001291,-0.00002305,-0.00005253,
 -0.00001651,0.00009644,0.00008446,0.00024448,0.00266221,-0.01395977,-0
 .00310511,-0.00628213,0.08178232,-0.03396935,0.01287545,0.01698323,-0.
 00026412,-0.00443095,0.00389498,-0.00009226,-0.00211472,-0.00023080,-0
 .00150234,0.00092652,-0.00070204,-0.00117787,-0.00132276,-0.08288835,0
 .03720604,0.00076515,0.00002261,-0.00053841,0.00051092,0.00097757,-0.0
 0028150,0.00256150,-0.00059430,0.00074124,-0.00136674,-0.00086478,-0.0
 0006078,0.00049216,0.00003773,-0.00026689,-0.00255335,0.00045228,0.000
 03634,-0.00089292,-0.00026986,-0.00034208,-0.00416912,0.00166916,-0.00
 020894,0.00147680,-0.00016266,-0.00075351,0.00002616,-0.00016517,-0.00
 019732,-0.00119599,-0.00015723,0.00080029,0.00031149,-0.00004426,0.000
 28025,-0.00039929,-0.00008057,0.00002244,-0.00077878,0.00059588,0.0001
 4377,-0.00018286,0.00005211,0.00008298,-0.00000825,0.00005515,-0.00016
 093,0.00017513,-0.00002507,-0.00024004,0.00011542,-0.00001390,-0.00005
 277,0.00096866,-0.00081522,-0.00036763,0.00022559,0.00611349,-0.004467
 21,-0.07017690,-0.00713983,-0.04824925,-0.42568347,-0.18788894,-0.1260
 7371,-0.02221114,-0.04957075,-0.00647234,0.01746621,0.00652960,0.00162
 968,-0.00261111,-0.00059560,-0.00083482,-0.00216084,-0.00039916,0.0010
 4514,0.51392259,0.00026217,-0.00007676,-0.00040989,0.00045676,0.000261
 34,0.00038758,0.00101882,0.00064049,0.00000443,-0.00067455,-0.00018994
 ,-0.00023842,0.00061823,-0.00002836,-0.00026654,-0.00161795,0.00065818
 ,-0.00029908,0.00004320,0.00003360,0.00019297,-0.00289314,0.00650346,-
 0.00458510,0.00059656,-0.00002598,-0.00037929,0.00003840,-0.00009271,-
 0.00004351,-0.00053772,0.00006792,0.00036374,-0.00005590,-0.00015879,0
 .00002485,-0.00018377,-0.00001682,0.00003294,-0.00022757,0.00060177,0.
 00014139,-0.00005855,0.00002911,0.00003906,0.00000264,0.00005491,-0.00
 006002,0.00011539,-0.00007637,-0.00012117,0.00012194,-0.00002009,-0.00
 001791,0.00048179,-0.00067856,-0.00015124,-0.01040599,-0.00693935,-0.0
 0001183,0.01986983,0.02506705,0.00793725,-0.18605201,-0.19503866,-0.06
 404694,-0.06992008,-0.05368064,-0.01555586,0.02004805,0.00534919,0.012
 11209,0.00053527,0.00010032,0.00004004,-0.00386138,0.00235358,-0.00380
 981,0.23955438,0.22446585,0.00028747,-0.00005345,-0.00021910,0.0001962
 2,0.00040661,-0.00032092,0.00133160,-0.00072976,-0.00024285,-0.0004993
 3,-0.00033720,0.00012598,0.00003851,0.00002436,-0.00002022,-0.00090376
 ,0.00001688,0.00017287,-0.00060175,-0.00012260,-0.00024297,-0.00058600
 ,-0.00168870,-0.00069398,0.00069148,-0.00007701,-0.00035656,-0.0000049
 0,-0.00004794,-0.00008557,-0.00048075,-0.00004919,0.00037968,0.0000819
 3,-0.00001908,0.00007655,-0.00016353,-0.00002798,0.00001907,-0.0002838
 3,0.00024976,0.00022582,-0.00007959,0.00002541,0.00003531,0.00002245,0
 .00000484,-0.00003224,0.00003588,-0.00002526,-0.00011138,0.00002065,-0
 .00002422,-0.00003927,0.00041448,-0.00032756,-0.00035041,0.00075032,0.
 00721253,0.00159908,-0.05660260,-0.00571179,-0.00772018,-0.12721786,-0
 .06435735,-0.13022098,0.00114212,-0.00629732,0.01925103,-0.00272266,0.
 00532787,0.00772725,-0.00164577,-0.00032071,-0.00051883,0.00195506,-0.
 00209876,-0.00161240,0.18373347,0.07012714,0.11416846,-0.00070955,-0.0
 0003133,-0.00283040,-0.00364299,0.00157086,0.00550512,-0.00000761,-0.0
 0263720,0.00281188,-0.00194845,-0.00059624,-0.00203223,-0.00242297,0.0
 0205423,-0.00253029,0.00069010,0.00123768,-0.00006734,0.00090559,0.000
 27018,0.00094030,0.01739209,0.02321513,-0.00929184,-0.00033466,0.00061
 957,0.00090226,0.00000974,-0.00014008,0.00013080,-0.00092321,0.0003907
 0,0.00070524,-0.00031188,-0.00039047,-0.00046866,-0.00001218,0.0000023
 0,-0.00004921,0.00029953,0.00060742,0.00013156,-0.00000883,-0.00000665
 ,0.00004299,0.00001993,0.00028030,-0.00006154,0.00025441,-0.00021644,-
 0.00027415,0.00043715,0.00004315,-0.00007545,-0.00012530,-0.00028733,-
 0.00012698,-0.01053320,-0.00187516,-0.00471321,0.00844050,-0.00416424,
 0.00605836,-0.00123034,0.01473267,-0.01128202,-0.01859154,-0.07172836,
 0.00137374,-0.10281024,-0.07334359,0.00415608,0.00011243,0.00174588,0.
 00019058,0.00034316,-0.00078467,0.00061965,-0.00462700,-0.00727483,0.0
 0109070,0.11933531,-0.00093001,-0.00053816,-0.00145963,0.00066318,-0.0
 0095187,0.00235900,-0.00554059,-0.00510164,-0.00205105,-0.00032042,0.0
 0177167,-0.00106052,0.00382205,-0.00108779,-0.00135448,0.00206303,0.00
 221330,0.00006148,0.00174261,0.00109485,0.00181854,0.01025449,-0.06367
 801,0.02233502,-0.00141969,0.00057541,0.00124454,-0.00004251,0.0000789
 0,0.00045156,0.00019652,0.00104293,-0.00002621,-0.00105484,-0.00073997
 ,-0.00089012,0.00042307,0.00010780,-0.00005324,0.00170119,0.00056746,0
 .00008100,0.00023821,-0.00000535,0.00001621,0.00004618,0.00024628,0.00
 013065,0.00018809,-0.00039362,-0.00010779,0.00056927,-0.00011834,0.000
 02050,-0.00161057,0.00030494,0.00031263,0.00862207,0.00471055,0.003226
 24,-0.00044263,-0.00794833,0.00258628,0.00333083,0.02620482,-0.0035408
 7,-0.05381880,-0.05954968,-0.00995617,-0.07832882,-0.53945626,0.071439
 75,-0.00028394,-0.00298477,0.00077253,0.00049818,0.00048410,-0.0004965
 7,-0.00727267,-0.00916377,-0.00107954,0.11670653,0.65231456,-0.0000360
 4,-0.00002869,0.00054998,0.00049313,0.00025398,-0.00218535,0.00324180,
 -0.00077477,-0.00159649,0.00101006,0.00014644,0.00162165,-0.00161664,-
 0.00014350,0.00053162,-0.00120300,0.00005279,0.00066619,0.00015329,0.0
 0012148,0.00069088,-0.00545865,0.03145354,0.01320918,0.00104022,0.0000
 1940,-0.00063002,-0.00001365,0.00008472,-0.00010534,-0.00021644,-0.000
 22222,0.00027684,0.00008886,0.00012842,0.00033253,-0.00015523,-0.00005
 236,0.00003283,-0.00041370,-0.00005396,0.00009189,-0.00009205,0.000075
 34,0.00002219,0.00001474,-0.00013353,-0.00002329,-0.00017273,0.0001251
 0,-0.00000567,-0.00024231,0.00008669,-0.00001342,0.00048513,-0.0003007
 1,-0.00017598,-0.00805673,-0.00188350,-0.00043162,0.00464632,-0.000148
 31,0.00181576,-0.00701931,0.00294674,0.00677174,-0.00334802,-0.0166206
 0,0.01635954,0.00509572,0.07133833,-0.08871968,0.00120021,0.00049646,-
 0.00232214,0.00037844,-0.00078069,-0.00008886,0.00105252,-0.00140686,-
 0.00099325,0.00914406,-0.08477976,0.05431830\\-0.00000590,-0.00000137,
 0.00000814,-0.00000595,-0.00000394,0.00000429,0.00000008,-0.00000279,-
 0.00001239,0.00000145,0.00000733,-0.00000842,-0.00000153,0.00000125,0.
 00000061,-0.00000689,-0.00000430,0.00001005,-0.00000175,-0.00000151,-0
 .00000050,0.00000665,-0.00000545,0.00000391,0.00000529,0.00000257,-0.0
 0001182,0.00000126,0.00000144,-0.00000223,0.00000180,-0.00000471,-0.00
 000048,-0.00000174,0.00000223,-0.00000083,0.00000075,0.,0.00000109,0.0
 0000191,0.00000011,0.00000016,-0.00000125,-0.00000245,-0.00000125,-0.0
 0000242,0.00000084,-0.00000115,-0.00000051,0.00000538,-0.00000127,0.00
 000833,-0.00000191,0.00000404,0.00000359,-0.00000449,-0.00000006,-0.00
 000515,0.00000893,0.00000307,0.00001132,-0.00000631,-0.00001673,-0.000
 01237,-0.00000423,0.00000944,0.00000281,0.00000122,-0.00000695,-0.0000
 0988,0.00001229,0.00000687,0.00000115,-0.00000138,0.00000199,-0.000004
 65,0.00000345,0.00000881,0.00000951,0.00000343,0.00000156,0.00000407,-
 0.00000564,0.00000005\\\@
 The archive entry for this job was punched.


 When cryptography is outlawed, bayl bhgynjf jvyy unir cevinpl.
 Job cpu time:       0 days  9 hours 52 minutes 16.6 seconds.
 Elapsed time:       0 days  0 hours 14 minutes 55.8 seconds.
 File lengths (MBytes):  RWF=    600 Int=      0 D2E=      0 Chk=     20 Scr=      1
 Normal termination of Gaussian 16 at Sun Oct 27 02:14:34 2024.
