 Entering Gaussian System, Link 0=g16
 Input=PseudoUridineAmNsrrgPBE0aVDZ.gjf
 Output=PseudoUridineAmNsrrgPBE0aVDZ.log
 Initial command:
 /sw/contrib/chem-src/g16/c01/g16/l1.exe "/scr/Gau-4562.inp" -scrdir="/scr/"
 Entering Link 1 = /sw/contrib/chem-src/g16/c01/g16/l1.exe PID=      4563.
  
 Copyright (c) 1988-2019, Gaussian, Inc.  All Rights Reserved.
  
 This is part of the Gaussian(R) 16 program.  It is based on
 the Gaussian(R) 09 system (copyright 2009, Gaussian, Inc.),
 the Gaussian(R) 03 system (copyright 2003, Gaussian, Inc.),
 the Gaussian(R) 98 system (copyright 1998, Gaussian, Inc.),
 the Gaussian(R) 94 system (copyright 1995, Gaussian, Inc.),
 the Gaussian 92(TM) system (copyright 1992, Gaussian, Inc.),
 the Gaussian 90(TM) system (copyright 1990, Gaussian, Inc.),
 the Gaussian 88(TM) system (copyright 1988, Gaussian, Inc.),
 the Gaussian 86(TM) system (copyright 1986, Carnegie Mellon
 University), and the Gaussian 82(TM) system (copyright 1983,
 Carnegie Mellon University). Gaussian is a federally registered
 trademark of Gaussian, Inc.
  
 This software contains proprietary and confidential information,
 including trade secrets, belonging to Gaussian, Inc.
  
 This software is provided under written license and may be
 used, copied, transmitted, or stored only in accord with that
 written license.
  
 The following legend is applicable only to US Government
 contracts under FAR:
  
                    RESTRICTED RIGHTS LEGEND
  
 Use, reproduction and disclosure by the US Government is
 subject to restrictions as set forth in subparagraphs (a)
 and (c) of the Commercial Computer Software - Restricted
 Rights clause in FAR 52.227-19.
  
 Gaussian, Inc.
 340 Quinnipiac St., Bldg. 40, Wallingford CT 06492
  
  
 ---------------------------------------------------------------
 Warning -- This program may not be used in any manner that
 competes with the business of Gaussian, Inc. or will provide
 assistance to any competitor of Gaussian, Inc.  The licensee
 of this program is prohibited from giving any competitor of
 Gaussian, Inc. access to this program.  By using this program,
 the user acknowledges that Gaussian, Inc. is engaged in the
 business of creating and licensing software in the field of
 computational chemistry and represents and warrants to the
 licensee that it is not a competitor of Gaussian, Inc. and that
 it will not use this program in any manner prohibited above.
 ---------------------------------------------------------------
  

 Cite this work as:
 Gaussian 16, Revision C.01,
 M. J. Frisch, G. W. Trucks, H. B. Schlegel, G. E. Scuseria, 
 M. A. Robb, J. R. Cheeseman, G. Scalmani, V. Barone, 
 G. A. Petersson, H. Nakatsuji, X. Li, M. Caricato, A. V. Marenich, 
 J. Bloino, B. G. Janesko, R. Gomperts, B. Mennucci, H. P. Hratchian, 
 J. V. Ortiz, A. F. Izmaylov, J. L. Sonnenberg, D. Williams-Young, 
 F. Ding, F. Lipparini, F. Egidi, J. Goings, B. Peng, A. Petrone, 
 T. Henderson, D. Ranasinghe, V. G. Zakrzewski, J. Gao, N. Rega, 
 G. Zheng, W. Liang, M. Hada, M. Ehara, K. Toyota, R. Fukuda, 
 J. Hasegawa, M. Ishida, T. Nakajima, Y. Honda, O. Kitao, H. Nakai, 
 T. Vreven, K. Throssell, J. A. Montgomery, Jr., J. E. Peralta, 
 F. Ogliaro, M. J. Bearpark, J. J. Heyd, E. N. Brothers, K. N. Kudin, 
 V. N. Staroverov, T. A. Keith, R. Kobayashi, J. Normand, 
 K. Raghavachari, A. P. Rendell, J. C. Burant, S. S. Iyengar, 
 J. Tomasi, M. Cossi, J. M. Millam, M. Klene, C. Adamo, R. Cammi, 
 J. W. Ochterski, R. L. Martin, K. Morokuma, O. Farkas, 
 J. B. Foresman, and D. J. Fox, Gaussian, Inc., Wallingford CT, 2019.
 
 ******************************************
 Gaussian 16:  EM64L-G16RevC.01  3-Jul-2019
                27-Oct-2024 
 ******************************************
 %nprocshared=40
 Will use up to   40 processors via shared memory.
 %mem=50gb
 ------------------------------------------------------
 # PBE1PBE/aug-cc-pVDZ opt freq EmpiricalDispersion=GD3
 ------------------------------------------------------
 1/18=20,19=15,26=3,38=1/1,3;
 2/9=110,12=2,17=6,18=5,40=1/2;
 3/5=16,7=10,11=2,25=1,30=1,71=1,74=-13,124=31/1,2,3;
 4//1;
 5/5=2,38=5/2;
 6/7=2,8=2,9=2,10=2,28=1/1;
 7//1,2,3,16;
 1/18=20,19=15,26=3/3(2);
 2/9=110/2;
 99//99;
 2/9=110/2;
 3/5=16,7=10,11=2,25=1,30=1,71=1,74=-13,124=31/1,2,3;
 4/5=5,16=3,69=1/1;
 5/5=2,38=5/2;
 7//1,2,3,16;
 1/18=20,19=15,26=3/3(-5);
 2/9=110/2;
 6/7=2,8=2,9=2,10=2,19=2,28=1/1;
 99/9=1/99;
 ----
 blah
 ----
 Symbolic Z-matrix:
 Charge = -1 Multiplicity = 1
 C                    -2.09981  -0.19003   0.85461 
 C                    -1.21976  -1.37513   0.43824 
 C                    -0.46373  -0.78406  -0.7583 
 O                    -2.02742  -2.44173  -0.00086 
 H                    -0.52763  -1.70429   1.23003 
 O                    -1.29114   0.27101  -1.27392 
 H                    -0.34289  -1.56716  -1.51829 
 C                     0.89093  -0.25416  -0.3792 
 C                    -2.48125   0.37853  -0.50427 
 H                    -1.51705   0.55316   1.41959 
 O                    -3.26437  -0.58031   1.55855 
 C                    -2.95066   1.82006  -0.50867 
 H                    -3.28088  -0.25567  -0.92602 
 O                    -1.91672   2.73176  -0.17705 
 H                    -3.74149   1.93269   0.24476 
 H                    -3.3835    2.06577  -1.49135 
 H                    -3.06716  -0.61288   2.49873 
 H                    -2.81393  -2.44544   0.5611 
 H                    -1.322     2.74307  -0.93388 
 C                     1.11496   1.02595  -0.009 
 N                     2.35788   1.47759   0.34876 
 C                     3.4885    0.68161   0.36851 
 N                     3.23638  -0.62128  -0.00291 
 C                     2.01266  -1.18802  -0.37433 
 H                     0.3099    1.75728   0.02999 
 H                     4.03619  -1.24284   0.00427 
 O                     4.58588   1.098     0.68511 
 O                     1.94288  -2.37206  -0.65665 
 

 GradGradGradGradGradGradGradGradGradGradGradGradGradGradGradGradGradGrad
 Berny optimization.
 Initialization pass.
                           ----------------------------
                           !    Initial Parameters    !
                           ! (Angstroms and Degrees)  !
 --------------------------                            --------------------------
 ! Name  Definition              Value          Derivative Info.                !
 --------------------------------------------------------------------------------
 ! R1    R(1,2)                  1.5337         estimate D2E/DX2                !
 ! R2    R(1,9)                  1.5216         estimate D2E/DX2                !
 ! R3    R(1,10)                 1.1005         estimate D2E/DX2                !
 ! R4    R(1,11)                 1.4156         estimate D2E/DX2                !
 ! R5    R(2,3)                  1.5338         estimate D2E/DX2                !
 ! R6    R(2,4)                  1.4081         estimate D2E/DX2                !
 ! R7    R(2,5)                  1.102          estimate D2E/DX2                !
 ! R8    R(3,6)                  1.4365         estimate D2E/DX2                !
 ! R9    R(3,7)                  1.0979         estimate D2E/DX2                !
 ! R10   R(3,8)                  1.5032         estimate D2E/DX2                !
 ! R11   R(4,18)                 0.9667         estimate D2E/DX2                !
 ! R12   R(6,9)                  1.4214         estimate D2E/DX2                !
 ! R13   R(8,20)                 1.3513         estimate D2E/DX2                !
 ! R14   R(8,24)                 1.4596         estimate D2E/DX2                !
 ! R15   R(9,12)                 1.516          estimate D2E/DX2                !
 ! R16   R(9,13)                 1.1043         estimate D2E/DX2                !
 ! R17   R(11,17)                0.9612         estimate D2E/DX2                !
 ! R18   R(12,14)                1.4178         estimate D2E/DX2                !
 ! R19   R(12,15)                1.0981         estimate D2E/DX2                !
 ! R20   R(12,16)                1.1015         estimate D2E/DX2                !
 ! R21   R(14,19)                0.9626         estimate D2E/DX2                !
 ! R22   R(20,21)                1.37           estimate D2E/DX2                !
 ! R23   R(20,25)                1.0883         estimate D2E/DX2                !
 ! R24   R(21,22)                1.3829         estimate D2E/DX2                !
 ! R25   R(22,23)                1.378          estimate D2E/DX2                !
 ! R26   R(22,27)                1.2157         estimate D2E/DX2                !
 ! R27   R(23,24)                1.3988         estimate D2E/DX2                !
 ! R28   R(23,26)                1.013          estimate D2E/DX2                !
 ! R29   R(24,28)                1.2192         estimate D2E/DX2                !
 ! A1    A(2,1,9)              100.9595         estimate D2E/DX2                !
 ! A2    A(2,1,10)             110.9362         estimate D2E/DX2                !
 ! A3    A(2,1,11)             113.2035         estimate D2E/DX2                !
 ! A4    A(9,1,10)             109.8089         estimate D2E/DX2                !
 ! A5    A(9,1,11)             109.9298         estimate D2E/DX2                !
 ! A6    A(10,1,11)            111.5007         estimate D2E/DX2                !
 ! A7    A(1,2,3)              101.3524         estimate D2E/DX2                !
 ! A8    A(1,2,4)              109.9274         estimate D2E/DX2                !
 ! A9    A(1,2,5)              113.3368         estimate D2E/DX2                !
 ! A10   A(3,2,4)              109.3506         estimate D2E/DX2                !
 ! A11   A(3,2,5)              111.472          estimate D2E/DX2                !
 ! A12   A(4,2,5)              110.9814         estimate D2E/DX2                !
 ! A13   A(2,3,6)              106.2084         estimate D2E/DX2                !
 ! A14   A(2,3,7)              108.6254         estimate D2E/DX2                !
 ! A15   A(2,3,8)              112.5379         estimate D2E/DX2                !
 ! A16   A(6,3,7)              109.8032         estimate D2E/DX2                !
 ! A17   A(6,3,8)              110.5288         estimate D2E/DX2                !
 ! A18   A(7,3,8)              109.0758         estimate D2E/DX2                !
 ! A19   A(2,4,18)             106.7567         estimate D2E/DX2                !
 ! A20   A(3,6,9)              110.0881         estimate D2E/DX2                !
 ! A21   A(3,8,20)             123.5355         estimate D2E/DX2                !
 ! A22   A(3,8,24)             117.8968         estimate D2E/DX2                !
 ! A23   A(20,8,24)            118.5412         estimate D2E/DX2                !
 ! A24   A(1,9,6)              104.2064         estimate D2E/DX2                !
 ! A25   A(1,9,12)             115.8171         estimate D2E/DX2                !
 ! A26   A(1,9,13)             107.9389         estimate D2E/DX2                !
 ! A27   A(6,9,12)             109.2451         estimate D2E/DX2                !
 ! A28   A(6,9,13)             110.8574         estimate D2E/DX2                !
 ! A29   A(12,9,13)            108.7089         estimate D2E/DX2                !
 ! A30   A(1,11,17)            109.0835         estimate D2E/DX2                !
 ! A31   A(9,12,14)            112.6405         estimate D2E/DX2                !
 ! A32   A(9,12,15)            108.5743         estimate D2E/DX2                !
 ! A33   A(9,12,16)            109.6544         estimate D2E/DX2                !
 ! A34   A(14,12,15)           107.3838         estimate D2E/DX2                !
 ! A35   A(14,12,16)           110.5959         estimate D2E/DX2                !
 ! A36   A(15,12,16)           107.8325         estimate D2E/DX2                !
 ! A37   A(12,14,19)           105.9148         estimate D2E/DX2                !
 ! A38   A(8,20,21)            122.295          estimate D2E/DX2                !
 ! A39   A(8,20,25)            121.5847         estimate D2E/DX2                !
 ! A40   A(21,20,25)           116.1181         estimate D2E/DX2                !
 ! A41   A(20,21,22)           123.7614         estimate D2E/DX2                !
 ! A42   A(21,22,23)           113.0035         estimate D2E/DX2                !
 ! A43   A(21,22,27)           122.9972         estimate D2E/DX2                !
 ! A44   A(23,22,27)           123.9991         estimate D2E/DX2                !
 ! A45   A(22,23,24)           127.9289         estimate D2E/DX2                !
 ! A46   A(22,23,26)           115.7076         estimate D2E/DX2                !
 ! A47   A(24,23,26)           116.3605         estimate D2E/DX2                !
 ! A48   A(8,24,23)            114.4556         estimate D2E/DX2                !
 ! A49   A(8,24,28)            125.2108         estimate D2E/DX2                !
 ! A50   A(23,24,28)           120.3331         estimate D2E/DX2                !
 ! D1    D(9,1,2,3)             38.3834         estimate D2E/DX2                !
 ! D2    D(9,1,2,4)            -77.2284         estimate D2E/DX2                !
 ! D3    D(9,1,2,5)            157.9368         estimate D2E/DX2                !
 ! D4    D(10,1,2,3)           -77.9547         estimate D2E/DX2                !
 ! D5    D(10,1,2,4)           166.4335         estimate D2E/DX2                !
 ! D6    D(10,1,2,5)            41.5987         estimate D2E/DX2                !
 ! D7    D(11,1,2,3)           155.8201         estimate D2E/DX2                !
 ! D8    D(11,1,2,4)            40.2084         estimate D2E/DX2                !
 ! D9    D(11,1,2,5)           -84.6265         estimate D2E/DX2                !
 ! D10   D(2,1,9,6)            -39.673          estimate D2E/DX2                !
 ! D11   D(2,1,9,12)          -159.685          estimate D2E/DX2                !
 ! D12   D(2,1,9,13)            78.2315         estimate D2E/DX2                !
 ! D13   D(10,1,9,6)            77.4955         estimate D2E/DX2                !
 ! D14   D(10,1,9,12)          -42.5165         estimate D2E/DX2                !
 ! D15   D(10,1,9,13)         -164.6            estimate D2E/DX2                !
 ! D16   D(11,1,9,6)          -159.4811         estimate D2E/DX2                !
 ! D17   D(11,1,9,12)           80.5069         estimate D2E/DX2                !
 ! D18   D(11,1,9,13)          -41.5766         estimate D2E/DX2                !
 ! D19   D(2,1,11,17)           89.5266         estimate D2E/DX2                !
 ! D20   D(9,1,11,17)         -158.421          estimate D2E/DX2                !
 ! D21   D(10,1,11,17)         -36.3978         estimate D2E/DX2                !
 ! D22   D(1,2,3,6)            -24.6749         estimate D2E/DX2                !
 ! D23   D(1,2,3,7)           -142.7276         estimate D2E/DX2                !
 ! D24   D(1,2,3,8)             96.391          estimate D2E/DX2                !
 ! D25   D(4,2,3,6)             91.3623         estimate D2E/DX2                !
 ! D26   D(4,2,3,7)            -26.6904         estimate D2E/DX2                !
 ! D27   D(4,2,3,8)           -147.5719         estimate D2E/DX2                !
 ! D28   D(5,2,3,6)           -145.5485         estimate D2E/DX2                !
 ! D29   D(5,2,3,7)             96.3988         estimate D2E/DX2                !
 ! D30   D(5,2,3,8)            -24.4827         estimate D2E/DX2                !
 ! D31   D(1,2,4,18)           -36.888          estimate D2E/DX2                !
 ! D32   D(3,2,4,18)          -147.3285         estimate D2E/DX2                !
 ! D33   D(5,2,4,18)            89.2915         estimate D2E/DX2                !
 ! D34   D(2,3,6,9)             -0.021          estimate D2E/DX2                !
 ! D35   D(7,3,6,9)            117.2485         estimate D2E/DX2                !
 ! D36   D(8,3,6,9)           -122.3701         estimate D2E/DX2                !
 ! D37   D(2,3,8,20)           -91.5865         estimate D2E/DX2                !
 ! D38   D(2,3,8,24)            86.51           estimate D2E/DX2                !
 ! D39   D(6,3,8,20)            26.975          estimate D2E/DX2                !
 ! D40   D(6,3,8,24)          -154.9285         estimate D2E/DX2                !
 ! D41   D(7,3,8,20)           147.7905         estimate D2E/DX2                !
 ! D42   D(7,3,8,24)           -34.113          estimate D2E/DX2                !
 ! D43   D(3,6,9,1)             25.2207         estimate D2E/DX2                !
 ! D44   D(3,6,9,12)           149.5682         estimate D2E/DX2                !
 ! D45   D(3,6,9,13)           -90.6572         estimate D2E/DX2                !
 ! D46   D(3,8,20,21)          179.1104         estimate D2E/DX2                !
 ! D47   D(3,8,20,25)           -0.324          estimate D2E/DX2                !
 ! D48   D(24,8,20,21)           1.0254         estimate D2E/DX2                !
 ! D49   D(24,8,20,25)        -178.409          estimate D2E/DX2                !
 ! D50   D(3,8,24,23)         -179.6061         estimate D2E/DX2                !
 ! D51   D(3,8,24,28)            0.1301         estimate D2E/DX2                !
 ! D52   D(20,8,24,23)          -1.4122         estimate D2E/DX2                !
 ! D53   D(20,8,24,28)         178.324          estimate D2E/DX2                !
 ! D54   D(1,9,12,14)           67.4161         estimate D2E/DX2                !
 ! D55   D(1,9,12,15)          -51.378          estimate D2E/DX2                !
 ! D56   D(1,9,12,16)         -168.9632         estimate D2E/DX2                !
 ! D57   D(6,9,12,14)          -49.8203         estimate D2E/DX2                !
 ! D58   D(6,9,12,15)         -168.6144         estimate D2E/DX2                !
 ! D59   D(6,9,12,16)           73.8004         estimate D2E/DX2                !
 ! D60   D(13,9,12,14)        -170.9105         estimate D2E/DX2                !
 ! D61   D(13,9,12,15)          70.2954         estimate D2E/DX2                !
 ! D62   D(13,9,12,16)         -47.2898         estimate D2E/DX2                !
 ! D63   D(9,12,14,19)          71.3792         estimate D2E/DX2                !
 ! D64   D(15,12,14,19)       -169.1337         estimate D2E/DX2                !
 ! D65   D(16,12,14,19)        -51.7174         estimate D2E/DX2                !
 ! D66   D(8,20,21,22)          -0.0986         estimate D2E/DX2                !
 ! D67   D(25,20,21,22)        179.3648         estimate D2E/DX2                !
 ! D68   D(20,21,22,23)         -0.3431         estimate D2E/DX2                !
 ! D69   D(20,21,22,27)        179.7998         estimate D2E/DX2                !
 ! D70   D(21,22,23,24)         -0.2009         estimate D2E/DX2                !
 ! D71   D(21,22,23,26)       -179.5381         estimate D2E/DX2                !
 ! D72   D(27,22,23,24)        179.6545         estimate D2E/DX2                !
 ! D73   D(27,22,23,26)          0.3173         estimate D2E/DX2                !
 ! D74   D(22,23,24,8)           1.0603         estimate D2E/DX2                !
 ! D75   D(22,23,24,28)       -178.69           estimate D2E/DX2                !
 ! D76   D(26,23,24,8)        -179.6062         estimate D2E/DX2                !
 ! D77   D(26,23,24,28)          0.6435         estimate D2E/DX2                !
 --------------------------------------------------------------------------------
 Trust Radius=3.00D-01 FncErr=1.00D-07 GrdErr=1.00D-06 EigMax=2.50D+02 EigMin=1.00D-04
 Number of steps in this run=    166 maximum allowed number of steps=    168.
 GradGradGradGradGradGradGradGradGradGradGradGradGradGradGradGradGradGrad

                          Input orientation:                          
 ---------------------------------------------------------------------
 Center     Atomic      Atomic             Coordinates (Angstroms)
 Number     Number       Type             X           Y           Z
 ---------------------------------------------------------------------
      1          6           0       -2.099808   -0.190031    0.854614
      2          6           0       -1.219755   -1.375131    0.438238
      3          6           0       -0.463734   -0.784059   -0.758302
      4          8           0       -2.027417   -2.441732   -0.000863
      5          1           0       -0.527628   -1.704288    1.230025
      6          8           0       -1.291144    0.271006   -1.273921
      7          1           0       -0.342894   -1.567162   -1.518292
      8          6           0        0.890932   -0.254159   -0.379197
      9          6           0       -2.481251    0.378527   -0.504269
     10          1           0       -1.517047    0.553155    1.419591
     11          8           0       -3.264366   -0.580313    1.558552
     12          6           0       -2.950664    1.820061   -0.508667
     13          1           0       -3.280880   -0.255672   -0.926021
     14          8           0       -1.916716    2.731760   -0.177048
     15          1           0       -3.741490    1.932688    0.244755
     16          1           0       -3.383498    2.065766   -1.491354
     17          1           0       -3.067157   -0.612877    2.498729
     18          1           0       -2.813930   -2.445440    0.561103
     19          1           0       -1.321999    2.743067   -0.933875
     20          6           0        1.114964    1.025949   -0.009004
     21          7           0        2.357878    1.477593    0.348764
     22          6           0        3.488495    0.681606    0.368508
     23          7           0        3.236381   -0.621277   -0.002912
     24          6           0        2.012661   -1.188023   -0.374328
     25          1           0        0.309901    1.757281    0.029993
     26          1           0        4.036192   -1.242842    0.004269
     27          8           0        4.585876    1.098002    0.685112
     28          8           0        1.942880   -2.372059   -0.656653
 ---------------------------------------------------------------------
                    Distance matrix (angstroms):
                    1          2          3          4          5
     1  C    0.000000
     2  C    1.533729   0.000000
     3  C    2.372995   1.533832   0.000000
     4  O    2.409821   1.408107   2.401395   0.000000
     5  H    2.214872   1.101958   2.191882   2.075639   0.000000
     6  O    2.323178   2.376205   1.436535   3.085729   3.279404
     7  H    3.257901   2.152620   1.097924   2.430037   2.757930
     8  C    3.235881   2.525822   1.503208   3.666793   2.589359
     9  C    1.521618   2.356906   2.342331   2.900559   3.341038
    10  H    1.100516   2.183970   2.764205   3.353732   2.472030
    11  O    1.415643   2.463184   3.640448   2.725197   2.976741
    12  C    2.573511   3.755253   3.609512   4.390117   4.616838
    13  H    2.137733   2.713416   2.871173   2.684389   3.785158
    14  O    3.103983   4.210806   3.848376   5.177675   4.856742
    15  H    2.751905   4.163922   4.373845   4.704671   4.952500
    16  H    3.498578   4.499431   4.145346   4.937414   5.456666
    17  H    1.953888   2.870461   4.173172   3.267067   3.041381
    18  H    2.383902   1.924071   3.166139   0.966655   2.494783
    19  H    3.522321   4.341970   3.634290   5.315098   5.009237
    20  C    3.543897   3.378775   2.515922   4.679683   3.418698
    21  N    4.786211   4.576625   3.781820   5.891872   4.384875
    22  C    5.676723   5.138351   4.363254   6.349564   4.750152
    23  N    5.421830   4.540931   3.779942   5.569706   4.106192
    24  C    4.406664   3.338231   2.538337   4.246586   3.048532
    25  H    3.206044   3.509774   2.770980   4.805800   3.758190
    26  H    6.283470   5.275491   4.587083   6.180996   4.748038
    27  O    6.810736   6.315274   5.578903   7.532325   5.856422
    28  O    4.836166   3.492121   2.885111   4.024695   3.179447
                    6          7          8          9         10
     6  O    0.000000
     7  H    2.082728   0.000000
     8  C    2.416151   2.131629   0.000000
     9  C    1.421365   3.063743   3.433301   0.000000
    10  H    2.717655   3.808613   3.112195   2.159033   0.000000
    11  O    3.555454   4.356127   4.596493   2.405800   2.087387
    12  C    2.395661   4.392390   4.367724   1.516044   2.716337
    13  H    2.087456   3.271476   4.207497   1.104305   3.044208
    14  O    2.765824   4.770386   4.103592   2.442024   2.730442
    15  H    3.327425   5.187267   5.160518   2.136505   2.869059
    16  H    2.765210   4.737527   4.988958   2.152943   3.774286
    17  H    4.262436   4.946587   4.906894   3.216235   2.219687
    18  H    3.614591   3.346831   4.405891   3.036525   3.377940
    19  H    2.495530   4.458505   3.766709   2.668235   3.220646
    20  C    2.821225   3.335794   1.351262   3.687439   3.031815
    21  N    4.171849   4.477790   2.383448   5.035155   4.125082
    22  C    5.070613   4.826646   2.860429   6.040816   5.116320
    23  N    4.786451   4.000286   2.403642   5.826001   5.098812
    24  C    3.721983   2.645948   1.459590   4.760904   4.325354
    25  H    2.544121   3.724950   2.133290   3.158628   2.592034
    26  H    5.683838   4.647555   3.319217   6.735318   6.005598
    27  O    6.249888   6.020869   4.075991   7.202538   6.171060
    28  O    4.222052   2.571973   2.380982   5.211706   4.983850
                   11         12         13         14         15
    11  O    0.000000
    12  C    3.183331   0.000000
    13  H    2.505747   2.142871   0.000000
    14  O    3.974707   1.417820   3.368479   0.000000
    15  H    2.875567   1.098060   2.524242   2.036230   0.000000
    16  H    4.039536   1.101540   2.391486   2.079038   1.777623
    17  H    0.961189   3.870037   3.449954   4.435075   3.466270
    18  H    2.162521   4.399728   2.687874   5.305965   4.486474
    19  H    4.585830   1.919711   3.581859   0.962602   2.810662
    20  C    4.920959   4.172482   4.669788   3.482688   4.946889
    21  N    6.108043   5.388236   6.035302   4.485707   6.117207
    22  C    6.972071   6.597597   6.955482   5.806640   7.338474
    23  N    6.685773   6.670491   6.592457   6.150414   7.434700
    24  C    5.652641   5.805274   5.403260   5.553703   6.575132
    25  H    4.536102   3.305356   4.226068   2.439323   4.060869
    26  H    7.493523   7.645955   7.441739   7.160129   8.404413
    27  O    8.075019   7.664588   8.143343   6.759896   8.380671
    28  O    5.935731   6.445350   5.642634   6.416812   7.187172
                   16         17         18         19         20
    16  H    0.000000
    17  H    4.816219   0.000000
    18  H    4.988784   2.678956   0.000000
    19  H    2.240379   5.107906   5.601912   0.000000
    20  C    4.849200   5.144377   5.273687   3.121325   0.000000
    21  N    6.057671   6.198663   6.494834   4.097326   1.369969
    22  C    7.252536   7.013565   7.038187   5.393206   2.427908
    23  N    7.297839   6.781804   6.344442   5.741457   2.685852
    24  C    6.399486   5.864282   5.074654   5.185221   2.416815
    25  H    4.006352   4.807996   5.263389   2.136332   1.088344
    26  H    8.260483   7.554916   6.977140   6.743723   3.698805
    27  O    8.317722   8.048927   8.205394   6.342740   3.540370
    28  O    6.982931   6.176700   4.910759   6.074603   3.556874
                   21         22         23         24         25
    21  N    0.000000
    22  C    1.382852   0.000000
    23  N    2.302325   1.378049   0.000000
    24  C    2.783441   2.495076   1.398800   0.000000
    25  H    2.091423   3.372704   3.771327   3.426030   0.000000
    26  H    3.214993   2.033751   1.012962   2.059373   4.783999
    27  O    2.284993   1.215676   2.291383   3.601355   4.375819
    28  O    4.000363   3.572779   2.272831   1.219228   4.493279
                   26         27         28
    26  H    0.000000
    27  O    2.499050   0.000000
    28  O    2.468583   4.563670   0.000000
 Stoichiometry    C9H11N2O6(1-)
 Framework group  C1[X(C9H11N2O6)]
 Deg. of freedom    78
 Full point group                 C1      NOp   1
 Largest Abelian subgroup         C1      NOp   1
 Largest concise Abelian subgroup C1      NOp   1
                         Standard orientation:                         
 ---------------------------------------------------------------------
 Center     Atomic      Atomic             Coordinates (Angstroms)
 Number     Number       Type             X           Y           Z
 ---------------------------------------------------------------------
      1          6           0       -2.079713   -0.202438    0.853420
      2          6           0       -1.184561   -1.373623    0.429918
      3          6           0       -0.433131   -0.764285   -0.760334
      4          8           0       -1.978376   -2.446434   -0.019193
      5          1           0       -0.490232   -1.700541    1.220704
      6          8           0       -1.272067    0.284707   -1.269680
      7          1           0       -0.301234   -1.539987   -1.526054
      8          6           0        0.914237   -0.221082   -0.374116
      9          6           0       -2.465040    0.371969   -0.501903
     10          1           0       -1.507160    0.543315    1.425408
     11          8           0       -3.241004   -0.612115    1.551712
     12          6           0       -2.951761    1.807747   -0.496264
     13          1           0       -3.256065   -0.268521   -0.930320
     14          8           0       -1.929581    2.729221   -0.155314
     15          1           0       -3.745509    1.905038    0.256221
     16          1           0       -3.385401    2.055811   -1.478003
     17          1           0       -3.045446   -0.649564    2.492052
     18          1           0       -2.765998   -2.463935    0.540957
     19          1           0       -1.333412    2.753520   -0.910692
     20          6           0        1.122044    1.058730    0.006419
     21          7           0        2.358657    1.522506    0.370447
     22          6           0        3.498729    0.740039    0.386610
     23          7           0        3.263118   -0.562874    0.004609
     24          6           0        2.047114   -1.141404   -0.373910
     25          1           0        0.308154    1.780009    0.049231
     26          1           0        4.070336   -1.174816    0.008806
     27          8           0        4.590332    1.167140    0.708876
     28          8           0        1.992200   -2.323978   -0.665493
 ---------------------------------------------------------------------
 Rotational constants (GHZ):           0.7972796           0.3128827           0.2533239
 Standard basis: Aug-CC-pVDZ (5D, 7F)
 There are   524 symmetry adapted cartesian basis functions of A   symmetry.
 There are   490 symmetry adapted basis functions of A   symmetry.
   490 basis functions,   852 primitive gaussians,   524 cartesian basis functions
    64 alpha electrons       64 beta electrons
       nuclear repulsion energy      1292.1488639163 Hartrees.
 NAtoms=   28 NActive=   28 NUniq=   28 SFac= 1.00D+00 NAtFMM=   60 NAOKFM=F Big=F
 Integral buffers will be    131072 words long.
 Raffenetti 2 integral format.
 Two-electron integral symmetry is turned on.
 Nuclear repulsion after empirical dispersion term =     1292.1291913787 Hartrees.
 One-electron integrals computed using PRISM.
 NBasis=   490 RedAO= T EigKep=  3.09D-06  NBF=   490
 NBsUse=   490 1.00D-06 EigRej= -1.00D+00 NBFU=   490
 ExpMin= 2.97D-02 ExpMax= 1.17D+04 ExpMxC= 4.01D+02 IAcc=3 IRadAn=         5 AccDes= 0.00D+00
 Harris functional with IExCor= 1009 and IRadAn=       5 diagonalized for initial guess.
 HarFok:  IExCor= 1009 AccDes= 0.00D+00 IRadAn=         5 IDoV= 1 UseB2=F ITyADJ=14
 ICtDFT=  3500011 ScaDFX=  1.000000  1.000000  1.000000  1.000000
 FoFCou: FMM=F IPFlag=           0 FMFlag=      100000 FMFlg1=           0
         NFxFlg=           0 DoJE=T BraDBF=F KetDBF=T FulRan=T
         wScrn=  0.000000 ICntrl=       500 IOpCl=  0 I1Cent=   200000004 NGrid=           0
         NMat0=    1 NMatS0=      1 NMatT0=    0 NMatD0=    1 NMtDS0=    0 NMtDT0=    0
 Petite list used in FoFCou.
 Requested convergence on RMS density matrix=1.00D-08 within 128 cycles.
 Requested convergence on MAX density matrix=1.00D-06.
 Requested convergence on             energy=1.00D-06.
 No special actions if energy rises.
 SCF Done:  E(RPBE1PBE) =  -909.670859354     A.U. after   14 cycles
            NFock= 14  Conv=0.56D-08     -V/T= 2.0052

 **********************************************************************

            Population analysis using the SCF Density.

 **********************************************************************

 Orbital symmetries:
       Occupied  (A) (A) (A) (A) (A) (A) (A) (A) (A) (A) (A) (A)
                 (A) (A) (A) (A) (A) (A) (A) (A) (A) (A) (A) (A)
                 (A) (A) (A) (A) (A) (A) (A) (A) (A) (A) (A) (A)
                 (A) (A) (A) (A) (A) (A) (A) (A) (A) (A) (A) (A)
                 (A) (A) (A) (A) (A) (A) (A) (A) (A) (A) (A) (A)
                 (A) (A) (A) (A)
       Virtual   (A) (A) (A) (A) (A) (A) (A) (A) (A) (A) (A) (A)
                 (A) (A) (A) (A) (A) (A) (A) (A) (A) (A) (A) (A)
                 (A) (A) (A) (A) (A) (A) (A) (A) (A) (A) (A) (A)
                 (A) (A) (A) (A) (A) (A) (A) (A) (A) (A) (A) (A)
                 (A) (A) (A) (A) (A) (A) (A) (A) (A) (A) (A) (A)
                 (A) (A) (A) (A) (A) (A) (A) (A) (A) (A) (A) (A)
                 (A) (A) (A) (A) (A) (A) (A) (A) (A) (A) (A) (A)
                 (A) (A) (A) (A) (A) (A) (A) (A) (A) (A) (A) (A)
                 (A) (A) (A) (A) (A) (A) (A) (A) (A) (A) (A) (A)
                 (A) (A) (A) (A) (A) (A) (A) (A) (A) (A) (A) (A)
                 (A) (A) (A) (A) (A) (A) (A) (A) (A) (A) (A) (A)
                 (A) (A) (A) (A) (A) (A) (A) (A) (A) (A) (A) (A)
                 (A) (A) (A) (A) (A) (A) (A) (A) (A) (A) (A) (A)
                 (A) (A) (A) (A) (A) (A) (A) (A) (A) (A) (A) (A)
                 (A) (A) (A) (A) (A) (A) (A) (A) (A) (A) (A) (A)
                 (A) (A) (A) (A) (A) (A) (A) (A) (A) (A) (A) (A)
                 (A) (A) (A) (A) (A) (A) (A) (A) (A) (A) (A) (A)
                 (A) (A) (A) (A) (A) (A) (A) (A) (A) (A) (A) (A)
                 (A) (A) (A) (A) (A) (A) (A) (A) (A) (A) (A) (A)
                 (A) (A) (A) (A) (A) (A) (A) (A) (A) (A) (A) (A)
                 (A) (A) (A) (A) (A) (A) (A) (A) (A) (A) (A) (A)
                 (A) (A) (A) (A) (A) (A) (A) (A) (A) (A) (A) (A)
                 (A) (A) (A) (A) (A) (A) (A) (A) (A) (A) (A) (A)
                 (A) (A) (A) (A) (A) (A) (A) (A) (A) (A) (A) (A)
                 (A) (A) (A) (A) (A) (A) (A) (A) (A) (A) (A) (A)
                 (A) (A) (A) (A) (A) (A) (A) (A) (A) (A) (A) (A)
                 (A) (A) (A) (A) (A) (A) (A) (A) (A) (A) (A) (A)
                 (A) (A) (A) (A) (A) (A) (A) (A) (A) (A) (A) (A)
                 (A) (A) (A) (A) (A) (A) (A) (A) (A) (A) (A) (A)
                 (A) (A) (A) (A) (A) (A) (A) (A) (A) (A) (A) (A)
                 (A) (A) (A) (A) (A) (A) (A) (A) (A) (A) (A) (A)
                 (A) (A) (A) (A) (A) (A) (A) (A) (A) (A) (A) (A)
                 (A) (A) (A) (A) (A) (A) (A) (A) (A) (A) (A) (A)
                 (A) (A) (A) (A) (A) (A) (A) (A) (A) (A) (A) (A)
                 (A) (A) (A) (A) (A) (A) (A) (A) (A) (A) (A) (A)
                 (A) (A) (A) (A) (A) (A)
 The electronic state is 1-A.
 Alpha  occ. eigenvalues --  -19.16593 -19.13804 -19.12765 -19.12629 -19.04518
 Alpha  occ. eigenvalues --  -19.02527 -14.28570 -14.20716 -10.19483 -10.19250
 Alpha  occ. eigenvalues --  -10.18982 -10.18890 -10.18742 -10.17720 -10.16653
 Alpha  occ. eigenvalues --  -10.12457 -10.08070  -1.00448  -0.98019  -0.96418
 Alpha  occ. eigenvalues --   -0.95128  -0.93654  -0.91320  -0.81442  -0.74822
 Alpha  occ. eigenvalues --   -0.70736  -0.69630  -0.63917  -0.59250  -0.53092
 Alpha  occ. eigenvalues --   -0.52616  -0.50911  -0.49067  -0.46819  -0.44468
 Alpha  occ. eigenvalues --   -0.43644  -0.41633  -0.40100  -0.38655  -0.37925
 Alpha  occ. eigenvalues --   -0.36400  -0.35959  -0.33936  -0.32751  -0.32058
 Alpha  occ. eigenvalues --   -0.30713  -0.30309  -0.29163  -0.28346  -0.27364
 Alpha  occ. eigenvalues --   -0.27033  -0.26565  -0.25239  -0.24491  -0.21613
 Alpha  occ. eigenvalues --   -0.20216  -0.19047  -0.18475  -0.17057  -0.14159
 Alpha  occ. eigenvalues --   -0.14031  -0.11989  -0.10125  -0.06444
 Alpha virt. eigenvalues --    0.06269   0.07848   0.09222   0.09881   0.11091
 Alpha virt. eigenvalues --    0.11363   0.11764   0.12186   0.12868   0.13051
 Alpha virt. eigenvalues --    0.13773   0.14767   0.14868   0.15732   0.16295
 Alpha virt. eigenvalues --    0.16510   0.16962   0.17191   0.17678   0.18158
 Alpha virt. eigenvalues --    0.18434   0.18730   0.19175   0.19623   0.19853
 Alpha virt. eigenvalues --    0.20292   0.20656   0.20903   0.21370   0.21433
 Alpha virt. eigenvalues --    0.21800   0.22435   0.23030   0.23173   0.23351
 Alpha virt. eigenvalues --    0.23654   0.24327   0.24736   0.24957   0.25238
 Alpha virt. eigenvalues --    0.26259   0.26866   0.27006   0.27566   0.28039
 Alpha virt. eigenvalues --    0.28230   0.28790   0.28988   0.29714   0.30179
 Alpha virt. eigenvalues --    0.30534   0.30782   0.31160   0.31363   0.31841
 Alpha virt. eigenvalues --    0.31997   0.32726   0.32994   0.33669   0.33996
 Alpha virt. eigenvalues --    0.34468   0.34935   0.35181   0.35618   0.35658
 Alpha virt. eigenvalues --    0.36146   0.36320   0.36672   0.37181   0.37439
 Alpha virt. eigenvalues --    0.37653   0.38433   0.38502   0.38766   0.39107
 Alpha virt. eigenvalues --    0.39499   0.39628   0.39951   0.40428   0.40740
 Alpha virt. eigenvalues --    0.41252   0.41579   0.41995   0.42258   0.42971
 Alpha virt. eigenvalues --    0.43112   0.43396   0.44148   0.44394   0.44625
 Alpha virt. eigenvalues --    0.45016   0.45306   0.45888   0.46408   0.47003
 Alpha virt. eigenvalues --    0.47389   0.47720   0.47963   0.48899   0.50029
 Alpha virt. eigenvalues --    0.50043   0.50400   0.50888   0.51309   0.51726
 Alpha virt. eigenvalues --    0.52481   0.52778   0.53333   0.53907   0.54313
 Alpha virt. eigenvalues --    0.54750   0.55067   0.55846   0.56054   0.57148
 Alpha virt. eigenvalues --    0.57382   0.58350   0.58896   0.59383   0.59883
 Alpha virt. eigenvalues --    0.60805   0.61354   0.61725   0.62575   0.62844
 Alpha virt. eigenvalues --    0.63309   0.63528   0.64269   0.64840   0.65295
 Alpha virt. eigenvalues --    0.65921   0.66752   0.66902   0.67677   0.68174
 Alpha virt. eigenvalues --    0.69136   0.69503   0.70340   0.70461   0.71132
 Alpha virt. eigenvalues --    0.71328   0.71460   0.72406   0.73012   0.73539
 Alpha virt. eigenvalues --    0.73940   0.74120   0.74675   0.75790   0.76037
 Alpha virt. eigenvalues --    0.77013   0.77258   0.78031   0.78714   0.79196
 Alpha virt. eigenvalues --    0.80035   0.80225   0.80464   0.80929   0.81322
 Alpha virt. eigenvalues --    0.81752   0.82272   0.82983   0.83237   0.83919
 Alpha virt. eigenvalues --    0.84782   0.85400   0.85760   0.86708   0.87109
 Alpha virt. eigenvalues --    0.87578   0.88479   0.89305   0.89333   0.89921
 Alpha virt. eigenvalues --    0.90090   0.90989   0.91142   0.91553   0.92761
 Alpha virt. eigenvalues --    0.92978   0.93546   0.94647   0.95300   0.96989
 Alpha virt. eigenvalues --    0.97331   0.98411   0.99205   0.99656   1.00386
 Alpha virt. eigenvalues --    1.00933   1.01992   1.02704   1.03488   1.04080
 Alpha virt. eigenvalues --    1.05755   1.06173   1.06763   1.08105   1.08916
 Alpha virt. eigenvalues --    1.09488   1.10291   1.10593   1.11530   1.12647
 Alpha virt. eigenvalues --    1.13776   1.14414   1.15423   1.15761   1.17261
 Alpha virt. eigenvalues --    1.17426   1.18190   1.19470   1.19723   1.20929
 Alpha virt. eigenvalues --    1.21561   1.22553   1.23563   1.24128   1.25153
 Alpha virt. eigenvalues --    1.25795   1.26643   1.27245   1.27796   1.28387
 Alpha virt. eigenvalues --    1.29124   1.29477   1.30722   1.31438   1.32353
 Alpha virt. eigenvalues --    1.33291   1.34789   1.36573   1.37787   1.38085
 Alpha virt. eigenvalues --    1.38874   1.39275   1.40577   1.41837   1.42570
 Alpha virt. eigenvalues --    1.43531   1.45138   1.45589   1.46458   1.48344
 Alpha virt. eigenvalues --    1.49993   1.51000   1.51868   1.53042   1.53341
 Alpha virt. eigenvalues --    1.54733   1.56302   1.56891   1.57279   1.58832
 Alpha virt. eigenvalues --    1.59360   1.60224   1.61258   1.61823   1.63124
 Alpha virt. eigenvalues --    1.63473   1.63909   1.65068   1.65800   1.67111
 Alpha virt. eigenvalues --    1.68568   1.69173   1.70316   1.71288   1.72380
 Alpha virt. eigenvalues --    1.73408   1.74082   1.74700   1.76341   1.77492
 Alpha virt. eigenvalues --    1.78317   1.79488   1.80082   1.81567   1.82377
 Alpha virt. eigenvalues --    1.83761   1.84805   1.85459   1.85971   1.86553
 Alpha virt. eigenvalues --    1.88286   1.88896   1.89781   1.91648   1.92874
 Alpha virt. eigenvalues --    1.93169   1.94438   1.95084   1.95915   1.97173
 Alpha virt. eigenvalues --    1.97724   1.99299   1.99551   1.99882   2.01791
 Alpha virt. eigenvalues --    2.03766   2.04981   2.05142   2.05769   2.06468
 Alpha virt. eigenvalues --    2.07042   2.08245   2.09686   2.10122   2.11233
 Alpha virt. eigenvalues --    2.12250   2.14134   2.15721   2.17188   2.18495
 Alpha virt. eigenvalues --    2.18664   2.20958   2.21898   2.22414   2.23805
 Alpha virt. eigenvalues --    2.24942   2.25291   2.25841   2.26926   2.27757
 Alpha virt. eigenvalues --    2.28261   2.30315   2.31945   2.32738   2.33985
 Alpha virt. eigenvalues --    2.35278   2.35789   2.36472   2.37415   2.38835
 Alpha virt. eigenvalues --    2.39532   2.41691   2.42068   2.43479   2.44288
 Alpha virt. eigenvalues --    2.45385   2.46602   2.48018   2.48919   2.50260
 Alpha virt. eigenvalues --    2.51697   2.53871   2.56534   2.58272   2.58888
 Alpha virt. eigenvalues --    2.59649   2.61308   2.62512   2.63695   2.65262
 Alpha virt. eigenvalues --    2.66456   2.68673   2.69386   2.70848   2.72154
 Alpha virt. eigenvalues --    2.74272   2.74705   2.76203   2.78578   2.79804
 Alpha virt. eigenvalues --    2.82101   2.82425   2.83042   2.84030   2.87202
 Alpha virt. eigenvalues --    2.88000   2.90670   2.92541   2.93114   2.95961
 Alpha virt. eigenvalues --    3.01168   3.03981   3.04357   3.09604   3.10127
 Alpha virt. eigenvalues --    3.11409   3.15380   3.20572   3.23261   3.27130
 Alpha virt. eigenvalues --    3.29516   3.39575   3.42595   3.46351   3.46958
 Alpha virt. eigenvalues --    3.49707   3.51616   3.54532   3.55424   3.57418
 Alpha virt. eigenvalues --    3.59136   3.59823   3.60218   3.60912   3.61698
 Alpha virt. eigenvalues --    3.62240   3.63214   3.65150   3.65454   3.68286
 Alpha virt. eigenvalues --    3.69620   3.71532   3.74108   3.75678   3.77673
 Alpha virt. eigenvalues --    3.80038   3.80597   3.83160   3.86068   3.86488
 Alpha virt. eigenvalues --    3.89559   3.92590   3.97314   3.99092   4.06216
 Alpha virt. eigenvalues --    4.10780   4.13067   4.17658   4.27561   4.47973
 Alpha virt. eigenvalues --    4.71573
          Condensed to atoms (all electrons):
               1          2          3          4          5          6
     1  C   11.307139  -3.124953   1.127179   0.184468   0.371213  -0.097769
     2  C   -3.124953  10.192510  -2.501324  -0.712483  -0.970575  -0.001261
     3  C    1.127179  -2.501324  13.768452   0.191605   0.028534  -0.082740
     4  O    0.184468  -0.712483   0.191605   8.830156  -0.115572   0.029899
     5  H    0.371213  -0.970575   0.028534  -0.115572   2.168368   0.024203
     6  O   -0.097769  -0.001261  -0.082740   0.029899   0.024203   9.341083
     7  H   -0.005188   0.439351  -1.104730  -0.050840   0.047540  -0.175614
     8  C   -0.212989   1.097306  -2.538403   0.045563  -0.254504  -0.023137
     9  C   -3.084124   0.790442  -2.933007  -0.015342   0.239970  -0.086470
    10  H   -0.892756   0.451600   0.074956  -0.007787  -0.110584   0.032978
    11  O   -0.726495   0.284756   0.091390  -0.016588  -0.044655   0.015887
    12  C    0.050311  -0.353229   0.406582   0.033714   0.015183  -0.125520
    13  H    0.672414  -0.249184   0.332788   0.008324   0.010270  -0.042728
    14  O   -0.082480   0.008355  -0.047620  -0.000317  -0.001939  -0.038810
    15  H   -0.042114   0.107616   0.017828  -0.001234   0.004912   0.083870
    16  H   -0.003811  -0.018002  -0.016291  -0.000172   0.000450  -0.025356
    17  H    0.322087  -0.209999   0.006506   0.008236   0.016291  -0.002989
    18  H   -0.230232   0.172430  -0.054311   0.281991  -0.010157   0.002232
    19  H    0.085780  -0.015094   0.061679   0.000900  -0.000745   0.043603
    20  C    0.124416  -0.530478  -1.271204   0.010863   0.034744   0.082107
    21  N   -0.005690  -0.019716   0.226059  -0.000156  -0.000825   0.005389
    22  C   -0.022408   0.026408  -0.319156   0.002488  -0.005254  -0.000762
    23  N    0.008218  -0.012246  -0.204575  -0.000546  -0.001805   0.000744
    24  C   -0.122207   0.048349  -0.275977   0.003275   0.000734  -0.034368
    25  H   -0.130919   0.110006   0.013730  -0.001097   0.014733  -0.054316
    26  H    0.000109   0.003785   0.008851   0.000252  -0.000104   0.000394
    27  O    0.001165  -0.003611   0.012466  -0.000024  -0.000631   0.000116
    28  O    0.008061  -0.030254   0.054268  -0.003336   0.005995   0.003414
               7          8          9         10         11         12
     1  C   -0.005188  -0.212989  -3.084124  -0.892756  -0.726495   0.050311
     2  C    0.439351   1.097306   0.790442   0.451600   0.284756  -0.353229
     3  C   -1.104730  -2.538403  -2.933007   0.074956   0.091390   0.406582
     4  O   -0.050840   0.045563  -0.015342  -0.007787  -0.016588   0.033714
     5  H    0.047540  -0.254504   0.239970  -0.110584  -0.044655   0.015183
     6  O   -0.175614  -0.023137  -0.086470   0.032978   0.015887  -0.125520
     7  H    1.950801   0.315059   0.209542  -0.002544  -0.006073  -0.013147
     8  C    0.315059  13.087355   0.435831  -0.004698  -0.014948  -0.098575
     9  C    0.209542   0.435831  11.992573  -0.542967   0.171516  -0.504449
    10  H   -0.002544  -0.004698  -0.542967   2.456590  -0.056224   0.011231
    11  O   -0.006073  -0.014948   0.171516  -0.056224   8.663441  -0.012834
    12  C   -0.013147  -0.098575  -0.504449   0.011231  -0.012834   5.284640
    13  H    0.013305  -0.096006  -1.567777   0.137782  -0.059080   0.050474
    14  O    0.001200   0.006865   0.086320   0.035043   0.010024   0.099487
    15  H   -0.000510   0.018515  -0.184122  -0.028598   0.029142   0.059342
    16  H    0.000994   0.012851   0.238003   0.013572   0.003317   0.121167
    17  H    0.000420  -0.001986  -0.024531  -0.122798   0.280798   0.004178
    18  H   -0.011560   0.002762   0.034589   0.017755   0.042356  -0.010547
    19  H   -0.001483   0.007545  -0.182615   0.007818  -0.002541   0.021901
    20  C   -0.004086  -3.864539  -0.216350   0.029449  -0.013272  -0.088425
    21  N   -0.010020   0.005316   0.062860  -0.013038  -0.000328  -0.028484
    22  C   -0.001405   0.175273  -0.020701  -0.003522   0.000628  -0.009269
    23  N    0.030941   0.039304  -0.007554   0.002527  -0.000290  -0.002545
    24  C   -0.182872  -3.266061   0.003825  -0.006440   0.008589  -0.010741
    25  H    0.016575   0.210868   0.060995  -0.036057   0.004036   0.095728
    26  H   -0.003122   0.157471  -0.000813   0.000239   0.000012  -0.000092
    27  O    0.000541  -0.026689   0.000884  -0.000045  -0.000013  -0.000002
    28  O    0.030107   0.079201   0.010866   0.002183  -0.000303  -0.000213
              13         14         15         16         17         18
     1  C    0.672414  -0.082480  -0.042114  -0.003811   0.322087  -0.230232
     2  C   -0.249184   0.008355   0.107616  -0.018002  -0.209999   0.172430
     3  C    0.332788  -0.047620   0.017828  -0.016291   0.006506  -0.054311
     4  O    0.008324  -0.000317  -0.001234  -0.000172   0.008236   0.281991
     5  H    0.010270  -0.001939   0.004912   0.000450   0.016291  -0.010157
     6  O   -0.042728  -0.038810   0.083870  -0.025356  -0.002989   0.002232
     7  H    0.013305   0.001200  -0.000510   0.000994   0.000420  -0.011560
     8  C   -0.096006   0.006865   0.018515   0.012851  -0.001986   0.002762
     9  C   -1.567777   0.086320  -0.184122   0.238003  -0.024531   0.034589
    10  H    0.137782   0.035043  -0.028598   0.013572  -0.122798   0.017755
    11  O   -0.059080   0.010024   0.029142   0.003317   0.280798   0.042356
    12  C    0.050474   0.099487   0.059342   0.121167   0.004178  -0.010547
    13  H    2.424794   0.017450  -0.030643  -0.072529  -0.004769  -0.000193
    14  O    0.017450   8.348467  -0.164247  -0.044378  -0.002197  -0.000382
    15  H   -0.030643  -0.164247   1.735765  -0.322699  -0.002797  -0.000111
    16  H   -0.072529  -0.044378  -0.322699   1.401710  -0.000491  -0.000504
    17  H   -0.004769  -0.002197  -0.002797  -0.000491   0.606233  -0.007507
    18  H   -0.000193  -0.000382  -0.000111  -0.000504  -0.007507   0.630094
    19  H    0.012891   0.278697   0.038233  -0.065479   0.000855  -0.000364
    20  C    0.029259   0.024348  -0.019923  -0.008058  -0.004062  -0.001222
    21  N   -0.000662   0.007047  -0.001630   0.000534   0.000294   0.000287
    22  C   -0.001114   0.002328  -0.000654   0.000053  -0.000258   0.000450
    23  N    0.000214   0.000609  -0.000099  -0.000208  -0.000007  -0.000371
    24  C   -0.003730   0.001108   0.000276   0.001587   0.000513   0.006510
    25  H   -0.010692  -0.023363  -0.002805   0.002821  -0.002044   0.002274
    26  H   -0.000011   0.000033  -0.000008   0.000007  -0.000015   0.000086
    27  O    0.000060   0.000042   0.000002  -0.000002   0.000026  -0.000042
    28  O    0.000301  -0.000017   0.000057  -0.000074  -0.000188  -0.000309
              19         20         21         22         23         24
     1  C    0.085780   0.124416  -0.005690  -0.022408   0.008218  -0.122207
     2  C   -0.015094  -0.530478  -0.019716   0.026408  -0.012246   0.048349
     3  C    0.061679  -1.271204   0.226059  -0.319156  -0.204575  -0.275977
     4  O    0.000900   0.010863  -0.000156   0.002488  -0.000546   0.003275
     5  H   -0.000745   0.034744  -0.000825  -0.005254  -0.001805   0.000734
     6  O    0.043603   0.082107   0.005389  -0.000762   0.000744  -0.034368
     7  H   -0.001483  -0.004086  -0.010020  -0.001405   0.030941  -0.182872
     8  C    0.007545  -3.864539   0.005316   0.175273   0.039304  -3.266061
     9  C   -0.182615  -0.216350   0.062860  -0.020701  -0.007554   0.003825
    10  H    0.007818   0.029449  -0.013038  -0.003522   0.002527  -0.006440
    11  O   -0.002541  -0.013272  -0.000328   0.000628  -0.000290   0.008589
    12  C    0.021901  -0.088425  -0.028484  -0.009269  -0.002545  -0.010741
    13  H    0.012891   0.029259  -0.000662  -0.001114   0.000214  -0.003730
    14  O    0.278697   0.024348   0.007047   0.002328   0.000609   0.001108
    15  H    0.038233  -0.019923  -0.001630  -0.000654  -0.000099   0.000276
    16  H   -0.065479  -0.008058   0.000534   0.000053  -0.000208   0.001587
    17  H    0.000855  -0.004062   0.000294  -0.000258  -0.000007   0.000513
    18  H   -0.000364  -0.001222   0.000287   0.000450  -0.000371   0.006510
    19  H    0.539845  -0.020965  -0.010161  -0.003392  -0.000783  -0.000117
    20  C   -0.020965  14.704655  -0.760972  -0.348002   0.453217  -2.113245
    21  N   -0.010161  -0.760972   8.211618   0.070319  -0.037807   0.179950
    22  C   -0.003392  -0.348002   0.070319   6.280639  -0.013741  -0.373564
    23  N   -0.000783   0.453217  -0.037807  -0.013741   7.263926  -0.274280
    24  C   -0.000117  -2.113245   0.179950  -0.373564  -0.274280  11.930913
    25  H    0.012893  -0.942174  -0.046452  -0.022355  -0.039146   0.059418
    26  H    0.000216  -0.135545   0.053100  -0.224031   0.380343  -0.220611
    27  O   -0.000114   0.112244  -0.136971   0.102690  -0.111484   0.041360
    28  O    0.000074  -0.089937   0.003305   0.022701  -0.128065   0.011079
              25         26         27         28
     1  C   -0.130919   0.000109   0.001165   0.008061
     2  C    0.110006   0.003785  -0.003611  -0.030254
     3  C    0.013730   0.008851   0.012466   0.054268
     4  O   -0.001097   0.000252  -0.000024  -0.003336
     5  H    0.014733  -0.000104  -0.000631   0.005995
     6  O   -0.054316   0.000394   0.000116   0.003414
     7  H    0.016575  -0.003122   0.000541   0.030107
     8  C    0.210868   0.157471  -0.026689   0.079201
     9  C    0.060995  -0.000813   0.000884   0.010866
    10  H   -0.036057   0.000239  -0.000045   0.002183
    11  O    0.004036   0.000012  -0.000013  -0.000303
    12  C    0.095728  -0.000092  -0.000002  -0.000213
    13  H   -0.010692  -0.000011   0.000060   0.000301
    14  O   -0.023363   0.000033   0.000042  -0.000017
    15  H   -0.002805  -0.000008   0.000002   0.000057
    16  H    0.002821   0.000007  -0.000002  -0.000074
    17  H   -0.002044  -0.000015   0.000026  -0.000188
    18  H    0.002274   0.000086  -0.000042  -0.000309
    19  H    0.012893   0.000216  -0.000114   0.000074
    20  C   -0.942174  -0.135545   0.112244  -0.089937
    21  N   -0.046452   0.053100  -0.136971   0.003305
    22  C   -0.022355  -0.224031   0.102690   0.022701
    23  N   -0.039146   0.380343  -0.111484  -0.128065
    24  C    0.059418  -0.220611   0.041360   0.011079
    25  H    2.477345  -0.010156   0.005316  -0.007434
    26  H   -0.010156   1.154679  -0.009295  -0.038775
    27  O    0.005316  -0.009295   8.724044  -0.002554
    28  O   -0.007434  -0.038775  -0.002554   8.929878
 Mulliken charges:
               1
     1  C    0.521577
     2  C    1.019494
     3  C    0.926467
     4  O   -0.706241
     5  H   -0.465790
     6  O   -0.874078
     7  H   -0.483184
     8  C    0.705451
     9  C    1.032604
    10  H   -0.445663
    11  O   -0.652246
    12  C    1.004136
    13  H   -0.571210
    14  O   -0.521674
    15  H   -0.293364
    16  H   -0.219011
    17  H    0.140201
    18  H    0.133997
    19  H    0.190925
    20  C    0.827159
    21  N   -0.753165
    22  C    0.685612
    23  N   -0.344488
    24  C    0.586725
    25  H   -0.757729
    26  H   -0.116998
    27  O   -0.709476
    28  O   -0.860033
 Sum of Mulliken charges =  -1.00000
 Mulliken charges with hydrogens summed into heavy atoms:
               1
     1  C    0.075913
     2  C    0.553704
     3  C    0.443283
     4  O   -0.572244
     6  O   -0.874078
     8  C    0.705451
     9  C    0.461394
    11  O   -0.512044
    12  C    0.491761
    14  O   -0.330748
    20  C    0.069431
    21  N   -0.753165
    22  C    0.685612
    23  N   -0.461486
    24  C    0.586725
    27  O   -0.709476
    28  O   -0.860033
 Electronic spatial extent (au):  <R**2>=           4292.7960
 Charge=             -1.0000 electrons
 Dipole moment (field-independent basis, Debye):
    X=            -11.7489    Y=             -1.4064    Z=              0.9638  Tot=             11.8719
 Quadrupole moment (field-independent basis, Debye-Ang):
   XX=           -152.6546   YY=           -131.4878   ZZ=            -98.5843
   XY=            -12.9430   XZ=             -9.7639   YZ=            -12.4350
 Traceless Quadrupole moment (field-independent basis, Debye-Ang):
   XX=            -25.0790   YY=             -3.9122   ZZ=             28.9913
   XY=            -12.9430   XZ=             -9.7639   YZ=            -12.4350
 Octapole moment (field-independent basis, Debye-Ang**2):
  XXX=           -213.8659  YYY=              5.4935  ZZZ=             22.2309  XYY=            -43.8676
  XXY=            -75.6375  XXZ=            -31.8407  XZZ=            -30.8122  YZZ=             -4.6083
  YYZ=             -0.9463  XYZ=            -10.9178
 Hexadecapole moment (field-independent basis, Debye-Ang**3):
 XXXX=          -4774.3175 YYYY=          -1581.2057 ZZZZ=           -369.1374 XXXY=           -348.5871
 XXXZ=           -176.0336 YYYX=             33.1482 YYYZ=            -83.5811 ZZZX=            -74.0424
 ZZZY=            -25.4055 XXYY=          -1024.1054 XXZZ=           -697.8243 YYZZ=           -287.6179
 XXYZ=            -93.6720 YYXZ=            -10.5465 ZZXY=             -2.8043
 N-N= 1.292129191379D+03 E-N=-4.734182398058D+03  KE= 9.049543484214D+02
 Calling FoFJK, ICntrl=      2127 FMM=F ISym2X=0 I1Cent= 0 IOpClX= 0 NMat=1 NMatS=1 NMatT=0.
 ***** Axes restored to original set *****
 -------------------------------------------------------------------
 Center     Atomic                   Forces (Hartrees/Bohr)
 Number     Number              X              Y              Z
 -------------------------------------------------------------------
      1        6           0.004912992    0.000082365   -0.002267786
      2        6           0.002242551    0.005468654   -0.001840775
      3        6           0.013712251   -0.004671471    0.005263067
      4        8          -0.007219675   -0.005602596    0.000467730
      5        1           0.000022126    0.000427013   -0.001414750
      6        8          -0.011536455    0.003330253   -0.000615066
      7        1          -0.002045063   -0.001358679   -0.000338627
      8        6          -0.003970952   -0.033458553   -0.010018139
      9        6           0.006631038   -0.000098922   -0.003088719
     10        1           0.000306505   -0.000643394   -0.000912578
     11        8          -0.006578985   -0.001129296    0.004109576
     12        6           0.003423389    0.001342304    0.001371954
     13        1          -0.001763119   -0.000825962   -0.000073991
     14        8          -0.007292308    0.001264284   -0.001663792
     15        1          -0.000691652    0.000139991    0.000557671
     16        1          -0.000676973   -0.000104575   -0.001163022
     17        1           0.001238646    0.000221139   -0.001181053
     18        1           0.000728400    0.000255542   -0.000134430
     19        1           0.003691338   -0.002244596    0.002415726
     20        6           0.059224082    0.015160368    0.016012672
     21        7          -0.014487946    0.019104115    0.001965282
     22        6          -0.065944582    0.020905076   -0.007792762
     23        7           0.006405217   -0.019032891   -0.003581209
     24        6          -0.006765162    0.036837226    0.006709775
     25        1          -0.000002652    0.001726854    0.000417410
     26        1          -0.002024634   -0.003252129   -0.001096319
     27        8           0.029034581   -0.003138593    0.004948611
     28        8          -0.000572958   -0.030703525   -0.007056458
 -------------------------------------------------------------------
 Cartesian Forces:  Max     0.065944582 RMS     0.013439964

 GradGradGradGradGradGradGradGradGradGradGradGradGradGradGradGradGradGrad
 Berny optimization.
 FormGI is forming the generalized inverse of G from B-inverse, IUseBI=4.
 Internal  Forces:  Max     0.036234785 RMS     0.007343226
 Search for a local minimum.
 Step number   1 out of a maximum of  166
 All quantities printed in internal units (Hartrees-Bohrs-Radians)
 Mixed Optimization -- RFO/linear search
 Second derivative matrix not updated -- first step.
 ITU=  0
     Eigenvalues ---    0.00541   0.00554   0.00724   0.00934   0.01456
     Eigenvalues ---    0.01463   0.01485   0.01508   0.01585   0.01671
     Eigenvalues ---    0.01833   0.01940   0.01962   0.02293   0.02553
     Eigenvalues ---    0.03094   0.03891   0.04374   0.04924   0.04981
     Eigenvalues ---    0.05137   0.05519   0.05742   0.06007   0.06026
     Eigenvalues ---    0.06123   0.07104   0.07891   0.08180   0.09569
     Eigenvalues ---    0.11642   0.12704   0.13988   0.15712   0.15999
     Eigenvalues ---    0.16000   0.16000   0.16000   0.16000   0.16553
     Eigenvalues ---    0.18637   0.19720   0.22068   0.22926   0.23841
     Eigenvalues ---    0.24986   0.24997   0.25000   0.25000   0.26648
     Eigenvalues ---    0.27964   0.29101   0.30751   0.32043   0.33210
     Eigenvalues ---    0.33467   0.33512   0.33625   0.33898   0.33913
     Eigenvalues ---    0.35005   0.36216   0.38144   0.40177   0.42790
     Eigenvalues ---    0.43123   0.43543   0.44303   0.45480   0.46827
     Eigenvalues ---    0.48090   0.50220   0.53630   0.54066   0.54917
     Eigenvalues ---    0.55218   0.95726   0.97325
 RFO step:  Lambda=-2.23737742D-02 EMin= 5.41244767D-03
 Linear search not attempted -- first point.
 Iteration  1 RMS(Cart)=  0.04873226 RMS(Int)=  0.00164122
 Iteration  2 RMS(Cart)=  0.00180724 RMS(Int)=  0.00010124
 Iteration  3 RMS(Cart)=  0.00000456 RMS(Int)=  0.00010120
 Iteration  4 RMS(Cart)=  0.00000000 RMS(Int)=  0.00010120
 Variable       Old X    -DE/DX   Delta X   Delta X   Delta X     New X
                                 (Linear)    (Quad)   (Total)
    R1        2.89833  -0.00068   0.00000  -0.00407  -0.00412   2.89421
    R2        2.87544   0.00003   0.00000  -0.00132  -0.00138   2.87406
    R3        2.07967  -0.00074   0.00000  -0.00207  -0.00207   2.07761
    R4        2.67518   0.00610   0.00000   0.01345   0.01345   2.68862
    R5        2.89852   0.00035   0.00000   0.00295   0.00303   2.90155
    R6        2.66094   0.00767   0.00000   0.01648   0.01648   2.67742
    R7        2.08240  -0.00113   0.00000  -0.00316  -0.00316   2.07923
    R8        2.71466   0.00725   0.00000   0.01872   0.01879   2.73345
    R9        2.07478   0.00098   0.00000   0.00271   0.00271   2.07748
   R10        2.84065   0.00240   0.00000   0.00699   0.00699   2.84764
   R11        1.82671  -0.00067   0.00000  -0.00119  -0.00119   1.82552
   R12        2.68599  -0.00425   0.00000  -0.00988  -0.00992   2.67607
   R13        2.55352   0.03623   0.00000   0.06334   0.06355   2.61707
   R14        2.75822  -0.01891   0.00000  -0.04676  -0.04679   2.71144
   R15        2.86491   0.00085   0.00000   0.00258   0.00258   2.86749
   R16        2.08683   0.00178   0.00000   0.00502   0.00502   2.09185
   R17        1.81638  -0.00091   0.00000  -0.00158  -0.00158   1.81480
   R18        2.67929  -0.00308   0.00000  -0.00684  -0.00684   2.67245
   R19        2.07503   0.00089   0.00000   0.00248   0.00248   2.07751
   R20        2.08161   0.00128   0.00000   0.00358   0.00358   2.08519
   R21        1.81905   0.00036   0.00000   0.00062   0.00062   1.81968
   R22        2.58887  -0.02889   0.00000  -0.05555  -0.05532   2.53355
   R23        2.05667   0.00118   0.00000   0.00316   0.00316   2.05983
   R24        2.61321  -0.01425   0.00000  -0.02920  -0.02916   2.58405
   R25        2.60413   0.01992   0.00000   0.03883   0.03862   2.64275
   R26        2.29730   0.02642   0.00000   0.02654   0.02654   2.32383
   R27        2.64335  -0.00997   0.00000  -0.01940  -0.01964   2.62371
   R28        1.91422   0.00039   0.00000   0.00082   0.00082   1.91504
   R29        2.30401   0.03148   0.00000   0.03214   0.03214   2.33615
    A1        1.76208   0.00015   0.00000  -0.00564  -0.00571   1.75636
    A2        1.93620   0.00016   0.00000  -0.00009  -0.00011   1.93609
    A3        1.97577  -0.00021   0.00000   0.00285   0.00291   1.97869
    A4        1.91653  -0.00017   0.00000   0.00018   0.00022   1.91674
    A5        1.91864   0.00021   0.00000   0.00331   0.00331   1.92195
    A6        1.94605  -0.00011   0.00000  -0.00092  -0.00094   1.94512
    A7        1.76893   0.00130   0.00000   0.00497   0.00506   1.77400
    A8        1.91860  -0.00325   0.00000  -0.01766  -0.01777   1.90083
    A9        1.97810   0.00090   0.00000   0.00382   0.00379   1.98189
   A10        1.90853   0.00329   0.00000   0.02453   0.02463   1.93316
   A11        1.94555  -0.00226   0.00000  -0.01326  -0.01329   1.93226
   A12        1.93699   0.00018   0.00000  -0.00114  -0.00113   1.93586
   A13        1.85369  -0.00378   0.00000  -0.01506  -0.01522   1.83846
   A14        1.89587  -0.00062   0.00000  -0.01396  -0.01413   1.88174
   A15        1.96416   0.00199   0.00000   0.01384   0.01383   1.97799
   A16        1.91643  -0.00042   0.00000  -0.01086  -0.01116   1.90527
   A17        1.92909   0.00336   0.00000   0.02290   0.02288   1.95197
   A18        1.90373  -0.00066   0.00000   0.00171   0.00184   1.90557
   A19        1.86326  -0.00072   0.00000  -0.00393  -0.00393   1.85932
   A20        1.92140   0.00155   0.00000   0.00380   0.00389   1.92529
   A21        2.15610   0.01001   0.00000   0.03650   0.03643   2.19253
   A22        2.05769  -0.00651   0.00000  -0.02418  -0.02425   2.03343
   A23        2.06893  -0.00350   0.00000  -0.01235  -0.01221   2.05673
   A24        1.81874   0.00007   0.00000  -0.00083  -0.00090   1.81785
   A25        2.02139   0.00047   0.00000   0.00402   0.00399   2.02538
   A26        1.88389   0.00035   0.00000   0.00408   0.00411   1.88800
   A27        1.90669   0.00036   0.00000   0.00740   0.00744   1.91413
   A28        1.93483  -0.00013   0.00000  -0.00374  -0.00374   1.93108
   A29        1.89733  -0.00108   0.00000  -0.01076  -0.01076   1.88657
   A30        1.90387  -0.00263   0.00000  -0.01444  -0.01444   1.88942
   A31        1.96595   0.00213   0.00000   0.00940   0.00940   1.97535
   A32        1.89498   0.00100   0.00000   0.00515   0.00516   1.90014
   A33        1.91383  -0.00228   0.00000  -0.01105  -0.01108   1.90275
   A34        1.87420  -0.00219   0.00000  -0.01424  -0.01424   1.85996
   A35        1.93026   0.00112   0.00000   0.01170   0.01173   1.94199
   A36        1.88203   0.00019   0.00000  -0.00148  -0.00145   1.88058
   A37        1.84856   0.00325   0.00000   0.01780   0.01780   1.86636
   A38        2.13445   0.02277   0.00000   0.08954   0.08994   2.22438
   A39        2.12205  -0.01002   0.00000  -0.03726  -0.03746   2.08459
   A40        2.02664  -0.01275   0.00000  -0.05227  -0.05246   1.97418
   A41        2.16004  -0.02988   0.00000  -0.11809  -0.11771   2.04233
   A42        1.97228   0.02102   0.00000   0.07420   0.07402   2.04630
   A43        2.14671   0.00487   0.00000   0.01935   0.01943   2.16614
   A44        2.16419  -0.02588   0.00000  -0.09355  -0.09346   2.07073
   A45        2.23278  -0.00093   0.00000  -0.00211  -0.00255   2.23023
   A46        2.01948   0.00426   0.00000   0.02186   0.02207   2.04155
   A47        2.03087  -0.00333   0.00000  -0.01976  -0.01954   2.01134
   A48        1.99763  -0.00948   0.00000  -0.03119  -0.03149   1.96613
   A49        2.18534   0.00619   0.00000   0.02091   0.02106   2.20640
   A50        2.10021   0.00329   0.00000   0.01027   0.01042   2.11063
    D1        0.66992   0.00155   0.00000   0.01596   0.01598   0.68590
    D2       -1.34789  -0.00154   0.00000  -0.00736  -0.00731  -1.35520
    D3        2.75652   0.00008   0.00000   0.00505   0.00506   2.76158
    D4       -1.36057   0.00160   0.00000   0.01874   0.01875  -1.34181
    D5        2.90481  -0.00150   0.00000  -0.00458  -0.00454   2.90027
    D6        0.72603   0.00013   0.00000   0.00783   0.00784   0.73387
    D7        2.71957   0.00179   0.00000   0.01781   0.01780   2.73738
    D8        0.70177  -0.00131   0.00000  -0.00551  -0.00549   0.69628
    D9       -1.47701   0.00032   0.00000   0.00689   0.00689  -1.47012
   D10       -0.69242  -0.00058   0.00000  -0.01274  -0.01268  -0.70510
   D11       -2.78703  -0.00135   0.00000  -0.02370  -0.02367  -2.81070
   D12        1.36540  -0.00053   0.00000  -0.01557  -0.01554   1.34986
   D13        1.35255  -0.00039   0.00000  -0.01562  -0.01559   1.33696
   D14       -0.74205  -0.00116   0.00000  -0.02658  -0.02658  -0.76863
   D15       -2.87281  -0.00034   0.00000  -0.01845  -0.01845  -2.89126
   D16       -2.78347  -0.00051   0.00000  -0.01446  -0.01441  -2.79788
   D17        1.40511  -0.00128   0.00000  -0.02542  -0.02540   1.37971
   D18       -0.72565  -0.00046   0.00000  -0.01728  -0.01728  -0.74292
   D19        1.56253  -0.00021   0.00000  -0.00189  -0.00187   1.56067
   D20       -2.76497  -0.00002   0.00000  -0.00518  -0.00521  -2.77018
   D21       -0.63526  -0.00016   0.00000  -0.00328  -0.00327  -0.63853
   D22       -0.43066  -0.00105   0.00000  -0.01074  -0.01066  -0.44131
   D23       -2.49107   0.00179   0.00000   0.01717   0.01703  -2.47404
   D24        1.68234   0.00177   0.00000   0.01571   0.01565   1.69799
   D25        1.59457  -0.00279   0.00000  -0.01860  -0.01841   1.57616
   D26       -0.46584   0.00005   0.00000   0.00931   0.00927  -0.45657
   D27       -2.57562   0.00003   0.00000   0.00785   0.00790  -2.56772
   D28       -2.54030  -0.00179   0.00000  -0.01187  -0.01176  -2.55206
   D29        1.68248   0.00105   0.00000   0.01604   0.01593   1.69840
   D30       -0.42730   0.00103   0.00000   0.01458   0.01455  -0.41275
   D31       -0.64382   0.00084   0.00000   0.00475   0.00466  -0.63916
   D32       -2.57137  -0.00074   0.00000  -0.00481  -0.00471  -2.57608
   D33        1.55843  -0.00027   0.00000  -0.00421  -0.00421   1.55422
   D34       -0.00037   0.00071   0.00000   0.00181   0.00170   0.00133
   D35        2.04637  -0.00234   0.00000  -0.02858  -0.02845   2.01792
   D36       -2.13576  -0.00130   0.00000  -0.01887  -0.01884  -2.15461
   D37       -1.59849   0.00075   0.00000   0.00582   0.00568  -1.59281
   D38        1.50988   0.00065   0.00000   0.00442   0.00427   1.51416
   D39        0.47080  -0.00046   0.00000   0.01130   0.01144   0.48224
   D40       -2.70401  -0.00056   0.00000   0.00989   0.01003  -2.69398
   D41        2.57943   0.00069   0.00000   0.01329   0.01329   2.59272
   D42       -0.59538   0.00060   0.00000   0.01189   0.01189  -0.58350
   D43        0.44018  -0.00029   0.00000   0.00707   0.00712   0.44730
   D44        2.61046   0.00051   0.00000   0.01540   0.01544   2.62590
   D45       -1.58227  -0.00068   0.00000   0.00450   0.00455  -1.57772
   D46        3.12607  -0.00002   0.00000  -0.00037  -0.00036   3.12571
   D47       -0.00566  -0.00012   0.00000  -0.00184  -0.00184  -0.00750
   D48        0.01790   0.00013   0.00000   0.00124   0.00127   0.01916
   D49       -3.11382   0.00003   0.00000  -0.00023  -0.00022  -3.11404
   D50       -3.13472  -0.00003   0.00000   0.00075   0.00075  -3.13396
   D51        0.00227  -0.00008   0.00000  -0.00053  -0.00053   0.00174
   D52       -0.02465   0.00015   0.00000   0.00039   0.00044  -0.02420
   D53        3.11234   0.00010   0.00000  -0.00088  -0.00084   3.11150
   D54        1.17663  -0.00159   0.00000  -0.04628  -0.04626   1.13037
   D55       -0.89672  -0.00082   0.00000  -0.03772  -0.03772  -0.93444
   D56       -2.94896  -0.00033   0.00000  -0.03266  -0.03267  -2.98164
   D57       -0.86953  -0.00224   0.00000  -0.05316  -0.05315  -0.92267
   D58       -2.94288  -0.00148   0.00000  -0.04459  -0.04460  -2.98748
   D59        1.28806  -0.00099   0.00000  -0.03954  -0.03956   1.24850
   D60       -2.98295  -0.00164   0.00000  -0.04650  -0.04647  -3.02942
   D61        1.22689  -0.00088   0.00000  -0.03793  -0.03793   1.18896
   D62       -0.82536  -0.00039   0.00000  -0.03288  -0.03288  -0.85825
   D63        1.24580  -0.00324   0.00000  -0.07318  -0.07312   1.17268
   D64       -2.95194  -0.00218   0.00000  -0.07056  -0.07056  -3.02250
   D65       -0.90264  -0.00263   0.00000  -0.07427  -0.07433  -0.97697
   D66       -0.00172  -0.00004   0.00000  -0.00104  -0.00103  -0.00275
   D67        3.13051   0.00006   0.00000   0.00039   0.00040   3.13090
   D68       -0.00599   0.00001   0.00000   0.00010   0.00007  -0.00592
   D69        3.13810   0.00015   0.00000   0.00229   0.00236   3.14046
   D70       -0.00351   0.00006   0.00000   0.00088   0.00087  -0.00263
   D71       -3.13353   0.00013   0.00000   0.00194   0.00195  -3.13159
   D72        3.13556  -0.00003   0.00000  -0.00115  -0.00112   3.13444
   D73        0.00554   0.00004   0.00000  -0.00009  -0.00005   0.00549
   D74        0.01851   0.00001   0.00000  -0.00065  -0.00063   0.01788
   D75       -3.11873   0.00005   0.00000   0.00052   0.00054  -3.11819
   D76       -3.13472  -0.00001   0.00000  -0.00148  -0.00145  -3.13617
   D77        0.01123   0.00003   0.00000  -0.00031  -0.00028   0.01095
         Item               Value     Threshold  Converged?
 Maximum Force            0.036235     0.000450     NO 
 RMS     Force            0.007343     0.000300     NO 
 Maximum Displacement     0.203394     0.001800     NO 
 RMS     Displacement     0.049173     0.001200     NO 
 Predicted change in Energy=-1.234763D-02
 GradGradGradGradGradGradGradGradGradGradGradGradGradGradGradGradGradGrad

                          Input orientation:                          
 ---------------------------------------------------------------------
 Center     Atomic      Atomic             Coordinates (Angstroms)
 Number     Number       Type             X           Y           Z
 ---------------------------------------------------------------------
      1          6           0       -2.101030   -0.181280    0.849094
      2          6           0       -1.210924   -1.358680    0.440341
      3          6           0       -0.438471   -0.765652   -0.746753
      4          8           0       -2.034159   -2.431752    0.018203
      5          1           0       -0.518957   -1.682394    1.232183
      6          8           0       -1.288002    0.280843   -1.271588
      7          1           0       -0.328103   -1.554755   -1.504196
      8          6           0        0.925078   -0.245388   -0.371475
      9          6           0       -2.482635    0.369268   -0.516326
     10          1           0       -1.525324    0.571187    1.406846
     11          8           0       -3.267795   -0.576367    1.560997
     12          6           0       -2.996937    1.796679   -0.539190
     13          1           0       -3.265318   -0.285063   -0.946002
     14          8           0       -2.024348    2.745135   -0.146174
     15          1           0       -3.828583    1.886444    0.174199
     16          1           0       -3.391012    2.020848   -1.545183
     17          1           0       -3.056150   -0.597287    2.497505
     18          1           0       -2.814154   -2.420443    0.588012
     19          1           0       -1.343813    2.747789   -0.827424
     20          6           0        1.213810    1.050858    0.021348
     21          7           0        2.406671    1.547883    0.378445
     22          6           0        3.468928    0.687001    0.360344
     23          7           0        3.215681   -0.634370   -0.021238
     24          6           0        2.000014   -1.195633   -0.388411
     25          1           0        0.411810    1.787538    0.068630
     26          1           0        4.004154   -1.270975   -0.024594
     27          8           0        4.618411    1.003654    0.661394
     28          8           0        1.915941   -2.393692   -0.681439
 ---------------------------------------------------------------------
                    Distance matrix (angstroms):
                    1          2          3          4          5
     1  C    0.000000
     2  C    1.531548   0.000000
     3  C    2.377461   1.535435   0.000000
     4  O    2.399891   1.416827   2.430487   0.000000
     5  H    2.214284   1.100283   2.182448   2.081135   0.000000
     6  O    2.317728   2.371640   1.446480   3.094912   3.273315
     7  H    3.250797   2.144539   1.099356   2.448970   2.745995
     8  C    3.263622   2.541844   1.506909   3.699881   2.592671
     9  C    1.520886   2.349099   2.349415   2.886618   3.335061
    10  H    1.099423   2.181139   2.757966   3.347370   2.474249
    11  O    1.422759   2.469535   3.656039   2.710078   2.981195
    12  C    2.577266   3.755744   3.626896   4.372329   4.624078
    13  H    2.142127   2.700951   2.874323   2.655883   3.773529
    14  O    3.091980   4.224566   3.898888   5.179506   4.875354
    15  H    2.777662   4.177775   4.401662   4.678793   4.980919
    16  H    3.499426   4.485120   4.137581   4.910283   5.447611
    17  H    1.950019   2.866444   4.172026   3.249102   3.035761
    18  H    2.364437   1.928599   3.188072   0.966024   2.495517
    19  H    3.458834   4.299765   3.629107   5.293327   4.954683
    20  C    3.632009   3.443946   2.572881   4.762130   3.455324
    21  N    4.850864   4.641006   3.835798   5.973963   4.441042
    22  C    5.658376   5.108056   4.313193   6.334639   4.719890
    23  N    5.406495   4.509159   3.727791   5.549140   4.076388
    24  C    4.402146   3.320171   2.501899   4.238853   3.034547
    25  H    3.286295   3.559512   2.811869   4.877265   3.776322
    26  H    6.262909   5.236496   4.529214   6.149021   4.712460
    27  O    6.825701   6.293699   5.539439   7.514812   5.825221
    28  O    4.834600   3.479501   2.863221   4.011762   3.177518
                    6          7          8          9         10
     6  O    0.000000
     7  H    2.084450   0.000000
     8  C    2.446394   2.137279   0.000000
     9  C    1.416118   3.052829   3.465731   0.000000
    10  H    2.704557   3.798307   3.135872   2.157731   0.000000
    11  O    3.560608   4.358262   4.628627   2.413705   2.092092
    12  C    2.398880   4.391586   4.424971   1.517410   2.730298
    13  H    2.082315   3.248220   4.229784   1.106961   3.049039
    14  O    2.807401   4.817730   4.206317   2.447813   2.717894
    15  H    3.335087   5.187699   5.238297   2.142480   2.924777
    16  H    2.743196   4.708294   5.014185   2.147420   3.781109
    17  H    4.254823   4.936861   4.919864   3.216570   2.213210
    18  H    3.617208   3.362619   4.430953   3.018601   3.358783
    19  H    2.507234   4.472312   3.783499   2.655384   3.124501
    20  C    2.919532   3.390279   1.384893   3.797021   3.106854
    21  N    4.240118   4.544192   2.444037   5.108333   4.179967
    22  C    5.045448   4.787423   2.806436   6.024169   5.104031
    23  N    4.762787   3.950275   2.349645   5.807169   5.096069
    24  C    3.710934   2.606544   1.434831   4.749676   4.332737
    25  H    2.637361   3.767250   2.142411   3.275893   2.650060
    26  H    5.654206   4.586742   3.263872   6.708996   6.001475
    27  O    6.256564   5.975219   4.033316   7.225949   6.203887
    28  O    4.215051   2.533076   2.386021   5.196988   4.999374
                   11         12         13         14         15
    11  O    0.000000
    12  C    3.180487   0.000000
    13  H    2.523868   2.138031   0.000000
    14  O    3.936112   1.414200   3.370732   0.000000
    15  H    2.881516   1.099370   2.507501   2.023673   0.000000
    16  H    4.050811   1.103435   2.385801   2.085567   1.779271
    17  H    0.960352   3.867311   3.463953   4.384682   3.487596
    18  H    2.133801   4.368995   2.667695   5.276933   4.444051
    19  H    4.522862   1.928862   3.592275   0.962931   2.814115
    20  C    5.010306   4.312869   4.773158   3.658457   5.113443
    21  N    6.173365   5.486614   6.106170   4.619801   6.247778
    22  C    6.958528   6.621779   6.928313   5.888001   7.397769
    23  N    6.674001   6.691405   6.555955   6.236551   7.484274
    24  C    5.650973   5.826336   5.372501   5.637714   6.617271
    25  H    4.621115   3.462526   4.341247   2.626404   4.242860
    26  H    7.475147   7.660978   7.393662   7.244774   8.447519
    27  O    8.093084   7.750085   8.148479   6.914562   8.506961
    28  O    5.933153   6.458778   5.600157   6.497686   7.214654
                   16         17         18         19         20
    16  H    0.000000
    17  H    4.828052   0.000000
    18  H    4.960681   2.651155   0.000000
    19  H    2.287935   5.017647   5.556617   0.000000
    20  C    4.959767   5.203873   5.347479   3.184560   0.000000
    21  N    6.126758   6.239758   6.561139   4.118255   1.340697
    22  C    7.243546   6.985235   7.013214   5.368437   2.309300
    23  N    7.281551   6.758795   6.318240   5.733927   2.617115
[...]
 0.00007575,-0.00013416,0.00006114,0.00004755,0.00001408,-0.00035047,-0
 .05212081,-0.05276058,-0.10412416,-0.03112935,0.15022009,0.22891047,-0
 .00133862,0.00063956,0.00036419,0.00007191,-0.00232768,0.00113282,-0.0
 1086512,0.00060498,-0.00264550,0.00201255,0.00169952,-0.00041585,-0.00
 005067,-0.00005955,0.00025511,0.00629727,-0.00289603,0.00118220,0.0006
 7530,0.00019031,0.00000070,-0.00199250,0.02579185,0.02334702,-0.002049
 80,0.00010398,0.00153444,-0.00020763,0.00015890,0.00005752,0.00219523,
 -0.00003072,-0.00108476,-0.00001322,0.00024678,-0.00054387,0.00075557,
 0.00014697,-0.00002960,0.00071318,-0.00086360,0.00050619,0.00021868,-0
 .00025712,-0.00011860,0.00006340,-0.00000029,0.00028561,-0.00029026,0.
 00006062,0.00029098,-0.00013962,0.00004392,-0.00002480,-0.00064785,0.0
 0100444,-0.00051394,-0.08618114,-0.01307516,0.00128284,-0.18823371,0.0
 3992194,0.05676092,0.91832972,-0.00002804,0.00006306,0.00019748,-0.000
 38562,0.00025039,-0.00035268,0.00369683,-0.00078309,-0.00098572,0.0002
 3459,-0.00008629,0.00003858,0.00006697,-0.00001154,0.00018595,-0.00011
 190,0.00024783,0.00008293,-0.00072451,-0.00011384,0.00008176,0.0093569
 3,-0.02414503,-0.02144419,-0.00025192,0.00017965,-0.00013711,-0.000033
 36,0.00000117,-0.00010090,0.00014529,-0.00017005,-0.00005233,0.0000474
 9,0.00011735,0.00014499,0.00002780,-0.00000394,-0.00001248,-0.00008823
 ,-0.00028397,-0.00013528,-0.00001959,0.00001405,-0.00000999,-0.0000222
 8,-0.00001566,-0.00002581,-0.00003161,0.00006862,0.00002636,-0.0000622
 8,0.00005291,0.00004980,-0.00010402,0.00031760,0.00008025,0.00985646,0
 .02543584,0.02771847,0.04961893,-0.12715789,-0.05319028,0.11917559,0.4
 1563005,0.00019159,-0.00025553,0.00015414,-0.00012181,0.00100916,-0.00
 001227,0.00559039,-0.00091485,-0.00037543,-0.00014755,-0.00037528,-0.0
 0007756,0.00007796,0.00009941,0.00005331,-0.00120920,0.00096786,-0.000
 39896,-0.00075483,-0.00019436,0.00015674,0.00890861,-0.02501045,-0.027
 57353,-0.00002980,0.00012163,-0.00028682,0.00007265,-0.00014456,0.0000
 0776,-0.00043964,-0.00006329,0.00000772,-0.00008291,-0.00007200,0.0001
 3747,-0.00013040,0.00000490,-0.00000764,0.00000956,0.00006080,-0.00018
 517,-0.00000012,0.00006779,0.00000502,-0.00003191,0.00001307,-0.000063
 96,0.00006956,0.00001922,-0.00003105,0.00004849,0.00004040,0.00006180,
 -0.00016578,0.00002311,0.00015678,0.02340741,0.03171818,0.02114813,0.0
 6619471,-0.05159915,-0.14208073,-0.00163992,0.16307242,0.38465278,0.00
 043175,-0.00000569,-0.00017871,-0.00008551,-0.00003992,-0.00086626,-0.
 00229453,0.00203133,0.00448284,-0.00081651,-0.00045843,0.00031396,-0.0
 0008849,0.00004391,-0.00007788,-0.00128191,0.00040832,-0.00042115,0.00
 098377,0.00009088,-0.00033513,-0.04945025,0.00228501,0.01207511,0.0006
 8947,-0.00008937,-0.00021649,0.00006161,-0.00004713,-0.00000951,-0.000
 59249,0.00006345,0.00034782,0.00001198,-0.00012874,0.00006588,-0.00017
 121,-0.00004690,-0.00000792,-0.00016153,0.00041081,-0.00012079,-0.0000
 4749,0.00004571,0.00003116,-0.00001474,0.00000890,-0.00006417,0.000074
 39,-0.00003403,-0.00009359,0.00002973,-0.00010089,-0.00003228,0.000187
 56,-0.00046581,0.00022657,-0.01748857,-0.01261522,-0.00928617,0.023402
 65,0.02304538,0.02109051,-0.14202665,0.01977255,0.03316851,0.78972233,
 0.00003320,-0.00019008,-0.00017048,0.00056845,0.00042846,0.00075360,0.
 00222310,0.00109130,-0.00306983,0.00015256,0.00021918,-0.00008992,-0.0
 0003379,-0.00002270,-0.00009305,-0.00156975,0.00031351,-0.00025475,0.0
 0113776,0.00009253,-0.00033513,-0.00335669,0.02659983,0.01699671,0.000
 44718,-0.00018596,-0.00035528,-0.00000642,0.00002709,0.00005405,-0.000
 19343,0.00016535,0.00015322,-0.00015919,-0.00018534,-0.00004821,-0.000
 09626,0.00000966,0.00005547,0.00012207,0.00034512,0.00010016,0.0000007
 8,0.00004189,0.00002247,0.00003003,0.00000023,0.00002246,0.00001335,-0
 .00006572,-0.00002560,0.00008475,0.00006092,-0.00006296,0.00001159,-0.
 00034946,-0.00005906,-0.01977932,-0.01935502,-0.01382798,0.03804568,-0
 .00908118,-0.03094134,-0.02099373,-0.13976307,-0.07501071,0.01190917,0
 .39393967,-0.00005137,-0.00020259,-0.00005765,-0.00021900,-0.00010495,
 0.00001557,0.00170374,-0.00321664,0.00004709,-0.00014527,0.00019069,0.
 00011811,-0.00005516,-0.00005008,-0.00013147,0.00087372,0.00036531,0.0
 0050261,0.00094912,-0.00000500,-0.00012943,0.00758527,0.01591004,0.024
 36887,0.00035802,-0.00010496,0.00010536,-0.00004237,0.00007290,0.00001
 923,-0.00008491,0.00015191,0.00013251,-0.00004365,-0.00005661,-0.00009
 057,0.00005277,-0.00000688,0.00000774,0.00005696,0.00015253,0.00018208
 ,-0.00000774,-0.00000032,0.00001845,0.00003682,0.00000176,0.00004085,-
 0.00001227,-0.00004383,-0.00002313,0.00000190,-0.00003680,-0.00004788,
 0.00005064,-0.00016387,-0.00021180,-0.01643545,-0.01540681,-0.01318403
 ,0.03572135,-0.02820175,-0.01725761,-0.00618683,-0.08167365,-0.1369062
 9,-0.11373594,0.31946818,0.38813491,-0.00082586,-0.00038239,0.00037973
 ,-0.00101096,-0.00079174,-0.00268323,-0.03065649,0.00647276,0.01202975
 ,0.00085724,0.00088400,0.00039018,0.00037557,-0.00017390,0.00096266,0.
 00225130,-0.00124601,0.00165111,-0.00076982,0.00125868,0.00103361,-0.2
 1187957,0.02100042,0.04317176,-0.00118720,0.00047817,0.00017175,-0.000
 30002,0.00029668,0.00016421,0.00104590,0.00027272,-0.00044175,-0.00046
 645,-0.00014608,-0.00029773,0.00040060,0.00011446,0.00000061,0.0008951
 2,-0.00050794,0.00045777,0.00011827,-0.00003649,-0.00006250,0.00010628
 ,0.00002434,0.00019180,-0.00018350,-0.00002088,0.00015148,-0.00005536,
 -0.00018664,0.00010194,-0.00092311,0.00097963,-0.00062129,0.05628000,0
 .04486001,0.03287145,-0.06769624,0.00120719,0.01249723,0.03975550,-0.0
 6721692,-0.07393197,-0.25232697,-0.01724417,0.01769314,0.58939317,0.00
 085639,0.00009568,-0.00016443,-0.00355956,-0.00071709,-0.00159525,-0.0
 0040823,0.01090074,0.01308719,-0.00246318,-0.00193832,0.00057870,0.000
 09114,0.00001667,-0.00100053,-0.00381323,-0.00026778,-0.00179498,-0.00
 425121,-0.00197711,-0.00009195,0.03840646,-0.10770511,-0.03690065,0.00
 004306,-0.00005586,-0.00069093,0.00002347,-0.00017831,-0.00013560,-0.0
 0088544,-0.00026003,0.00030353,0.00037949,0.00024086,0.00040392,-0.000
 51898,-0.00004453,0.00004446,-0.00086354,-0.00008329,-0.00043474,-0.00
 010350,0.00005004,0.00001339,-0.00013352,0.00000749,-0.00020895,0.0001
 1368,0.00006594,-0.00009204,-0.00029191,-0.00040139,0.00003694,0.00081
 846,-0.00025105,0.00044618,0.01928676,-0.01801691,-0.02191907,0.004073
 32,0.00380859,0.00577512,-0.01924735,-0.01786574,-0.00076741,-0.053452
 84,-0.11013484,-0.04388241,0.00977714,0.57337353,0.00108308,0.00037586
 ,-0.00060993,0.00044612,0.00013452,-0.00105443,0.00806823,0.00940269,0
 .01287073,-0.00172184,-0.00186699,0.00003498,-0.00015618,0.00013878,-0
 .00074598,-0.00920884,0.00095067,-0.00487307,-0.00428442,-0.00191558,-
 0.00077735,0.05764527,-0.03605937,-0.11836609,0.00012004,0.00007332,-0
 .00158392,0.00013818,-0.00032555,-0.00004514,-0.00077259,-0.00035809,0
 .00031941,0.00017287,0.00007608,0.00057571,-0.00073046,-0.00003960,0.0
 0013607,-0.00077770,0.00021022,-0.00047786,-0.00010824,0.00016334,0.00
 003616,-0.00011853,0.00000606,-0.00023417,0.00016382,0.00005902,-0.000
 09206,-0.00005735,-0.00012015,0.00006798,0.00084248,-0.00069741,0.0005
 5182,0.00949577,-0.02574430,-0.02510397,0.01449065,0.00616704,0.000626
 12,-0.02741023,0.00737104,-0.00186132,-0.01704107,-0.05037749,-0.10011
 499,-0.05646186,0.34804044,0.55147309,-0.00203939,-0.00071117,-0.00016
 305,0.00038441,0.00010599,0.00068518,-0.00099088,0.00041092,-0.0008042
 4,-0.00003381,-0.00011774,-0.00021426,-0.00001656,0.00021241,-0.000137
 82,0.00059915,-0.00058319,0.00002149,0.00007452,0.00005663,0.00008106,
 0.00436580,-0.00105843,-0.00053607,0.00000987,0.00028008,0.00019481,-0
 .00104144,-0.00030852,-0.00000769,-0.00028009,-0.00031770,-0.00019642,
 0.00015141,0.00014597,0.00000618,0.00004991,-0.00004011,-0.00002389,-0
 .00042429,-0.00006810,-0.00035830,-0.00002461,-0.00004822,-0.00000489,
 -0.00006640,-0.00001738,-0.00006976,0.00009000,0.00003314,-0.00001415,
 0.00000758,0.00007420,-0.00002773,0.00012383,0.00008956,0.00047147,-0.
 19039027,0.07924491,0.10027482,-0.03523953,0.00517800,0.01090088,-0.00
 176936,-0.00308413,-0.00108246,0.00037242,0.00038769,0.00019249,0.0010
 9453,-0.00196813,-0.00046311,0.22717519,-0.00064883,-0.00084543,-0.000
 17247,-0.00101861,-0.00047437,-0.00065232,0.00119451,-0.00107538,0.001
 82738,0.00018699,0.00031433,0.00026533,0.00000323,-0.00045691,0.000308
 58,-0.00003550,0.00029306,0.00011637,0.00005653,-0.00008164,0.00018203
 ,0.01819570,-0.00162892,-0.01382218,0.00004665,-0.00004627,-0.00028422
 ,-0.00033643,0.00088424,0.00025848,0.00040222,0.00041453,0.00002794,0.
 00015477,0.00025521,-0.00001868,0.00000737,-0.00001422,0.00015273,-0.0
 0023564,-0.00039011,0.00009270,-0.00000385,0.00000915,-0.00000262,-0.0
 0001186,-0.00007586,0.00003791,-0.00012719,-0.00004158,0.00008291,-0.0
 0002170,-0.00008595,0.00005462,0.00024505,0.00018153,-0.00002141,0.079
 46463,-0.09654383,-0.06080993,-0.01163552,0.00661653,0.00869313,-0.004
 17404,0.00538519,-0.00430286,-0.00051974,-0.00026767,0.00063500,-0.003
 76045,0.00148123,-0.00667867,-0.07906082,0.08895854,-0.00014126,-0.000
 50200,-0.00033527,-0.00015275,-0.00084324,-0.00004653,0.00144888,0.001
 41782,-0.00109355,-0.00002693,0.00039635,0.00008083,-0.00002129,-0.000
 11725,-0.00003301,-0.00116589,0.00096832,0.00019627,0.00008745,-0.0000
 2315,-0.00000903,0.01854225,-0.01045170,-0.00363675,-0.00026356,-0.000
 04951,-0.00045342,-0.00020405,0.00044691,0.00056177,0.00064448,0.00054
 474,0.00003053,-0.00057036,-0.00033377,-0.00014329,0.00004820,0.000066
 22,0.00008842,0.00072906,-0.00008259,0.00060391,0.00007877,0.00005109,
 -0.00000709,0.00011153,0.00003788,0.00010945,-0.00005722,-0.00005690,0
 .00013692,-0.00002986,-0.00011090,0.00000777,-0.00038512,0.00028786,-0
 .00109013,0.09936672,-0.06047915,-0.12204907,-0.00485570,0.00584199,0.
 00611899,-0.00197045,-0.00457146,0.00665398,-0.00067777,0.00050050,-0.
 00025676,-0.00231051,-0.00703151,0.00296188,-0.10949289,0.07284251,0.1
 1495973,0.00000985,-0.00001889,-0.00000797,-0.00012497,-0.00008941,-0.
 00028984,-0.00033521,0.00066757,0.00113543,-0.00008658,-0.00004125,0.0
 0006564,0.00000566,-0.00000824,0.00002370,-0.00011224,0.00001531,-0.00
 004409,-0.00008390,-0.00001966,-0.00002248,-0.00254193,-0.00447487,-0.
 00313908,-0.00001619,0.00000157,-0.00003666,-0.00000192,0.00001784,0.0
 0000908,0.00000582,0.00001462,0.00000269,-0.00003166,-0.00002986,-0.00
 000159,-0.00000722,0.00000640,0.00000507,0.00003889,0.00002399,0.00000
 372,0.00000619,0.00000479,-0.00000253,0.,0.00000518,0.00000165,-0.0000
 0622,-0.00000289,0.00000217,-0.00000963,-0.00003617,0.00001025,-0.0000
 3899,-0.00001238,-0.00000144,0.00000133,-0.00050345,-0.00058034,0.0026
 3295,-0.00236325,-0.00187346,0.00904357,0.00053837,-0.00122532,-0.3232
 8407,0.10122263,0.15014579,-0.02277154,0.01522348,0.01856925,-0.000064
 88,0.00011428,-0.00007713,0.33454696,0.00002682,-0.00000679,-0.0000310
 0,0.00003949,0.00004856,-0.00011169,-0.00052562,0.00065426,0.00022411,
 -0.00004235,-0.00007625,0.00002700,-0.00001266,0.00000077,0.00002720,-
 0.00038521,0.00001137,-0.00008410,-0.00003608,0.00004525,0.00000039,-0
 .00327249,0.00124059,-0.00300853,0.00004708,0.00000668,-0.00008352,-0.
 00001115,-0.00000141,0.00000885,-0.00002350,-0.00000612,0.00003544,-0.
 00001068,0.00000207,0.00000667,-0.00003581,-0.00000265,0.00000705,-0.0
 0000588,-0.00001300,0.00003630,-0.00000602,0.00000906,0.00000282,0.000
 00622,-0.00000177,0.00000252,-0.00000296,0.00000090,-0.00000437,-0.000
 00299,0.00000086,-0.00000201,0.00001638,-0.00000282,-0.00004856,-0.001
 58401,-0.00068596,-0.00000987,-0.00138220,-0.00178558,-0.00625132,0.02
 645211,-0.00420344,-0.00728338,0.10118988,-0.08815285,-0.08668025,-0.0
 1095192,0.00977658,0.01153679,0.00023089,-0.00044818,0.00052336,-0.110
 45477,0.08614369,0.00001385,-0.00003079,0.00000205,-0.00016252,-0.0000
 5364,-0.00005456,-0.00043803,-0.00026704,0.00065990,-0.00010485,-0.000
 01639,0.00002325,0.00001263,-0.00001667,-0.00004103,0.00002389,0.00004
 920,0.00000364,-0.00002060,0.00003313,0.00007293,-0.00173939,-0.002644
 92,0.00259897,0.00001951,0.00000838,0.00000915,-0.00001507,0.00000291,
 -0.00000185,-0.00003421,0.00003242,0.00001016,-0.00001275,-0.00002141,
 0.00000906,-0.00000455,-0.00000246,0.00000220,0.00000217,0.00004451,-0
 .00002200,0.00000037,0.00000244,-0.00000022,-0.00000414,0.00000739,-0.
 00000854,0.00000493,-0.00001038,-0.00000149,-0.00000294,-0.00002651,0.
 00000394,0.00000832,-0.00004379,0.00002774,-0.00166891,-0.00021593,-0.
 00031109,-0.00091358,-0.00611437,-0.00086425,0.02371389,-0.00290708,-0
 .00813466,0.15007340,-0.08659482,-0.12539794,-0.00669888,0.00693808,0.
 00762891,0.00005720,0.00052736,-0.00051560,-0.16088384,0.08585399,0.12
 703333,0.00108499,-0.00035853,-0.00024809,-0.00009370,0.00175342,-0.00
 083540,0.00787284,0.00039167,0.00254024,-0.00159094,-0.00129107,0.0003
 2963,0.00002987,0.00007050,-0.00029610,-0.00495318,0.00203251,-0.00095
 695,-0.00014698,-0.00014350,-0.00010617,-0.00384673,-0.01007300,-0.008
 05623,0.00162092,-0.00015987,-0.00118122,0.00015722,-0.00023655,-0.000
 09442,-0.00175616,-0.00000447,0.00085055,-0.00000938,-0.00024792,0.000
 38284,-0.00059704,-0.00009590,0.00002060,-0.00050625,0.00079874,-0.000
 36610,-0.00015325,0.00019830,0.00009607,-0.00004194,0.00000827,-0.0002
 0714,0.00022462,-0.00004819,-0.00024061,0.00010768,-0.00003420,-0.0000
 1081,0.00044991,-0.00092301,0.00039661,0.01199906,0.01239875,0.0112440
 7,-0.09259652,-0.00589181,0.01303472,-0.53364503,-0.15448882,-0.073607
 73,-0.02578019,-0.03779939,-0.02868848,-0.00048906,0.00313155,0.003995
 21,-0.00237096,-0.00010878,0.00022987,-0.00208570,-0.00209882,-0.00220
 510,0.64743039,0.00022500,-0.00018595,-0.00013089,-0.00000163,0.000270
 22,-0.00024822,0.00124771,0.00006810,0.00155503,-0.00049470,-0.0002359
 4,0.00011174,-0.00000757,-0.00000892,-0.00011390,-0.00125725,0.0006014
 8,-0.00027528,0.00023065,0.00004485,-0.00007561,-0.00387368,0.00202716
 ,0.00415021,0.00050567,-0.00008841,-0.00028869,0.00002300,-0.00002664,
 0.00002424,-0.00043821,0.00011770,0.00022319,-0.00011305,-0.00016589,0
 .00003253,-0.00015571,-0.00000952,0.00002015,0.00000544,0.00037393,-0.
 00001711,-0.00002289,0.00005554,0.00002620,0.00000636,0.00001351,-0.00
 003105,0.00005502,-0.00005439,-0.00005748,0.00004138,-0.00005987,-0.00
 000466,0.00008303,-0.00038920,0.00003967,-0.00001108,0.00014440,-0.006
 64502,0.00926585,0.02382252,0.00359672,-0.15429413,-0.14292403,-0.0330
 9260,-0.06164489,-0.02290800,-0.03267218,0.01661495,0.00479333,-0.0050
 2764,0.00034610,-0.00038538,0.00064142,-0.00021103,0.00024125,0.003724
 23,0.19846119,0.13912824,0.00007214,-0.00007436,-0.00010181,-0.0000597
 0,0.00000428,-0.00015009,-0.00023323,0.00086610,0.00029099,-0.00014365
 ,-0.00004413,0.00009754,-0.00000660,-0.00004114,-0.00002667,-0.0005791
 4,0.00003500,-0.00003145,0.00032403,0.00002031,-0.00002906,-0.00332856
 ,0.00497943,0.00396934,0.00022882,-0.00005794,-0.00016086,-0.00002052,
 0.00004715,0.00001124,-0.00010204,0.00004855,0.00013843,-0.00001785,-0
 .00002463,-0.00000441,-0.00005205,-0.00001065,0.00002131,-0.00002998,0
 .00005410,0.00008191,-0.00001939,0.00001607,0.00001099,0.00001695,-0.0
 0000339,0.00000841,-0.00000685,-0.00001862,-0.00002427,-0.00000535,-0.
 00002006,-0.00002851,0.00008173,-0.00007839,-0.00008957,-0.00078570,-0
 .00883499,-0.00116856,0.02765578,0.00619264,0.01973692,-0.07320059,-0.
 03302083,-0.10156985,-0.05167098,-0.03663783,-0.00513337,0.01725065,-0
 .00263658,0.00138708,0.00057490,0.00069268,-0.00050786,-0.00046947,0.0
 0401647,0.00041264,0.08915273,0.06645068,0.08525388,0.00032248,-0.0002
 7358,-0.00000125,0.00097162,0.00163287,0.00007611,-0.00124761,-0.00132
 572,0.00066410,-0.00036677,-0.00042645,-0.00000404,-0.00013044,0.00002
 223,0.00016668,-0.00051546,0.00097168,0.00000305,0.00080497,0.00197883
 ,0.00092061,0.01107474,0.02933504,0.02973328,0.00106430,-0.00006858,-0
 .00010446,0.00007937,-0.00005092,-0.00002269,-0.00072998,0.00011633,0.
 00036785,0.00001846,-0.00013512,0.00008508,-0.00012720,-0.00007404,-0.
 00003031,-0.00013623,0.00037586,-0.00010840,-0.00005070,0.00005335,0.0
 0003233,-0.00000968,0.00001350,-0.00006847,0.00007918,-0.00002948,-0.0
 0009775,0.00009599,0.00006240,-0.00000814,0.00008809,-0.00040370,0.000
 14619,-0.01600946,-0.00752290,-0.00327244,0.01515214,-0.00125016,-0.00
 420996,-0.01068073,0.01411543,0.01686189,-0.00005655,-0.05515785,-0.04
 971329,-0.10103132,-0.00026378,0.00408144,0.00025383,0.00162700,0.0011
 1556,0.00531165,0.00283627,0.00097917,-0.00031449,-0.00458552,-0.00462
 610,0.09608979,-0.00070525,-0.00034996,0.00011637,0.00019390,-0.000768
 78,0.00003484,-0.00864471,-0.00484114,-0.00276530,0.00111117,0.0014826
 8,0.00009094,0.00004140,-0.00017427,0.00063766,0.00331272,0.00031982,0
 .00179911,0.00269420,0.00093772,0.00081838,0.01764040,-0.01610016,-0.0
 4047027,-0.00024802,0.00018669,0.00061388,-0.00019328,0.00029349,0.000
 15272,0.00066557,0.00044968,-0.00017552,-0.00041125,-0.00027178,-0.000
 33025,0.00044119,0.00004126,-0.00001728,0.00076852,0.00010172,0.000427
 53,0.00009042,-0.00003716,-0.00002636,0.00010292,0.00002651,0.00016814
 ,-0.00011871,-0.00010214,0.00007399,0.00012462,0.00002707,-0.00001141,
 -0.00064310,0.00023968,-0.00046468,0.00535161,0.00888162,0.00226168,-0
 .00450403,-0.00477126,-0.00228117,0.00197791,0.00976387,0.00186850,-0.
 03165573,-0.03267285,-0.04443874,-0.00157564,-0.34471333,-0.25549503,0
 .00058712,-0.00193184,0.00008613,0.00041010,-0.00279507,0.00174215,-0.
 00524108,-0.00426010,-0.00191990,0.01842702,0.39103802,-0.00080606,-0.
 00026782,0.00015902,-0.00023476,-0.00031406,0.00034153,-0.00860387,-0.
 00245221,-0.00492461,0.00127143,0.00118067,0.00006953,0.00006314,-0.00
 012864,0.00062626,0.00350054,-0.00068362,0.00230234,0.00201678,0.00121
 600,-0.00049965,0.01963455,-0.04108742,-0.02259065,-0.00018149,-0.0000
 4599,0.00057787,-0.00019575,0.00027126,0.00013439,0.00071292,0.0002784
 7,-0.00014564,-0.00035566,-0.00016619,-0.00044033,0.00040084,0.0000582
 5,-0.00004296,0.00072716,-0.00006249,0.00054187,0.00008392,-0.00005041
 ,-0.00001149,0.00013081,-0.00002001,0.00022038,-0.00015656,-0.00006281
 ,0.00008703,0.00003465,0.00005371,-0.00005098,-0.00063572,0.00039745,-
 0.00060604,0.00876168,0.00486313,0.00798192,-0.00721640,-0.00289928,-0
 .00299453,0.00507051,-0.00043024,0.00636963,-0.02703995,-0.04017238,-0
 .01475048,0.00233891,-0.25632091,-0.32272968,0.00013625,-0.00003231,-0
 .00233308,-0.00131922,0.00128965,-0.00314459,-0.00517260,-0.00191566,-
 0.00239435,0.00703396,0.33750387,0.35824729\\-0.00000868,0.00001120,0.
 00000030,-0.00000278,-0.00001967,0.00000241,-0.00000992,0.00001087,-0.
 00001585,0.00000875,0.00000098,0.00001516,0.00000324,-0.00000004,-0.00
 000377,0.00000725,0.00000312,-0.00000095,-0.00000153,0.00000181,0.0000
 0133,0.00000655,0.00000778,0.00000752,-0.00000763,-0.00000764,0.000010
 95,0.00000247,-0.00000031,0.00000014,0.00000199,0.00000504,-0.00000348
 ,-0.00000264,0.00000220,-0.00000699,0.00000279,-0.00000246,-0.00000209
 ,0.00000013,-0.00000163,-0.00000126,-0.00000224,-0.00000022,0.00000163
 ,-0.00000302,0.00000239,0.00000269,0.00000006,-0.00000267,0.00000081,-
 0.00000277,0.00000563,-0.00000811,0.00000201,0.00000234,-0.00000123,-0
 .00000662,-0.00001780,0.00000890,0.00000747,0.00000176,-0.00000599,-0.
 00001327,0.00000161,0.00001076,0.00000904,-0.00000235,-0.00000746,-0.0
 0000787,0.00000226,0.00000236,0.00000574,-0.00000174,-0.00000470,-0.00
 000139,-0.00000196,0.00000195,0.00001208,0.00000405,-0.00000487,0.0000
 0078,-0.00000453,-0.00000016\\\@
 The archive entry for this job was punched.


 The best way to pay for a lovely moment is to enjoy it.
 -- Richard Bach
 Job cpu time:       0 days  9 hours 46 minutes 46.7 seconds.
 Elapsed time:       0 days  0 hours 14 minutes 47.4 seconds.
 File lengths (MBytes):  RWF=    600 Int=      0 D2E=      0 Chk=     20 Scr=      1
 Normal termination of Gaussian 16 at Sun Oct 27 02:06:59 2024.
