 Entering Gaussian System, Link 0=g16
 Input=PseudoUridineNsrrgPBE0aVDZ.gjf
 Output=PseudoUridineNsrrgPBE0aVDZ.log
 Initial command:
 /sw/contrib/chem-src/g16/c01/g16/l1.exe "/scr/Gau-36718.inp" -scrdir="/scr/"
 Entering Link 1 = /sw/contrib/chem-src/g16/c01/g16/l1.exe PID=     36719.
  
 Copyright (c) 1988-2019, Gaussian, Inc.  All Rights Reserved.
  
 This is part of the Gaussian(R) 16 program.  It is based on
 the Gaussian(R) 09 system (copyright 2009, Gaussian, Inc.),
 the Gaussian(R) 03 system (copyright 2003, Gaussian, Inc.),
 the Gaussian(R) 98 system (copyright 1998, Gaussian, Inc.),
 the Gaussian(R) 94 system (copyright 1995, Gaussian, Inc.),
 the Gaussian 92(TM) system (copyright 1992, Gaussian, Inc.),
 the Gaussian 90(TM) system (copyright 1990, Gaussian, Inc.),
 the Gaussian 88(TM) system (copyright 1988, Gaussian, Inc.),
 the Gaussian 86(TM) system (copyright 1986, Carnegie Mellon
 University), and the Gaussian 82(TM) system (copyright 1983,
 Carnegie Mellon University). Gaussian is a federally registered
 trademark of Gaussian, Inc.
  
 This software contains proprietary and confidential information,
 including trade secrets, belonging to Gaussian, Inc.
  
 This software is provided under written license and may be
 used, copied, transmitted, or stored only in accord with that
 written license.
  
 The following legend is applicable only to US Government
 contracts under FAR:
  
                    RESTRICTED RIGHTS LEGEND
  
 Use, reproduction and disclosure by the US Government is
 subject to restrictions as set forth in subparagraphs (a)
 and (c) of the Commercial Computer Software - Restricted
 Rights clause in FAR 52.227-19.
  
 Gaussian, Inc.
 340 Quinnipiac St., Bldg. 40, Wallingford CT 06492
  
  
 ---------------------------------------------------------------
 Warning -- This program may not be used in any manner that
 competes with the business of Gaussian, Inc. or will provide
 assistance to any competitor of Gaussian, Inc.  The licensee
 of this program is prohibited from giving any competitor of
 Gaussian, Inc. access to this program.  By using this program,
 the user acknowledges that Gaussian, Inc. is engaged in the
 business of creating and licensing software in the field of
 computational chemistry and represents and warrants to the
 licensee that it is not a competitor of Gaussian, Inc. and that
 it will not use this program in any manner prohibited above.
 ---------------------------------------------------------------
  

 Cite this work as:
 Gaussian 16, Revision C.01,
 M. J. Frisch, G. W. Trucks, H. B. Schlegel, G. E. Scuseria, 
 M. A. Robb, J. R. Cheeseman, G. Scalmani, V. Barone, 
 G. A. Petersson, H. Nakatsuji, X. Li, M. Caricato, A. V. Marenich, 
 J. Bloino, B. G. Janesko, R. Gomperts, B. Mennucci, H. P. Hratchian, 
 J. V. Ortiz, A. F. Izmaylov, J. L. Sonnenberg, D. Williams-Young, 
 F. Ding, F. Lipparini, F. Egidi, J. Goings, B. Peng, A. Petrone, 
 T. Henderson, D. Ranasinghe, V. G. Zakrzewski, J. Gao, N. Rega, 
 G. Zheng, W. Liang, M. Hada, M. Ehara, K. Toyota, R. Fukuda, 
 J. Hasegawa, M. Ishida, T. Nakajima, Y. Honda, O. Kitao, H. Nakai, 
 T. Vreven, K. Throssell, J. A. Montgomery, Jr., J. E. Peralta, 
 F. Ogliaro, M. J. Bearpark, J. J. Heyd, E. N. Brothers, K. N. Kudin, 
 V. N. Staroverov, T. A. Keith, R. Kobayashi, J. Normand, 
 K. Raghavachari, A. P. Rendell, J. C. Burant, S. S. Iyengar, 
 J. Tomasi, M. Cossi, J. M. Millam, M. Klene, C. Adamo, R. Cammi, 
 J. W. Ochterski, R. L. Martin, K. Morokuma, O. Farkas, 
 J. B. Foresman, and D. J. Fox, Gaussian, Inc., Wallingford CT, 2019.
 
 ******************************************
 Gaussian 16:  EM64L-G16RevC.01  3-Jul-2019
                26-Oct-2024 
 ******************************************
 %nprocshared=40
 Will use up to   40 processors via shared memory.
 %mem=50gb
 ------------------------------------------------------
 # PBE1PBE/aug-cc-pVDZ opt freq EmpiricalDispersion=GD3
 ------------------------------------------------------
 1/18=20,19=15,26=3,38=1/1,3;
 2/9=110,12=2,17=6,18=5,40=1/2;
 3/5=16,7=10,11=2,25=1,30=1,71=1,74=-13,124=31/1,2,3;
 4//1;
 5/5=2,38=5/2;
 6/7=2,8=2,9=2,10=2,28=1/1;
 7//1,2,3,16;
 1/18=20,19=15,26=3/3(2);
 2/9=110/2;
 99//99;
 2/9=110/2;
 3/5=16,7=10,11=2,25=1,30=1,71=1,74=-13,124=31/1,2,3;
 4/5=5,16=3,69=1/1;
 5/5=2,38=5/2;
 7//1,2,3,16;
 1/18=20,19=15,26=3/3(-5);
 2/9=110/2;
 6/7=2,8=2,9=2,10=2,19=2,28=1/1;
 99/9=1/99;
 ----
 blah
 ----
 Symbolic Z-matrix:
 Charge =  0 Multiplicity = 1
 C                    -2.24604  -0.05287   0.79198 
 C                    -1.25513  -1.22464   0.72202 
 C                    -0.39274  -0.87348  -0.50178 
 O                    -1.94141  -2.4197    0.44458 
 H                    -0.63496  -1.32582   1.62758 
 O                    -1.10616   0.10454  -1.24428 
 H                    -0.2193   -1.77362  -1.0999 
 C                     0.92366  -0.34457  -0.17674 
 C                    -2.39251   0.32898  -0.67615 
 H                    -1.82553   0.79274   1.35448 
 O                    -3.50633  -0.43146   1.31412 
 C                    -2.77628   1.77478  -0.9172 
 H                    -3.143    -0.3352   -1.13785 
 O                    -1.81022   2.67158  -0.40192 
 H                    -3.72127   1.9791   -0.39664 
 H                    -2.93833   1.94068  -1.99384 
 H                    -3.51874  -0.26816   2.26141 
 H                    -2.82464  -2.32765   0.82888 
 H                    -1.02889   2.59201  -0.95947 
 C                     1.05153   0.86756   0.4564 
 N                     2.24191   1.41564   0.77812 
 C                     3.46841   0.71346   0.44526 
 N                     3.24367  -0.50458  -0.20695 
 C                     2.04447  -1.09035  -0.54662 
 H                     0.1135    1.37949   0.66437 
 H                     2.31106   2.37785   1.27603 
 H                     4.06666  -1.0354   -0.46592 
 O                     4.60361   1.08829   0.67758 
 O                     1.97682  -2.16405  -1.11327 
 

 GradGradGradGradGradGradGradGradGradGradGradGradGradGradGradGradGradGrad
 Berny optimization.
 Initialization pass.
                           ----------------------------
                           !    Initial Parameters    !
                           ! (Angstroms and Degrees)  !
 --------------------------                            --------------------------
 ! Name  Definition              Value          Derivative Info.                !
 --------------------------------------------------------------------------------
 ! R1    R(1,2)                  1.5362         estimate D2E/DX2                !
 ! R2    R(1,9)                  1.524          estimate D2E/DX2                !
 ! R3    R(1,10)                 1.0992         estimate D2E/DX2                !
 ! R4    R(1,11)                 1.4157         estimate D2E/DX2                !
 ! R5    R(2,3)                  1.5378         estimate D2E/DX2                !
 ! R6    R(2,4)                  1.4057         estimate D2E/DX2                !
 ! R7    R(2,5)                  1.1022         estimate D2E/DX2                !
 ! R8    R(3,6)                  1.4201         estimate D2E/DX2                !
 ! R9    R(3,7)                  1.0946         estimate D2E/DX2                !
 ! R10   R(3,8)                  1.4554         estimate D2E/DX2                !
 ! R11   R(4,18)                 0.9676         estimate D2E/DX2                !
 ! R12   R(6,9)                  1.424          estimate D2E/DX2                !
 ! R13   R(8,20)                 1.3735         estimate D2E/DX2                !
 ! R14   R(8,24)                 1.3961         estimate D2E/DX2                !
 ! R15   R(9,12)                 1.5152         estimate D2E/DX2                !
 ! R16   R(9,13)                 1.1034         estimate D2E/DX2                !
 ! R17   R(11,17)                0.9613         estimate D2E/DX2                !
 ! R18   R(12,14)                1.4153         estimate D2E/DX2                !
 ! R19   R(12,15)                1.0981         estimate D2E/DX2                !
 ! R20   R(12,16)                1.1013         estimate D2E/DX2                !
 ! R21   R(14,19)                0.9632         estimate D2E/DX2                !
 ! R22   R(20,21)                1.3494         estimate D2E/DX2                !
 ! R23   R(20,25)                1.0887         estimate D2E/DX2                !
 ! R24   R(21,22)                1.452          estimate D2E/DX2                !
 ! R25   R(21,26)                1.0856         estimate D2E/DX2                !
 ! R26   R(22,23)                1.3998         estimate D2E/DX2                !
 ! R27   R(22,28)                1.2178         estimate D2E/DX2                !
 ! R28   R(23,24)                1.3772         estimate D2E/DX2                !
 ! R29   R(23,27)                1.013          estimate D2E/DX2                !
 ! R30   R(24,29)                1.2159         estimate D2E/DX2                !
 ! A1    A(2,1,9)              102.0778         estimate D2E/DX2                !
 ! A2    A(2,1,10)             111.3045         estimate D2E/DX2                !
 ! A3    A(2,1,11)             112.7706         estimate D2E/DX2                !
 ! A4    A(9,1,10)             109.6929         estimate D2E/DX2                !
 ! A5    A(9,1,11)             109.6783         estimate D2E/DX2                !
 ! A6    A(10,1,11)            110.9491         estimate D2E/DX2                !
 ! A7    A(1,2,3)              102.9327         estimate D2E/DX2                !
 ! A8    A(1,2,4)              110.0317         estimate D2E/DX2                !
 ! A9    A(1,2,5)              113.3            estimate D2E/DX2                !
 ! A10   A(3,2,4)              108.1106         estimate D2E/DX2                !
 ! A11   A(3,2,5)              111.0543         estimate D2E/DX2                !
 ! A12   A(4,2,5)              111.0263         estimate D2E/DX2                !
 ! A13   A(2,3,6)              106.9552         estimate D2E/DX2                !
 ! A14   A(2,3,7)              109.6301         estimate D2E/DX2                !
 ! A15   A(2,3,8)              114.3611         estimate D2E/DX2                !
 ! A16   A(6,3,7)              111.1158         estimate D2E/DX2                !
 ! A17   A(6,3,8)              108.7153         estimate D2E/DX2                !
 ! A18   A(7,3,8)              106.115          estimate D2E/DX2                !
 ! A19   A(2,4,18)             106.6406         estimate D2E/DX2                !
 ! A20   A(3,6,9)              110.7163         estimate D2E/DX2                !
 ! A21   A(3,8,20)             120.5217         estimate D2E/DX2                !
 ! A22   A(3,8,24)             118.2169         estimate D2E/DX2                !
 ! A23   A(20,8,24)            121.2519         estimate D2E/DX2                !
 ! A24   A(1,9,6)              104.9531         estimate D2E/DX2                !
 ! A25   A(1,9,12)             114.6253         estimate D2E/DX2                !
 ! A26   A(1,9,13)             108.5197         estimate D2E/DX2                !
 ! A27   A(6,9,12)             108.4041         estimate D2E/DX2                !
 ! A28   A(6,9,13)             110.6456         estimate D2E/DX2                !
 ! A29   A(12,9,13)            109.6048         estimate D2E/DX2                !
 ! A30   A(1,11,17)            109.2381         estimate D2E/DX2                !
 ! A31   A(9,12,14)            111.9522         estimate D2E/DX2                !
 ! A32   A(9,12,15)            108.6697         estimate D2E/DX2                !
 ! A33   A(9,12,16)            109.6656         estimate D2E/DX2                !
 ! A34   A(14,12,15)           107.2737         estimate D2E/DX2                !
 ! A35   A(14,12,16)           111.1552         estimate D2E/DX2                !
 ! A36   A(15,12,16)           107.9862         estimate D2E/DX2                !
 ! A37   A(12,14,19)           106.8957         estimate D2E/DX2                !
 ! A38   A(8,20,21)            123.3996         estimate D2E/DX2                !
 ! A39   A(8,20,25)            115.0131         estimate D2E/DX2                !
 ! A40   A(21,20,25)           121.5707         estimate D2E/DX2                !
 ! A41   A(20,21,22)           119.6102         estimate D2E/DX2                !
 ! A42   A(20,21,26)           121.704          estimate D2E/DX2                !
 ! A43   A(22,21,26)           118.6841         estimate D2E/DX2                !
 ! A44   A(21,22,23)           113.0788         estimate D2E/DX2                !
 ! A45   A(21,22,28)           126.4996         estimate D2E/DX2                !
 ! A46   A(23,22,28)           120.4215         estimate D2E/DX2                !
 ! A47   A(22,23,24)           128.67           estimate D2E/DX2                !
 ! A48   A(22,23,27)           116.3999         estimate D2E/DX2                !
 ! A49   A(24,23,27)           114.9298         estimate D2E/DX2                !
 ! A50   A(8,24,23)            113.9849         estimate D2E/DX2                !
 ! A51   A(8,24,29)            123.4001         estimate D2E/DX2                !
 ! A52   A(23,24,29)           122.6144         estimate D2E/DX2                !
 ! D1    D(9,1,2,3)             31.0168         estimate D2E/DX2                !
 ! D2    D(9,1,2,4)            -84.0203         estimate D2E/DX2                !
 ! D3    D(9,1,2,5)            151.0319         estimate D2E/DX2                !
 ! D4    D(10,1,2,3)           -85.9406         estimate D2E/DX2                !
 ! D5    D(10,1,2,4)           159.0223         estimate D2E/DX2                !
 ! D6    D(10,1,2,5)            34.0745         estimate D2E/DX2                !
 ! D7    D(11,1,2,3)           148.6162         estimate D2E/DX2                !
 ! D8    D(11,1,2,4)            33.5792         estimate D2E/DX2                !
 ! D9    D(11,1,2,5)           -91.3687         estimate D2E/DX2                !
 ! D10   D(2,1,9,6)            -34.876          estimate D2E/DX2                !
 ! D11   D(2,1,9,12)          -153.6852         estimate D2E/DX2                !
 ! D12   D(2,1,9,13)            83.4403         estimate D2E/DX2                !
 ! D13   D(10,1,9,6)            83.2371         estimate D2E/DX2                !
 ! D14   D(10,1,9,12)          -35.5721         estimate D2E/DX2                !
 ! D15   D(10,1,9,13)         -158.4466         estimate D2E/DX2                !
 ! D16   D(11,1,9,6)          -154.6695         estimate D2E/DX2                !
 ! D17   D(11,1,9,12)           86.5213         estimate D2E/DX2                !
 ! D18   D(11,1,9,13)          -36.3533         estimate D2E/DX2                !
 ! D19   D(2,1,11,17)           93.6383         estimate D2E/DX2                !
 ! D20   D(9,1,11,17)         -153.3377         estimate D2E/DX2                !
 ! D21   D(10,1,11,17)         -31.9971         estimate D2E/DX2                !
 ! D22   D(1,2,3,6)            -17.1502         estimate D2E/DX2                !
 ! D23   D(1,2,3,7)           -137.7213         estimate D2E/DX2                !
 ! D24   D(1,2,3,8)            103.2663         estimate D2E/DX2                !
 ! D25   D(4,2,3,6)             99.2653         estimate D2E/DX2                !
 ! D26   D(4,2,3,7)            -21.3058         estimate D2E/DX2                !
 ! D27   D(4,2,3,8)           -140.3182         estimate D2E/DX2                !
 ! D28   D(5,2,3,6)           -138.702          estimate D2E/DX2                !
 ! D29   D(5,2,3,7)            100.7269         estimate D2E/DX2                !
 ! D30   D(5,2,3,8)            -18.2855         estimate D2E/DX2                !
 ! D31   D(1,2,4,18)           -30.2549         estimate D2E/DX2                !
 ! D32   D(3,2,4,18)          -141.963          estimate D2E/DX2                !
 ! D33   D(5,2,4,18)            95.9871         estimate D2E/DX2                !
 ! D34   D(2,3,6,9)             -5.0114         estimate D2E/DX2                !
 ! D35   D(7,3,6,9)            114.6076         estimate D2E/DX2                !
 ! D36   D(8,3,6,9)           -128.9698         estimate D2E/DX2                !
 ! D37   D(2,3,8,20)           -65.7266         estimate D2E/DX2                !
 ! D38   D(2,3,8,24)           115.3785         estimate D2E/DX2                !
 ! D39   D(6,3,8,20)            53.7059         estimate D2E/DX2                !
 ! D40   D(6,3,8,24)          -125.189          estimate D2E/DX2                !
 ! D41   D(7,3,8,20)           173.2969         estimate D2E/DX2                !
 ! D42   D(7,3,8,24)            -5.598          estimate D2E/DX2                !
 ! D43   D(3,6,9,1)             25.4819         estimate D2E/DX2                !
 ! D44   D(3,6,9,12)           148.3972         estimate D2E/DX2                !
 ! D45   D(3,6,9,13)           -91.3872         estimate D2E/DX2                !
 ! D46   D(3,8,20,21)         -179.6221         estimate D2E/DX2                !
 ! D47   D(3,8,20,25)           -1.084          estimate D2E/DX2                !
 ! D48   D(24,8,20,21)          -0.7611         estimate D2E/DX2                !
 ! D49   D(24,8,20,25)         177.7769         estimate D2E/DX2                !
 ! D50   D(3,8,24,23)          179.4941         estimate D2E/DX2                !
 ! D51   D(3,8,24,29)           -0.7846         estimate D2E/DX2                !
 ! D52   D(20,8,24,23)           0.6077         estimate D2E/DX2                !
 ! D53   D(20,8,24,29)        -179.671          estimate D2E/DX2                !
 ! D54   D(1,9,12,14)           60.6447         estimate D2E/DX2                !
 ! D55   D(1,9,12,15)          -57.6573         estimate D2E/DX2                !
 ! D56   D(1,9,12,16)         -175.4894         estimate D2E/DX2                !
 ! D57   D(6,9,12,14)          -56.2054         estimate D2E/DX2                !
 ! D58   D(6,9,12,15)         -174.5075         estimate D2E/DX2                !
 ! D59   D(6,9,12,16)           67.6605         estimate D2E/DX2                !
 ! D60   D(13,9,12,14)        -177.0675         estimate D2E/DX2                !
 ! D61   D(13,9,12,15)          64.6305         estimate D2E/DX2                !
 ! D62   D(13,9,12,16)         -53.2016         estimate D2E/DX2                !
 ! D63   D(9,12,14,19)          70.1836         estimate D2E/DX2                !
 ! D64   D(15,12,14,19)       -170.6877         estimate D2E/DX2                !
 ! D65   D(16,12,14,19)        -52.8431         estimate D2E/DX2                !
 ! D66   D(8,20,21,22)           0.2735         estimate D2E/DX2                !
 ! D67   D(8,20,21,26)         179.7977         estimate D2E/DX2                !
 ! D68   D(25,20,21,22)       -178.1715         estimate D2E/DX2                !
 ! D69   D(25,20,21,26)          1.3527         estimate D2E/DX2                !
 ! D70   D(20,21,22,23)          0.2758         estimate D2E/DX2                !
 ! D71   D(20,21,22,28)       -179.843          estimate D2E/DX2                !
 ! D72   D(26,21,22,23)       -179.2627         estimate D2E/DX2                !
 ! D73   D(26,21,22,28)          0.6184         estimate D2E/DX2                !
 ! D74   D(21,22,23,24)         -0.4093         estimate D2E/DX2                !
 ! D75   D(21,22,23,27)        179.7754         estimate D2E/DX2                !
 ! D76   D(28,22,23,24)        179.7015         estimate D2E/DX2                !
 ! D77   D(28,22,23,27)         -0.1138         estimate D2E/DX2                !
 ! D78   D(22,23,24,8)          -0.0213         estimate D2E/DX2                !
 ! D79   D(22,23,24,29)       -179.745          estimate D2E/DX2                !
 ! D80   D(27,23,24,8)         179.7963         estimate D2E/DX2                !
 ! D81   D(27,23,24,29)          0.0725         estimate D2E/DX2                !
 --------------------------------------------------------------------------------
 Trust Radius=3.00D-01 FncErr=1.00D-07 GrdErr=1.00D-06 EigMax=2.50D+02 EigMin=1.00D-04
 Number of steps in this run=    173 maximum allowed number of steps=    174.
 GradGradGradGradGradGradGradGradGradGradGradGradGradGradGradGradGradGrad

                          Input orientation:                          
 ---------------------------------------------------------------------
 Center     Atomic      Atomic             Coordinates (Angstroms)
 Number     Number       Type             X           Y           Z
 ---------------------------------------------------------------------
      1          6           0       -2.246044   -0.052873    0.791976
      2          6           0       -1.255133   -1.224639    0.722016
      3          6           0       -0.392741   -0.873478   -0.501784
      4          8           0       -1.941405   -2.419697    0.444582
      5          1           0       -0.634956   -1.325815    1.627578
      6          8           0       -1.106163    0.104540   -1.244281
      7          1           0       -0.219295   -1.773617   -1.099900
      8          6           0        0.923656   -0.344567   -0.176740
      9          6           0       -2.392512    0.328976   -0.676145
     10          1           0       -1.825525    0.792735    1.354479
     11          8           0       -3.506326   -0.431462    1.314122
     12          6           0       -2.776282    1.774779   -0.917195
     13          1           0       -3.143002   -0.335203   -1.137846
     14          8           0       -1.810220    2.671580   -0.401924
     15          1           0       -3.721272    1.979098   -0.396639
     16          1           0       -2.938327    1.940678   -1.993840
     17          1           0       -3.518735   -0.268164    2.261411
     18          1           0       -2.824641   -2.327648    0.828881
     19          1           0       -1.028892    2.592010   -0.959467
     20          6           0        1.051528    0.867564    0.456396
     21          7           0        2.241911    1.415638    0.778121
     22          6           0        3.468414    0.713456    0.445263
     23          7           0        3.243667   -0.504581   -0.206948
     24          6           0        2.044471   -1.090354   -0.546617
     25          1           0        0.113497    1.379488    0.664371
     26          1           0        2.311060    2.377850    1.276027
     27          1           0        4.066663   -1.035404   -0.465916
     28          8           0        4.603608    1.088294    0.677583
     29          8           0        1.976816   -2.164053   -1.113269
 ---------------------------------------------------------------------
                    Distance matrix (angstroms):
                    1          2          3          4          5
     1  C    0.000000
     2  C    1.536175   0.000000
     3  C    2.404566   1.537765   0.000000
     4  O    2.411502   1.405739   2.384274   0.000000
     5  H    2.216803   1.102224   2.190310   2.074335   0.000000
     6  O    2.338899   2.378073   1.420138   3.149867   3.242765
     7  H    3.263107   2.166498   1.094567   2.401772   2.795074
     8  C    3.327235   2.515832   1.455439   3.591766   2.578310
     9  C    1.524021   2.379539   2.339953   3.002454   3.336836
    10  H    1.099226   2.189784   2.876604   3.340817   2.445463
    11  O    1.415725   2.459185   3.631433   2.675473   3.023721
    12  C    2.557876   3.741312   3.587074   4.488328   4.546958
    13  H    2.146732   2.795395   2.873717   2.879762   3.862535
    14  O    3.006324   4.092907   3.819248   5.162837   4.634576
    15  H    2.778131   4.194897   4.384902   4.819230   4.954316
    16  H    3.494892   4.497582   4.077464   5.094372   5.393530
    17  H    1.955846   2.899737   4.215862   3.227682   3.136328
    18  H    2.347496   1.921303   3.130402   0.967608   2.536988
    19  H    3.397708   4.176767   3.552994   5.284055   4.711405
    20  C    3.440029   3.125468   2.456674   4.445658   3.004465
    21  N    4.722124   4.382183   3.717472   5.685172   4.063681
    22  C    5.776028   5.113189   4.280628   6.251623   4.732245
    23  N    5.598108   4.649802   3.666944   5.565710   4.368481
    24  C    4.612669   3.537633   2.447253   4.317040   3.458597
    25  H    2.763218   2.942439   2.586900   4.324897   2.967594
    26  H    5.187477   5.099273   4.587187   6.464613   4.745496
    27  H    6.511369   5.456052   4.462487   6.232347   5.154830
    28  O    6.945004   6.298927   5.495722   7.429501   5.845765
    29  O    5.091128   3.833571   2.766640   4.224300   3.877659
                    6          7          8          9         10
     6  O    0.000000
     7  H    2.082031   0.000000
     8  C    2.336987   2.049572   0.000000
     9  C    1.424024   3.053414   3.420531   0.000000
    10  H    2.782921   3.897450   3.346055   2.158699   0.000000
    11  O    3.548733   4.293420   4.674929   2.404165   2.079755
    12  C    2.384530   4.377520   4.327753   1.515167   2.651198
    13  H    2.086484   3.258610   4.178698   1.103420   3.036392
    14  O    2.791945   4.772629   4.077000   2.429414   2.572012
    15  H    3.327350   5.180858   5.198378   2.136967   2.840375
    16  H    2.700012   4.689163   4.841395   2.152166   3.710437
    17  H    4.271919   4.944806   5.068062   3.202216   2.194309
    18  H    3.628596   3.288613   4.358166   3.083746   3.318324
    19  H    2.504915   4.442282   3.612283   2.657264   3.037493
    20  C    2.851340   3.318567   1.373490   3.665261   3.014894
    21  N    4.125371   4.444755   2.397473   4.977309   4.155025
    22  C    4.914478   4.708743   2.825260   5.979618   5.372034
    23  N    4.513104   3.794723   2.325719   5.716772   5.460567
    24  C    3.441076   2.428499   1.396150   4.660268   4.705004
    25  H    2.599234   3.628426   2.082352   3.029957   2.140172
    26  H    4.816358   5.411322   3.383338   5.489303   4.430585
    27  H    5.353826   4.395035   3.231002   6.605049   6.432248
    28  O    6.104328   5.883058   4.040421   7.166229   6.471421
    29  O    3.829940   2.230588   2.301469   5.049485   5.412040
                   11         12         13         14         15
    11  O    0.000000
    12  C    3.221683   0.000000
    13  H    2.480608   2.152950   0.000000
    14  O    3.930707   1.415285   3.370257   0.000000
    15  H    2.963732   1.098058   2.497954   2.032653   0.000000
    16  H    4.110022   1.101338   2.440134   2.083516   1.779194
    17  H    0.961341   3.850765   3.420617   4.319082   3.486608
    18  H    2.072601   4.458815   2.817660   5.247496   4.566608
    19  H    4.521976   1.929514   3.615226   0.963151   2.818039
    20  C    4.816347   4.166764   4.645679   3.490099   4.974213
    21  N    6.061461   5.308987   5.977764   4.403369   6.103859
    22  C    7.121289   6.479115   6.878717   5.693501   7.348621
    23  N    6.919639   6.476088   6.456377   5.972252   7.396960
    24  C    5.891336   5.620140   5.275384   5.388110   6.533592
    25  H    4.099370   3.317895   4.097919   2.550916   4.023770
    26  H    6.460315   5.572698   6.552422   4.459456   6.272627
    27  H    7.802784   7.411253   7.274685   6.948639   8.351285
    28  O    8.275619   7.581382   8.082827   6.693976   8.441037
    29  O    6.241710   6.176146   5.436712   6.183122   7.081488
                   16         17         18         19         20
    16  H    0.000000
    17  H    4.829391   0.000000
    18  H    5.118524   2.602957   0.000000
    19  H    2.267180   4.975336   5.534071   0.000000
    20  C    4.803558   5.043338   5.037143   3.050660   0.000000
    21  N    5.898669   6.182263   6.299581   3.886028   1.349409
    22  C    6.964311   7.285755   6.999858   5.072277   2.421820
    23  N    6.883990   7.202692   6.420349   5.330096   2.669884
    24  C    6.009150   6.285720   5.208756   4.814126   2.413589
    25  H    4.085909   4.296324   4.733136   2.326395   1.088679
    26  H    6.199937   6.477568   6.979762   4.024746   2.130535
    27  H    7.762828   8.097236   7.129969   6.274265   3.682796
    28  O    8.046356   8.385758   8.177434   6.055258   3.565798
    29  O    6.463966   6.721900   5.181959   5.628328   3.537048
                   21         22         23         24         25
    21  N    0.000000
    22  C    1.451952   0.000000
    23  N    2.379310   1.399823   0.000000
    24  C    2.841463   2.503032   1.377162   0.000000
    25  H    2.131758   3.427401   3.755912   3.360844   0.000000
    26  H    1.085608   2.190855   3.373037   3.927027   2.490007
    27  H    3.299235   2.060743   1.012996   2.024548   4.768309
    28  O    2.386394   1.217843   2.273562   3.576920   4.499563
    29  O    4.057317   3.596379   2.276000   1.215936   4.380485
                   26         27         28         29
    26  H    0.000000
    27  H    4.215069   0.000000
    28  O    2.697567   2.471031   0.000000
    29  O    5.142892   2.461783   4.548071   0.000000
 Stoichiometry    C9H12N2O6
 Framework group  C1[X(C9H12N2O6)]
 Deg. of freedom    81
 Full point group                 C1      NOp   1
 Largest Abelian subgroup         C1      NOp   1
 Largest concise Abelian subgroup C1      NOp   1
                         Standard orientation:                         
 ---------------------------------------------------------------------
 Center     Atomic      Atomic             Coordinates (Angstroms)
 Number     Number       Type             X           Y           Z
 ---------------------------------------------------------------------
      1          6           0       -2.254574   -0.046979    0.790997
      2          6           0       -1.271524   -1.225614    0.725684
      3          6           0       -0.410211   -0.887728   -0.502605
      4          8           0       -1.966334   -2.417862    0.457570
      5          1           0       -0.649544   -1.325203    1.630185
      6          8           0       -1.119267    0.090293   -1.249269
      7          1           0       -0.244279   -1.792689   -1.095554
      8          6           0        0.910493   -0.365425   -0.184420
      9          6           0       -2.402565    0.326671   -0.679080
     10          1           0       -1.827010    0.799347    1.347073
     11          8           0       -3.515865   -0.414057    1.318893
     12          6           0       -2.777553    1.773424   -0.928118
     13          1           0       -3.158633   -0.335447   -1.134599
     14          8           0       -1.804254    2.667078   -0.421064
     15          1           0       -3.719762    1.987157   -0.406302
     16          1           0       -2.941458    1.933672   -2.005337
     17          1           0       -3.524616   -0.244786    2.265173
     18          1           0       -2.847896   -2.317646    0.843666
     19          1           0       -1.024991    2.578929   -0.980203
     20          6           0        1.048002    0.849763    0.440787
     21          7           0        2.242811    1.392032    0.755873
     22          6           0        3.463792    0.679783    0.424101
     23          7           0        3.229319   -0.540795   -0.219883
     24          6           0        2.025402   -1.120816   -0.552653
     25          1           0        0.113903    1.369096    0.648089
     26          1           0        2.319598    2.356852    1.247572
     27          1           0        4.048123   -1.078592   -0.477749
     28          8           0        4.602038    1.048627    0.651014
     29          8           0        1.949193   -2.197557   -1.112405
 ---------------------------------------------------------------------
 Rotational constants (GHZ):           0.8102976           0.3074850           0.2584041
 Standard basis: Aug-CC-pVDZ (5D, 7F)
 There are   533 symmetry adapted cartesian basis functions of A   symmetry.
 There are   499 symmetry adapted basis functions of A   symmetry.
   499 basis functions,   863 primitive gaussians,   533 cartesian basis functions
    64 alpha electrons       64 beta electrons
       nuclear repulsion energy      1316.6359420449 Hartrees.
 NAtoms=   29 NActive=   29 NUniq=   29 SFac= 1.00D+00 NAtFMM=   60 NAOKFM=F Big=F
 Integral buffers will be    131072 words long.
 Raffenetti 2 integral format.
 Two-electron integral symmetry is turned on.
 Nuclear repulsion after empirical dispersion term =     1316.6156482486 Hartrees.
 One-electron integrals computed using PRISM.
 NBasis=   499 RedAO= T EigKep=  2.88D-06  NBF=   499
 NBsUse=   499 1.00D-06 EigRej= -1.00D+00 NBFU=   499
 ExpMin= 2.97D-02 ExpMax= 1.17D+04 ExpMxC= 4.01D+02 IAcc=3 IRadAn=         5 AccDes= 0.00D+00
 Harris functional with IExCor= 1009 and IRadAn=       5 diagonalized for initial guess.
 HarFok:  IExCor= 1009 AccDes= 0.00D+00 IRadAn=         5 IDoV= 1 UseB2=F ITyADJ=14
 ICtDFT=  3500011 ScaDFX=  1.000000  1.000000  1.000000  1.000000
 FoFCou: FMM=F IPFlag=           0 FMFlag=      100000 FMFlg1=           0
         NFxFlg=           0 DoJE=T BraDBF=F KetDBF=T FulRan=T
         wScrn=  0.000000 ICntrl=       500 IOpCl=  0 I1Cent=   200000004 NGrid=           0
         NMat0=    1 NMatS0=      1 NMatT0=    0 NMatD0=    1 NMtDS0=    0 NMtDT0=    0
 Petite list used in FoFCou.
 Requested convergence on RMS density matrix=1.00D-08 within 128 cycles.
 Requested convergence on MAX density matrix=1.00D-06.
 Requested convergence on             energy=1.00D-06.
 No special actions if energy rises.
 SCF Done:  E(RPBE1PBE) =  -910.202081847     A.U. after   14 cycles
            NFock= 14  Conv=0.81D-08     -V/T= 2.0053

 **********************************************************************

            Population analysis using the SCF Density.

 **********************************************************************

 Orbital symmetries:
       Occupied  (A) (A) (A) (A) (A) (A) (A) (A) (A) (A) (A) (A)
                 (A) (A) (A) (A) (A) (A) (A) (A) (A) (A) (A) (A)
                 (A) (A) (A) (A) (A) (A) (A) (A) (A) (A) (A) (A)
                 (A) (A) (A) (A) (A) (A) (A) (A) (A) (A) (A) (A)
                 (A) (A) (A) (A) (A) (A) (A) (A) (A) (A) (A) (A)
                 (A) (A) (A) (A)
       Virtual   (A) (A) (A) (A) (A) (A) (A) (A) (A) (A) (A) (A)
                 (A) (A) (A) (A) (A) (A) (A) (A) (A) (A) (A) (A)
                 (A) (A) (A) (A) (A) (A) (A) (A) (A) (A) (A) (A)
                 (A) (A) (A) (A) (A) (A) (A) (A) (A) (A) (A) (A)
                 (A) (A) (A) (A) (A) (A) (A) (A) (A) (A) (A) (A)
                 (A) (A) (A) (A) (A) (A) (A) (A) (A) (A) (A) (A)
                 (A) (A) (A) (A) (A) (A) (A) (A) (A) (A) (A) (A)
                 (A) (A) (A) (A) (A) (A) (A) (A) (A) (A) (A) (A)
                 (A) (A) (A) (A) (A) (A) (A) (A) (A) (A) (A) (A)
                 (A) (A) (A) (A) (A) (A) (A) (A) (A) (A) (A) (A)
                 (A) (A) (A) (A) (A) (A) (A) (A) (A) (A) (A) (A)
                 (A) (A) (A) (A) (A) (A) (A) (A) (A) (A) (A) (A)
                 (A) (A) (A) (A) (A) (A) (A) (A) (A) (A) (A) (A)
                 (A) (A) (A) (A) (A) (A) (A) (A) (A) (A) (A) (A)
                 (A) (A) (A) (A) (A) (A) (A) (A) (A) (A) (A) (A)
                 (A) (A) (A) (A) (A) (A) (A) (A) (A) (A) (A) (A)
                 (A) (A) (A) (A) (A) (A) (A) (A) (A) (A) (A) (A)
                 (A) (A) (A) (A) (A) (A) (A) (A) (A) (A) (A) (A)
                 (A) (A) (A) (A) (A) (A) (A) (A) (A) (A) (A) (A)
                 (A) (A) (A) (A) (A) (A) (A) (A) (A) (A) (A) (A)
                 (A) (A) (A) (A) (A) (A) (A) (A) (A) (A) (A) (A)
                 (A) (A) (A) (A) (A) (A) (A) (A) (A) (A) (A) (A)
                 (A) (A) (A) (A) (A) (A) (A) (A) (A) (A) (A) (A)
                 (A) (A) (A) (A) (A) (A) (A) (A) (A) (A) (A) (A)
                 (A) (A) (A) (A) (A) (A) (A) (A) (A) (A) (A) (A)
                 (A) (A) (A) (A) (A) (A) (A) (A) (A) (A) (A) (A)
                 (A) (A) (A) (A) (A) (A) (A) (A) (A) (A) (A) (A)
                 (A) (A) (A) (A) (A) (A) (A) (A) (A) (A) (A) (A)
                 (A) (A) (A) (A) (A) (A) (A) (A) (A) (A) (A) (A)
                 (A) (A) (A) (A) (A) (A) (A) (A) (A) (A) (A) (A)
                 (A) (A) (A) (A) (A) (A) (A) (A) (A) (A) (A) (A)
                 (A) (A) (A) (A) (A) (A) (A) (A) (A) (A) (A) (A)
                 (A) (A) (A) (A) (A) (A) (A) (A) (A) (A) (A) (A)
                 (A) (A) (A) (A) (A) (A) (A) (A) (A) (A) (A) (A)
                 (A) (A) (A) (A) (A) (A) (A) (A) (A) (A) (A) (A)
                 (A) (A) (A) (A) (A) (A) (A) (A) (A) (A) (A) (A)
                 (A) (A) (A)
 The electronic state is 1-A.
 Alpha  occ. eigenvalues --  -19.26816 -19.24658 -19.24381 -19.23042 -19.22758
 Alpha  occ. eigenvalues --  -19.20206 -14.49534 -14.46308 -10.40914 -10.34613
 Alpha  occ. eigenvalues --  -10.32142 -10.30777 -10.29576 -10.29495 -10.29310
 Alpha  occ. eigenvalues --  -10.28653 -10.24879  -1.12249  -1.11331  -1.09275
 Alpha  occ. eigenvalues --   -1.08765  -1.07342  -1.05985  -1.02229  -0.96853
 Alpha  occ. eigenvalues --   -0.85985  -0.81618  -0.78293  -0.73260  -0.70767
 Alpha  occ. eigenvalues --   -0.69469  -0.65196  -0.62933  -0.60892  -0.59285
 Alpha  occ. eigenvalues --   -0.57396  -0.54995  -0.54799  -0.54358  -0.51581
 Alpha  occ. eigenvalues --   -0.50669  -0.49974  -0.49865  -0.48805  -0.47263
 Alpha  occ. eigenvalues --   -0.46628  -0.44834  -0.43849  -0.43239  -0.42909
 Alpha  occ. eigenvalues --   -0.40791  -0.39903  -0.39570  -0.37727  -0.37435
 Alpha  occ. eigenvalues --   -0.35747  -0.32818  -0.32633  -0.31324  -0.31013
 Alpha  occ. eigenvalues --   -0.29935  -0.29633  -0.28176  -0.25630
 Alpha virt. eigenvalues --   -0.05700  -0.02781  -0.01833  -0.00788   0.00111
 Alpha virt. eigenvalues --    0.00867   0.01267   0.02137   0.02191   0.03508
 Alpha virt. eigenvalues --    0.03695   0.04271   0.05079   0.05341   0.05623
 Alpha virt. eigenvalues --    0.05971   0.06387   0.06754   0.07656   0.07969
 Alpha virt. eigenvalues --    0.08473   0.08722   0.08890   0.09634   0.09820
 Alpha virt. eigenvalues --    0.09981   0.10365   0.10451   0.10656   0.10962
 Alpha virt. eigenvalues --    0.11499   0.11658   0.11877   0.12512   0.12772
 Alpha virt. eigenvalues --    0.13050   0.13377   0.13493   0.13955   0.14675
 Alpha virt. eigenvalues --    0.14827   0.15241   0.15538   0.16126   0.16618
 Alpha virt. eigenvalues --    0.16805   0.17096   0.17669   0.17887   0.18357
 Alpha virt. eigenvalues --    0.18525   0.18778   0.19067   0.19295   0.19743
 Alpha virt. eigenvalues --    0.20675   0.20839   0.21235   0.21534   0.21819
 Alpha virt. eigenvalues --    0.22391   0.22823   0.23019   0.23248   0.23897
 Alpha virt. eigenvalues --    0.24163   0.24562   0.24697   0.25040   0.25477
 Alpha virt. eigenvalues --    0.25699   0.26281   0.26446   0.27435   0.27581
 Alpha virt. eigenvalues --    0.27711   0.28131   0.28298   0.28884   0.29022
 Alpha virt. eigenvalues --    0.29239   0.29530   0.29974   0.30509   0.30893
 Alpha virt. eigenvalues --    0.30991   0.31316   0.31821   0.32468   0.32824
 Alpha virt. eigenvalues --    0.33179   0.33240   0.33498   0.34180   0.34359
 Alpha virt. eigenvalues --    0.34623   0.35211   0.36221   0.36641   0.36899
 Alpha virt. eigenvalues --    0.37473   0.37892   0.37991   0.38223   0.38598
 Alpha virt. eigenvalues --    0.39105   0.39589   0.40422   0.40801   0.41013
 Alpha virt. eigenvalues --    0.41463   0.41976   0.42578   0.42927   0.43506
 Alpha virt. eigenvalues --    0.43626   0.44900   0.44941   0.45760   0.46214
 Alpha virt. eigenvalues --    0.46697   0.47042   0.47221   0.47763   0.49149
 Alpha virt. eigenvalues --    0.49680   0.50341   0.50755   0.51614   0.51776
 Alpha virt. eigenvalues --    0.52514   0.52948   0.53229   0.53827   0.53954
 Alpha virt. eigenvalues --    0.54780   0.55152   0.56288   0.56607   0.57005
 Alpha virt. eigenvalues --    0.57226   0.58200   0.58419   0.58562   0.59140
 Alpha virt. eigenvalues --    0.59707   0.60008   0.61111   0.61543   0.62161
 Alpha virt. eigenvalues --    0.62635   0.63156   0.63679   0.64279   0.64669
 Alpha virt. eigenvalues --    0.65088   0.65934   0.66342   0.66837   0.67421
 Alpha virt. eigenvalues --    0.67648   0.68147   0.68900   0.69055   0.69442
 Alpha virt. eigenvalues --    0.69809   0.70215   0.71543   0.71800   0.72437
 Alpha virt. eigenvalues --    0.72946   0.73548   0.73760   0.73948   0.74876
 Alpha virt. eigenvalues --    0.75175   0.76305   0.76854   0.77458   0.78408
 Alpha virt. eigenvalues --    0.78960   0.79304   0.80056   0.80538   0.80608
 Alpha virt. eigenvalues --    0.81037   0.81460   0.82032   0.82720   0.84052
 Alpha virt. eigenvalues --    0.84270   0.84723   0.85834   0.86512   0.87883
 Alpha virt. eigenvalues --    0.88197   0.88646   0.89519   0.90375   0.91367
 Alpha virt. eigenvalues --    0.92091   0.92584   0.93593   0.94347   0.95092
 Alpha virt. eigenvalues --    0.96154   0.96983   0.97363   0.97637   0.98741
 Alpha virt. eigenvalues --    0.99696   1.00642   1.02404   1.03485   1.04451
 Alpha virt. eigenvalues --    1.04668   1.06135   1.06260   1.08297   1.08901
 Alpha virt. eigenvalues --    1.09275   1.09608   1.10104   1.11558   1.11887
 Alpha virt. eigenvalues --    1.12759   1.14057   1.14717   1.15570   1.16514
 Alpha virt. eigenvalues --    1.17115   1.18555   1.18776   1.19555   1.19992
 Alpha virt. eigenvalues --    1.20382   1.21431   1.22334   1.23966   1.24687
 Alpha virt. eigenvalues --    1.26958   1.27109   1.27776   1.29038   1.29804
 Alpha virt. eigenvalues --    1.30827   1.32079   1.32791   1.33435   1.34494
 Alpha virt. eigenvalues --    1.35321   1.36255   1.36946   1.38358   1.38537
 Alpha virt. eigenvalues --    1.40459   1.41642   1.43012   1.43779   1.45042
 Alpha virt. eigenvalues --    1.45271   1.46905   1.46947   1.49378   1.49927
 Alpha virt. eigenvalues --    1.50833   1.51600   1.52839   1.53796   1.54878
 Alpha virt. eigenvalues --    1.55363   1.56169   1.57097   1.57568   1.57672
 Alpha virt. eigenvalues --    1.58322   1.59800   1.60844   1.62234   1.62386
 Alpha virt. eigenvalues --    1.63490   1.64899   1.66507   1.67856   1.69453
 Alpha virt. eigenvalues --    1.69634   1.70821   1.71257   1.72069   1.74178
 Alpha virt. eigenvalues --    1.75021   1.76029   1.76701   1.77476   1.77764
 Alpha virt. eigenvalues --    1.78577   1.80762   1.81214   1.81934   1.82713
 Alpha virt. eigenvalues --    1.83149   1.84935   1.86031   1.87310   1.88245
 Alpha virt. eigenvalues --    1.89430   1.90075   1.92113   1.92845   1.93273
 Alpha virt. eigenvalues --    1.93809   1.95400   1.96161   1.97127   1.97888
 Alpha virt. eigenvalues --    1.99067   1.99236   2.00628   2.01790   2.03749
 Alpha virt. eigenvalues --    2.03891   2.05132   2.05972   2.06328   2.07737
 Alpha virt. eigenvalues --    2.08962   2.10085   2.10771   2.11764   2.12660
 Alpha virt. eigenvalues --    2.13843   2.14488   2.15538   2.17507   2.18869
 Alpha virt. eigenvalues --    2.19749   2.20575   2.22089   2.23330   2.24040
 Alpha virt. eigenvalues --    2.25102   2.25939   2.27063   2.27769   2.30555
 Alpha virt. eigenvalues --    2.31665   2.32884   2.33884   2.34789   2.36141
 Alpha virt. eigenvalues --    2.36470   2.37589   2.38672   2.41768   2.42358
 Alpha virt. eigenvalues --    2.42954   2.43515   2.46406   2.47029   2.47746
 Alpha virt. eigenvalues --    2.49379   2.51078   2.52061   2.54386   2.54865
 Alpha virt. eigenvalues --    2.55256   2.56464   2.58019   2.59036   2.59419
 Alpha virt. eigenvalues --    2.62663   2.66424   2.66668   2.67196   2.70558
 Alpha virt. eigenvalues --    2.72152   2.73745   2.74614   2.76953   2.79820
 Alpha virt. eigenvalues --    2.81549   2.82775   2.84516   2.85799   2.90399
 Alpha virt. eigenvalues --    2.93546   2.93763   2.94801   2.96879   3.01104
 Alpha virt. eigenvalues --    3.01964   3.08187   3.13841   3.19964   3.22170
 Alpha virt. eigenvalues --    3.25018   3.28169   3.30413   3.35333   3.38674
 Alpha virt. eigenvalues --    3.38809   3.41640   3.43883   3.44813   3.45191
 Alpha virt. eigenvalues --    3.46297   3.46761   3.47313   3.47947   3.49852
 Alpha virt. eigenvalues --    3.50561   3.52700   3.54331   3.58830   3.60821
 Alpha virt. eigenvalues --    3.61029   3.64887   3.65526   3.67478   3.68063
 Alpha virt. eigenvalues --    3.69793   3.70349   3.72741   3.75128   3.78168
 Alpha virt. eigenvalues --    3.80761   3.84337   3.90969   3.96625   4.02844
 Alpha virt. eigenvalues --    4.04477   4.12116   4.24223   4.48837   4.84112
          Condensed to atoms (all electrons):
               1          2          3          4          5          6
     1  C   12.687672  -4.049277   1.245449   0.227025   0.432866  -0.250579
     2  C   -4.049277  10.770301  -2.308225  -0.642746  -1.126955   0.139461
     3  C    1.245449  -2.308225  15.237650   0.134088   0.173343  -0.250573
     4  O    0.227025  -0.642746   0.134088   8.799616  -0.100566   0.022205
     5  H    0.432866  -1.126955   0.173343  -0.100566   2.178541   0.005571
     6  O   -0.250579   0.139461  -0.250573   0.022205   0.005571   9.409193
     7  H    0.044145   0.213193  -1.187497  -0.031822   0.062033  -0.157050
     8  C   -0.175936   0.847091  -3.669526   0.070555  -0.321957  -0.004594
     9  C   -2.568107   0.634454  -2.496110  -0.054027   0.214757  -0.084590
    10  H   -1.101400   0.590735   0.006145  -0.016602  -0.137367   0.032196
    11  O   -0.888350   0.422162   0.069343  -0.046150  -0.058399   0.022493
    12  C   -0.166546  -0.268126   0.459145   0.033886   0.007148  -0.070151
    13  H    0.628081  -0.254231   0.246790   0.032961   0.009883  -0.038509
    14  O   -0.073084  -0.002921  -0.029171   0.000490  -0.002919  -0.030938
    15  H   -0.001544   0.099690   0.032608  -0.001092   0.002921   0.095746
    16  H   -0.073846  -0.009415   0.007010   0.000643  -0.000016  -0.059012
    17  H    0.374515  -0.243582   0.003542   0.010647   0.020835  -0.002956
    18  H   -0.237102   0.206664  -0.087074   0.268341  -0.011227   0.009269
    19  H    0.091998  -0.014908   0.011851   0.000062   0.000662   0.031798
    20  C   -0.789165   0.195781  -2.326326  -0.017794   0.021924   0.060738
    21  N    0.045462  -0.045349   0.470373  -0.000415  -0.004175   0.002601
    22  C   -0.056336  -0.009991  -0.443549   0.003251   0.000693   0.000552
    23  N   -0.038902  -0.004770  -0.135167  -0.000234  -0.002221  -0.008983
    24  C    0.415719  -0.526381  -0.132614   0.000944   0.098755  -0.088293
    25  H   -0.229320   0.141738   0.208763  -0.002626  -0.012529   0.036666
    26  H    0.005636  -0.006152  -0.020302   0.000118   0.000275  -0.000054
    27  H    0.001620   0.002139  -0.002944  -0.000027   0.001696   0.000583
    28  O    0.001818  -0.001197   0.021863  -0.000043  -0.000458  -0.000132
    29  O   -0.013721   0.012175   0.069566  -0.001216  -0.011509   0.008492
               7          8          9         10         11         12
     1  C    0.044145  -0.175936  -2.568107  -1.101400  -0.888350  -0.166546
     2  C    0.213193   0.847091   0.634454   0.590735   0.422162  -0.268126
     3  C   -1.187497  -3.669526  -2.496110   0.006145   0.069343   0.459145
     4  O   -0.031822   0.070555  -0.054027  -0.016602  -0.046150   0.033886
     5  H    0.062033  -0.321957   0.214757  -0.137367  -0.058399   0.007148
     6  O   -0.157050  -0.004594  -0.084590   0.032196   0.022493  -0.070151
     7  H    2.302928   0.620745   0.084107  -0.009684  -0.005502  -0.017457
     8  C    0.620745  15.409228   0.270405  -0.099431  -0.007311  -0.152271
     9  C    0.084107   0.270405  11.307128  -0.659119   0.119252  -0.391648
    10  H   -0.009684  -0.099431  -0.659119   2.868707  -0.062092   0.029395
    11  O   -0.005502  -0.007311   0.119252  -0.062092   8.684932   0.006429
    12  C   -0.017457  -0.152271  -0.391648   0.029395   0.006429   5.158259
    13  H    0.016442  -0.075542  -1.433290   0.158698  -0.051856   0.010294
    14  O    0.001828   0.001851   0.048840   0.047064   0.012767   0.109265
    15  H   -0.000909  -0.017910  -0.265022  -0.045922   0.031094   0.116249
    16  H    0.000342   0.010652   0.312277   0.021230   0.006142   0.085049
    17  H    0.001182   0.010669  -0.011750  -0.137075   0.287818  -0.001467
    18  H   -0.013070   0.003259   0.034550   0.026910   0.049614  -0.004930
    19  H   -0.001640  -0.009213  -0.110650   0.005138  -0.004656  -0.002246
    20  C    0.101438  -3.164922   0.058554   0.132788   0.025669  -0.053903
    21  N   -0.029095   0.060260   0.022560  -0.007938   0.000673  -0.003203
    22  C    0.013657   0.038519  -0.006881   0.006141   0.001557  -0.013347
    23  N    0.005643   0.083481   0.007659  -0.007134   0.000426  -0.000047
    24  C   -0.315968  -4.548219  -0.101028   0.018006  -0.005734  -0.005764
    25  H    0.004468  -0.361101   0.020673  -0.084312   0.027734   0.098992
    26  H   -0.001209   0.018878  -0.005853   0.001031  -0.000041  -0.001863
    27  H   -0.001006   0.173647   0.000223   0.001059  -0.000005  -0.000348
    28  O    0.000834   0.024175   0.000839   0.000201  -0.000013   0.000227
    29  O   -0.074576  -0.134171  -0.004193  -0.000546   0.000525   0.000995
              13         14         15         16         17         18
     1  C    0.628081  -0.073084  -0.001544  -0.073846   0.374515  -0.237102
     2  C   -0.254231  -0.002921   0.099690  -0.009415  -0.243582   0.206664
     3  C    0.246790  -0.029171   0.032608   0.007010   0.003542  -0.087074
     4  O    0.032961   0.000490  -0.001092   0.000643   0.010647   0.268341
     5  H    0.009883  -0.002919   0.002921  -0.000016   0.020835  -0.011227
     6  O   -0.038509  -0.030938   0.095746  -0.059012  -0.002956   0.009269
     7  H    0.016442   0.001828  -0.000909   0.000342   0.001182  -0.013070
     8  C   -0.075542   0.001851  -0.017910   0.010652   0.010669   0.003259
     9  C   -1.433290   0.048840  -0.265022   0.312277  -0.011750   0.034550
    10  H    0.158698   0.047064  -0.045922   0.021230  -0.137075   0.026910
    11  O   -0.051856   0.012767   0.031094   0.006142   0.287818   0.049614
    12  C    0.010294   0.109265   0.116249   0.085049  -0.001467  -0.004930
    13  H    2.378396   0.019201  -0.047378  -0.058253  -0.009267   0.003804
    14  O    0.019201   8.323660  -0.149448  -0.047810  -0.002779  -0.000071
    15  H   -0.047378  -0.149448   1.722790  -0.335650  -0.000668   0.000841
    16  H   -0.058253  -0.047810  -0.335650   1.404301  -0.001653  -0.000278
    17  H   -0.009267  -0.002779  -0.000668  -0.001653   0.589118  -0.010803
    18  H    0.003804  -0.000071   0.000841  -0.000278  -0.010803   0.604025
    19  H    0.010694   0.286183   0.030479  -0.059090   0.000846  -0.000202
    20  C    0.017157   0.035722  -0.004872   0.002121  -0.017741   0.005817
    21  N   -0.001190  -0.006464  -0.000137   0.000471   0.000739  -0.000486
    22  C   -0.000376   0.001505  -0.001030   0.000564  -0.000722   0.000098
    23  N   -0.000080  -0.000159   0.000071  -0.000171  -0.000078   0.000125
    24  C    0.014788   0.001230  -0.002969   0.004555   0.002405  -0.009281
    25  H   -0.029066   0.007741   0.012606   0.001516  -0.010876   0.004847
    26  H    0.000269   0.002253  -0.000349   0.000131  -0.000012  -0.000024
    27  H    0.000078  -0.000007  -0.000014   0.000016  -0.000028  -0.000003
    28  O    0.000047  -0.000018   0.000038  -0.000020   0.000012  -0.000012
    29  O   -0.001180   0.000025  -0.000053   0.000085  -0.000029   0.000374
              19         20         21         22         23         24
     1  C    0.091998  -0.789165   0.045462  -0.056336  -0.038902   0.415719
     2  C   -0.014908   0.195781  -0.045349  -0.009991  -0.004770  -0.526381
     3  C    0.011851  -2.326326   0.470373  -0.443549  -0.135167  -0.132614
     4  O    0.000062  -0.017794  -0.000415   0.003251  -0.000234   0.000944
     5  H    0.000662   0.021924  -0.004175   0.000693  -0.002221   0.098755
     6  O    0.031798   0.060738   0.002601   0.000552  -0.008983  -0.088293
     7  H   -0.001640   0.101438  -0.029095   0.013657   0.005643  -0.315968
     8  C   -0.009213  -3.164922   0.060260   0.038519   0.083481  -4.548219
     9  C   -0.110650   0.058554   0.022560  -0.006881   0.007659  -0.101028
    10  H    0.005138   0.132788  -0.007938   0.006141  -0.007134   0.018006
    11  O   -0.004656   0.025669   0.000673   0.001557   0.000426  -0.005734
    12  C   -0.002246  -0.053903  -0.003203  -0.013347  -0.000047  -0.005764
    13  H    0.010694   0.017157  -0.001190  -0.000376  -0.000080   0.014788
    14  O    0.286183   0.035722  -0.006464   0.001505  -0.000159   0.001230
    15  H    0.030479  -0.004872  -0.000137  -0.001030   0.000071  -0.002969
    16  H   -0.059090   0.002121   0.000471   0.000564  -0.000171   0.004555
    17  H    0.000846  -0.017741   0.000739  -0.000722  -0.000078   0.002405
    18  H   -0.000202   0.005817  -0.000486   0.000098   0.000125  -0.009281
    19  H    0.543006   0.000884  -0.003288  -0.000167  -0.000997   0.001795
    20  C    0.000884  14.791456  -1.115550  -0.242470   0.474556  -2.334319
    21  N   -0.003288  -1.115550   8.047981  -0.022793  -0.063032   0.004719
    22  C   -0.000167  -0.242470  -0.022793   6.492206  -0.126650  -0.102013
    23  N   -0.000997   0.474556  -0.063032  -0.126650   7.301630  -0.321654
    24  C    0.001795  -2.334319   0.004719  -0.102013  -0.321654  13.484593
    25  H   -0.010401  -0.708419   0.063292  -0.124502  -0.006191  -0.001250
    26  H   -0.001083  -0.167083   0.426579  -0.101049   0.009421  -0.042944
    27  H    0.000247  -0.087631   0.031212  -0.193815   0.400665  -0.277854
    28  O    0.000025   0.164283  -0.123073   0.025811  -0.097042  -0.016530
    29  O    0.000003  -0.059618   0.018050  -0.004201  -0.109867   0.272486
              25         26         27         28         29
     1  C   -0.229320   0.005636   0.001620   0.001818  -0.013721
     2  C    0.141738  -0.006152   0.002139  -0.001197   0.012175
     3  C    0.208763  -0.020302  -0.002944   0.021863   0.069566
     4  O   -0.002626   0.000118  -0.000027  -0.000043  -0.001216
     5  H   -0.012529   0.000275   0.001696  -0.000458  -0.011509
     6  O    0.036666  -0.000054   0.000583  -0.000132   0.008492
     7  H    0.004468  -0.001209  -0.001006   0.000834  -0.074576
     8  C   -0.361101   0.018878   0.173647   0.024175  -0.134171
     9  C    0.020673  -0.005853   0.000223   0.000839  -0.004193
    10  H   -0.084312   0.001031   0.001059   0.000201  -0.000546
    11  O    0.027734  -0.000041  -0.000005  -0.000013   0.000525
    12  C    0.098992  -0.001863  -0.000348   0.000227   0.000995
    13  H   -0.029066   0.000269   0.000078   0.000047  -0.001180
    14  O    0.007741   0.002253  -0.000007  -0.000018   0.000025
    15  H    0.012606  -0.000349  -0.000014   0.000038  -0.000053
    16  H    0.001516   0.000131   0.000016  -0.000020   0.000085
    17  H   -0.010876  -0.000012  -0.000028   0.000012  -0.000029
    18  H    0.004847  -0.000024  -0.000003  -0.000012   0.000374
    19  H   -0.010401  -0.001083   0.000247   0.000025   0.000003
    20  C   -0.708419  -0.167083  -0.087631   0.164283  -0.059618
    21  N    0.063292   0.426579   0.031212  -0.123073   0.018050
    22  C   -0.124502  -0.101049  -0.193815   0.025811  -0.004201
    23  N   -0.006191   0.009421   0.400665  -0.097042  -0.109867
    24  C   -0.001250  -0.042944  -0.277854  -0.016530   0.272486
    25  H    2.662369   0.003747  -0.008149   0.000840  -0.004976
    26  H    0.003747   0.837965  -0.003479   0.006667   0.002168
    27  H   -0.008149  -0.003479   1.036103  -0.003650  -0.027843
    28  O    0.000840   0.006667  -0.003650   8.563304   0.000804
    29  O   -0.004976   0.002168  -0.027843   0.000804   8.788743
 Mulliken charges:
               1
     1  C    0.511209
     2  C    1.238643
     3  C    0.691549
     4  O   -0.689475
     5  H   -0.441604
     6  O   -0.831147
     7  H   -0.626499
     8  C    1.098691
     9  C    1.055994
    10  H   -0.576824
    11  O   -0.638522
    12  C    1.037985
    13  H   -0.547365
    14  O   -0.553837
    15  H   -0.270168
    16  H   -0.211892
    17  H    0.149161
    18  H    0.156024
    19  H    0.202873
    20  C    1.000923
    21  N   -0.768782
    22  C    0.865340
    23  N   -0.360298
    24  C    0.512816
    25  H   -0.702275
    26  H    0.036358
    27  H   -0.042484
    28  O   -0.569600
    29  O   -0.726794
 Sum of Mulliken charges =  -0.00000
 Mulliken charges with hydrogens summed into heavy atoms:
               1
     1  C   -0.065615
     2  C    0.797039
     3  C    0.065050
     4  O   -0.533451
     6  O   -0.831147
     8  C    1.098691
     9  C    0.508629
    11  O   -0.489362
    12  C    0.555925
    14  O   -0.350964
    20  C    0.298648
    21  N   -0.732424
    22  C    0.865340
    23  N   -0.402782
    24  C    0.512816
    28  O   -0.569600
    29  O   -0.726794
 Electronic spatial extent (au):  <R**2>=           4239.2889
 Charge=              0.0000 electrons
 Dipole moment (field-independent basis, Debye):
    X=             -2.8761    Y=              3.6667    Z=              3.1549  Tot=              5.6276
 Quadrupole moment (field-independent basis, Debye-Ang):
   XX=           -107.3586   YY=           -109.1832   ZZ=            -92.7016
   XY=              0.0223   XZ=             -4.6315   YZ=             -3.6003
 Traceless Quadrupole moment (field-independent basis, Debye-Ang):
   XX=             -4.2775   YY=             -6.1021   ZZ=             10.3795
   XY=              0.0223   XZ=             -4.6315   YZ=             -3.6003
 Octapole moment (field-independent basis, Debye-Ang**2):
  XXX=           -108.1884  YYY=             30.6050  ZZZ=             22.1019  XYY=              6.3432
  XXY=            -31.5491  XXZ=             -7.5664  XZZ=            -29.0554  YZZ=             10.7844
  YYZ=             12.0056  XYZ=              0.6975
 Hexadecapole moment (field-independent basis, Debye-Ang**3):
 XXXX=          -4047.9403 YYYY=          -1325.5372 ZZZZ=           -436.8659 XXXY=           -210.6481
 XXXZ=           -169.5215 YYYX=            105.6016 YYYZ=            -11.4873 ZZZX=            -61.2198
 ZZZY=            -12.2165 XXYY=           -832.7971 XXZZ=           -616.0585 YYZZ=           -265.5971
 XXYZ=            -35.5920 YYXZ=             29.1658 ZZXY=             15.9476
 N-N= 1.316615648249D+03 E-N=-4.765349779089D+03  KE= 9.054336077412D+02
 Calling FoFJK, ICntrl=      2127 FMM=F ISym2X=0 I1Cent= 0 IOpClX= 0 NMat=1 NMatS=1 NMatT=0.
 ***** Axes restored to original set *****
 -------------------------------------------------------------------
 Center     Atomic                   Forces (Hartrees/Bohr)
 Number     Number              X              Y              Z
 -------------------------------------------------------------------
      1        6           0.000809071   -0.000455100   -0.001560279
      2        6          -0.000006227   -0.003599390   -0.004843576
      3        6          -0.013541334   -0.009675274    0.001345725
      4        8          -0.003758401   -0.001404805    0.002205097
      5        1          -0.001050877   -0.000353892    0.000550769
      6        8          -0.014994515    0.009161986   -0.004692916
      7        1          -0.006269356   -0.002702722   -0.001007275
      8        6          -0.009108604    0.047722161    0.026444980
      9        6           0.003089681   -0.001504582   -0.003144348
     10        1          -0.000093584    0.000229807    0.000223709
     11        8          -0.001113511    0.000582290    0.001294722
     12        6          -0.001085926   -0.001657017   -0.000049675
     13        1          -0.001104637   -0.000089383    0.000351493
     14        8           0.001086933    0.001881466    0.000611855
     15        1           0.000028997    0.000382480    0.000087932
     16        1           0.000178569    0.000138200    0.000017679
     17        1           0.000082337   -0.000285495   -0.000200435
     18        1           0.000112158   -0.000720598    0.000199496
     19        1          -0.000556736   -0.001288880   -0.000451643
     20        6          -0.014583376   -0.025977070   -0.014193493
     21        7           0.043246906    0.028063906    0.015421945
     22        6          -0.007332737   -0.001389940   -0.001285618
     23        7           0.010355497    0.015078180    0.007995465
     24        6           0.011696764   -0.011573257   -0.003613543
     25        1           0.006006186    0.010700284    0.005277386
     26        1           0.000831740   -0.048867516   -0.025334965
     27        1           0.003478283    0.003808492    0.002024274
     28        8          -0.019199600    0.007756715    0.003603065
     29        8           0.012796300   -0.013961047   -0.007277829
 -------------------------------------------------------------------
 Cartesian Forces:  Max     0.048867516 RMS     0.012051178

 GradGradGradGradGradGradGradGradGradGradGradGradGradGradGradGradGradGrad
 Berny optimization.
 FormGI is forming the generalized inverse of G from B-inverse, IUseBI=4.
 Internal  Forces:  Max     0.054880256 RMS     0.009043861
 Search for a local minimum.
 Step number   1 out of a maximum of  173
 All quantities printed in internal units (Hartrees-Bohrs-Radians)
 Mixed Optimization -- RFO/linear search
 Second derivative matrix not updated -- first step.
 ITU=  0
     Eigenvalues ---    0.00456   0.00565   0.00934   0.01287   0.01355
     Eigenvalues ---    0.01484   0.01490   0.01552   0.01616   0.01732
     Eigenvalues ---    0.01838   0.01919   0.02022   0.02069   0.02315
     Eigenvalues ---    0.02400   0.03100   0.03833   0.04403   0.04922
     Eigenvalues ---    0.05006   0.05166   0.05498   0.05673   0.06050
     Eigenvalues ---    0.06117   0.06202   0.06838   0.07987   0.08372
     Eigenvalues ---    0.09916   0.11571   0.12986   0.13943   0.15820
     Eigenvalues ---    0.15995   0.16000   0.16000   0.16000   0.16000
     Eigenvalues ---    0.16000   0.16970   0.18880   0.19596   0.22061
     Eigenvalues ---    0.22361   0.23426   0.24594   0.24995   0.25000
     Eigenvalues ---    0.25000   0.26528   0.27877   0.29025   0.30837
     Eigenvalues ---    0.33307   0.33437   0.33535   0.33768   0.33898
     Eigenvalues ---    0.34290   0.34966   0.35325   0.36952   0.37541
     Eigenvalues ---    0.39562   0.40612   0.43111   0.43143   0.43178
     Eigenvalues ---    0.44683   0.44960   0.45475   0.47775   0.49643
     Eigenvalues ---    0.53869   0.53939   0.54801   0.55186   0.96345
     Eigenvalues ---    0.97207
 RFO step:  Lambda=-3.51916588D-02 EMin= 4.55813477D-03
 Linear search not attempted -- first point.
 Maximum step size (   0.300) exceeded in Quadratic search.
    -- Step size scaled by   0.962
 Iteration  1 RMS(Cart)=  0.06611262 RMS(Int)=  0.00122429
 Iteration  2 RMS(Cart)=  0.00156078 RMS(Int)=  0.00018912
 Iteration  3 RMS(Cart)=  0.00000122 RMS(Int)=  0.00018912
 Iteration  4 RMS(Cart)=  0.00000000 RMS(Int)=  0.00018912
 Variable       Old X    -DE/DX   Delta X   Delta X   Delta X     New X
                                 (Linear)    (Quad)   (Total)
    R1        2.90295   0.00140   0.00000   0.00144   0.00138   2.90433
    R2        2.87998   0.00047   0.00000  -0.00083  -0.00093   2.87905
    R3        2.07724   0.00026   0.00000   0.00066   0.00066   2.07790
    R4        2.67533   0.00124   0.00000   0.00256   0.00256   2.67789
    R5        2.90595   0.00265   0.00000   0.00911   0.00923   2.91519
    R6        2.65646   0.00311   0.00000   0.00621   0.00621   2.66267
    R7        2.08290  -0.00011   0.00000  -0.00028  -0.00028   2.08263
    R8        2.68367   0.01427   0.00000   0.03212   0.03223   2.71590
    R9        2.06843   0.00178   0.00000   0.00453   0.00453   2.07296
   R10        2.75038   0.04069   0.00000   0.09529   0.09529   2.84567
   R11        1.82851  -0.00009   0.00000  -0.00015  -0.00015   1.82836
   R12        2.69101  -0.00368   0.00000  -0.00720  -0.00726   2.68375
   R13        2.59552  -0.01455   0.00000  -0.02416  -0.02375   2.57177
   R14        2.63834   0.04985   0.00000   0.10091   0.10091   2.73925
   R15        2.86325  -0.00046   0.00000  -0.00130  -0.00130   2.86195
   R16        2.08516   0.00066   0.00000   0.00172   0.00172   2.08688
   R17        1.81667  -0.00025   0.00000  -0.00040  -0.00040   1.81627
   R18        2.67450   0.00080   0.00000   0.00164   0.00164   2.67614
   R19        2.07503   0.00009   0.00000   0.00023   0.00023   2.07525
   R20        2.08123  -0.00002   0.00000  -0.00006  -0.00006   2.08117
   R21        1.82009  -0.00008   0.00000  -0.00014  -0.00014   1.81995
   R22        2.55001   0.01237   0.00000   0.01823   0.01864   2.56865
   R23        2.05731   0.00086   0.00000   0.00216   0.00216   2.05946
   R24        2.74379  -0.04037   0.00000  -0.09908  -0.09904   2.64475
   R25        2.05150  -0.05488   0.00000  -0.13586  -0.13586   1.91564
   R26        2.64528  -0.01796   0.00000  -0.03683  -0.03724   2.60804
   R27        2.30139  -0.01482   0.00000  -0.01427  -0.01427   2.28712
   R28        2.60246   0.01753   0.00000   0.03389   0.03347   2.63593
   R29        1.91428   0.00031   0.00000   0.00061   0.00061   1.91490
   R30        2.29779   0.01501   0.00000   0.01433   0.01433   2.31211
    A1        1.78159   0.00175   0.00000   0.00123   0.00110   1.78270
    A2        1.94263  -0.00010   0.00000   0.00158   0.00156   1.94419
    A3        1.96822  -0.00067   0.00000  -0.00045  -0.00036   1.96786
    A4        1.91450   0.00010   0.00000   0.00388   0.00394   1.91845
    A5        1.91425  -0.00095   0.00000  -0.00170  -0.00170   1.91255
    A6        1.93643  -0.00002   0.00000  -0.00395  -0.00398   1.93245
    A7        1.79651   0.00024   0.00000   0.00023   0.00031   1.79683
    A8        1.92042  -0.00217   0.00000  -0.00906  -0.00917   1.91125
    A9        1.97746   0.00041   0.00000  -0.00260  -0.00265   1.97481
   A10        1.88689   0.00355   0.00000   0.02294   0.02298   1.90987
   A11        1.93826  -0.00117   0.00000  -0.00327  -0.00333   1.93494
   A12        1.93777  -0.00063   0.00000  -0.00638  -0.00644   1.93133
   A13        1.86672  -0.00395   0.00000  -0.01509  -0.01540   1.85132
   A14        1.91341  -0.00314   0.00000  -0.03249  -0.03288   1.88053
   A15        1.99598   0.00189   0.00000   0.01326   0.01329   2.00927
   A16        1.93934  -0.00055   0.00000  -0.01475  -0.01570   1.92364
   A17        1.89744   0.00404   0.00000   0.02722   0.02713   1.92457
   A18        1.85206   0.00180   0.00000   0.02161   0.02184   1.87389
   A19        1.86123   0.00104   0.00000   0.00512   0.00512   1.86635
   A20        1.93236   0.00064   0.00000   0.00516   0.00526   1.93763
   A21        2.10350   0.00715   0.00000   0.01875   0.01854   2.12204
   A22        2.06327   0.01248   0.00000   0.03675   0.03654   2.09982
   A23        2.11625  -0.01963   0.00000  -0.05547  -0.05506   2.06118
   A24        1.83178   0.00051   0.00000  -0.00148  -0.00156   1.83022
   A25        2.00059   0.00099   0.00000   0.00217   0.00217   2.00276
   A26        1.89403  -0.00102   0.00000  -0.00358  -0.00356   1.89047
   A27        1.89201  -0.00156   0.00000  -0.00539  -0.00531   1.88670
   A28        1.93113   0.00113   0.00000   0.00951   0.00949   1.94062
   A29        1.91297   0.00001   0.00000  -0.00067  -0.00068   1.91229
   A30        1.90656   0.00002   0.00000   0.00009   0.00009   1.90666
   A31        1.95394  -0.00076   0.00000  -0.00319  -0.00320   1.95073
   A32        1.89664   0.00080   0.00000   0.00572   0.00572   1.90236
   A33        1.91403   0.00001   0.00000  -0.00147  -0.00149   1.91254
   A34        1.87228   0.00026   0.00000   0.00258   0.00258   1.87486
   A35        1.94002  -0.00016   0.00000  -0.00375  -0.00377   1.93626
   A36        1.88471  -0.00010   0.00000   0.00059   0.00060   1.88531
   A37        1.86568  -0.00254   0.00000  -0.01253  -0.01253   1.85315
   A38        2.15373   0.00055   0.00000  -0.00011   0.00067   2.15440
   A39        2.00736   0.01343   0.00000   0.06753   0.06712   2.07448
   A40        2.12181  -0.01398   0.00000  -0.06753  -0.06792   2.05389
   A41        2.08759   0.01869   0.00000   0.05511   0.05552   2.14311
   A42        2.12414  -0.00490   0.00000  -0.00566  -0.00587   2.11827
   A43        2.07143  -0.01379   0.00000  -0.04946  -0.04967   2.02176
   A44        1.97360   0.00129   0.00000  -0.00890  -0.00930   1.96430
   A45        2.20783  -0.01779   0.00000  -0.05337  -0.05317   2.15467
   A46        2.10175   0.01650   0.00000   0.06227   0.06247   2.16422
   A47        2.24572   0.00033   0.00000   0.00132   0.00056   2.24627
   A48        2.03156  -0.00546   0.00000  -0.02674  -0.02636   2.00521
   A49        2.00590   0.00513   0.00000   0.02542   0.02580   2.03170
   A50        1.98941  -0.00123   0.00000   0.00808   0.00764   1.99705
   A51        2.15374   0.01630   0.00000   0.04885   0.04907   2.20280
   A52        2.14003  -0.01507   0.00000  -0.05691  -0.05670   2.08333
    D1        0.54134   0.00245   0.00000   0.02229   0.02235   0.56369
    D2       -1.46643  -0.00082   0.00000  -0.00026  -0.00022  -1.46665
    D3        2.63600   0.00139   0.00000   0.01716   0.01719   2.65319
    D4       -1.49995   0.00141   0.00000   0.01643   0.01648  -1.48347
    D5        2.77546  -0.00186   0.00000  -0.00613  -0.00609   2.76937
    D6        0.59471   0.00036   0.00000   0.01130   0.01131   0.60603
    D7        2.59384   0.00204   0.00000   0.02080   0.02083   2.61467
    D8        0.58607  -0.00123   0.00000  -0.00176  -0.00174   0.58433
    D9       -1.59468   0.00098   0.00000   0.01567   0.01566  -1.57902
   D10       -0.60870  -0.00142   0.00000  -0.01116  -0.01107  -0.61978
   D11       -2.68231  -0.00040   0.00000  -0.00473  -0.00469  -2.68700
   D12        1.45631  -0.00033   0.00000  -0.00264  -0.00260   1.45370
   D13        1.45276  -0.00058   0.00000  -0.00703  -0.00698   1.44578
   D14       -0.62085   0.00045   0.00000  -0.00060  -0.00060  -0.62145
   D15       -2.76542   0.00051   0.00000   0.00150   0.00149  -2.76392
   D16       -2.69949  -0.00115   0.00000  -0.01054  -0.01048  -2.70997
   D17        1.51008  -0.00012   0.00000  -0.00411  -0.00409   1.50599
   D18       -0.63448  -0.00006   0.00000  -0.00201  -0.00201  -0.63649
   D19        1.63430  -0.00076   0.00000  -0.00337  -0.00333   1.63097
   D20       -2.67625   0.00042   0.00000  -0.00316  -0.00322  -2.67947
   D21       -0.55846  -0.00010   0.00000  -0.00201  -0.00199  -0.56045
   D22       -0.29933  -0.00228   0.00000  -0.02347  -0.02321  -0.32253
   D23       -2.40369   0.00250   0.00000   0.02158   0.02129  -2.38240
   D24        1.80234   0.00120   0.00000   0.00843   0.00843   1.81077
   D25        1.73251  -0.00313   0.00000  -0.02401  -0.02371   1.70879
   D26       -0.37186   0.00165   0.00000   0.02104   0.02079  -0.35107
   D27       -2.44902   0.00035   0.00000   0.00789   0.00793  -2.44109
   D28       -2.42081  -0.00231   0.00000  -0.01887  -0.01858  -2.43938
   D29        1.75802   0.00247   0.00000   0.02619   0.02592   1.78394
   D30       -0.31914   0.00117   0.00000   0.01303   0.01306  -0.30608
   D31       -0.52805   0.00058   0.00000   0.00215   0.00212  -0.52592
   D32       -2.47772  -0.00048   0.00000  -0.00560  -0.00561  -2.48333
   D33        1.67529  -0.00096   0.00000  -0.01264  -0.01260   1.66269
   D34       -0.08747   0.00222   0.00000   0.01849   0.01830  -0.06916
   D35        2.00028  -0.00434   0.00000  -0.03869  -0.03844   1.96184
   D36       -2.25095  -0.00005   0.00000  -0.00454  -0.00456  -2.25551
   D37       -1.14715  -0.00121   0.00000  -0.02722  -0.02737  -1.17451
   D38        2.01373  -0.00111   0.00000  -0.02826  -0.02841   1.98532
   D39        0.93735  -0.00215   0.00000  -0.01853  -0.01845   0.91890
   D40       -2.18496  -0.00205   0.00000  -0.01957  -0.01949  -2.20445
   D41        3.02460   0.00032   0.00000  -0.00967  -0.00960   3.01500
   D42       -0.09770   0.00042   0.00000  -0.01071  -0.01065  -0.10835
   D43        0.44474  -0.00115   0.00000  -0.00559  -0.00557   0.43918
   D44        2.59002  -0.00052   0.00000  -0.00675  -0.00670   2.58331
   D45       -1.59501  -0.00080   0.00000  -0.00521  -0.00517  -1.60017
   D46       -3.13500   0.00007   0.00000   0.00178   0.00188  -3.13311
   D47       -0.01892  -0.00040   0.00000  -0.00409  -0.00421  -0.02313
   D48       -0.01328   0.00033   0.00000   0.00391   0.00391  -0.00937
   D49        3.10279  -0.00013   0.00000  -0.00195  -0.00218   3.10061
   D50        3.13276  -0.00013   0.00000  -0.00240  -0.00250   3.13026
   D51       -0.01369   0.00012   0.00000   0.00217   0.00226  -0.01144
   D52        0.01061  -0.00034   0.00000  -0.00432  -0.00432   0.00628
   D53       -3.13585  -0.00009   0.00000   0.00025   0.00044  -3.13541
   D54        1.05845   0.00087   0.00000   0.00960   0.00958   1.06803
   D55       -1.00631   0.00049   0.00000   0.00468   0.00466  -1.00165
   D56       -3.06287   0.00013   0.00000   0.00147   0.00145  -3.06141
   D57       -0.98097   0.00069   0.00000   0.01383   0.01384  -0.96713
   D58       -3.04573   0.00030   0.00000   0.00891   0.00892  -3.03681
   D59        1.18090  -0.00005   0.00000   0.00570   0.00572   1.18662
   D60       -3.09041   0.00025   0.00000   0.00594   0.00594  -3.08447
   D61        1.12801  -0.00013   0.00000   0.00101   0.00102   1.12903
   D62       -0.92854  -0.00048   0.00000  -0.00219  -0.00219  -0.93073
   D63        1.22493  -0.00072   0.00000  -0.00977  -0.00976   1.21518
   D64       -2.97906  -0.00002   0.00000  -0.00298  -0.00298  -2.98204
   D65       -0.92229  -0.00007   0.00000  -0.00280  -0.00280  -0.92509
   D66        0.00477   0.00002   0.00000  -0.00078  -0.00084   0.00394
   D67        3.13806  -0.00007   0.00000  -0.00289  -0.00293   3.13514
   D68       -3.10968   0.00012   0.00000   0.00348   0.00328  -3.10640
   D69        0.02361   0.00002   0.00000   0.00136   0.00119   0.02480
   D70        0.00481   0.00002   0.00000  -0.00057  -0.00067   0.00414
   D71       -3.13885   0.00004   0.00000  -0.00020  -0.00020  -3.13905
   D72       -3.12872   0.00007   0.00000   0.00129   0.00113  -3.12759
   D73        0.01079   0.00009   0.00000   0.00166   0.00161   0.01240
   D74       -0.00714   0.00000   0.00000  -0.00013  -0.00006  -0.00721
   D75        3.13767  -0.00006   0.00000  -0.00062  -0.00049   3.13718
   D76        3.13638   0.00003   0.00000  -0.00033  -0.00039   3.13600
   D77       -0.00199  -0.00003   0.00000  -0.00082  -0.00082  -0.00280
   D78       -0.00037   0.00014   0.00000   0.00245   0.00249   0.00212
   D79       -3.13714  -0.00020   0.00000  -0.00240  -0.00223  -3.13937
   D80        3.13804   0.00019   0.00000   0.00285   0.00285   3.14089
   D81        0.00127  -0.00016   0.00000  -0.00200  -0.00188  -0.00061
         Item               Value     Threshold  Converged?
 Maximum Force            0.054880     0.000450     NO 
 RMS     Force            0.009044     0.000300     NO 
 Maximum Displacement     0.312226     0.001800     NO 
 RMS     Displacement     0.065974     0.001200     NO 
 Predicted change in Energy=-1.933672D-02
 GradGradGradGradGradGradGradGradGradGradGradGradGradGradGradGradGradGrad

                          Input orientation:                          
 ---------------------------------------------------------------------
 Center     Atomic      Atomic             Coordinates (Angstroms)
 Number     Number       Type             X           Y           Z
 ---------------------------------------------------------------------
      1          6           0       -2.287085   -0.056237    0.788883
      2          6           0       -1.301853   -1.232713    0.703473
      3          6           0       -0.427739   -0.864021   -0.512982
      4          8           0       -2.009413   -2.420003    0.429519
      5          1           0       -0.685076   -1.347937    1.609501
      6          8           0       -1.170263    0.118956   -1.253208
      7          1           0       -0.293753   -1.770816   -1.115556
      8          6           0        0.943769   -0.339429   -0.179221
      9          6           0       -2.449844    0.332349   -0.675236
     10          1           0       -1.859849    0.784478    1.354334
     11          8           0       -3.544615   -0.432245    1.323067
     12          6           0       -2.836257    1.778027   -0.908355
     13          1           0       -3.207991   -0.330750   -1.128069
     14          8           0       -1.855976    2.670534   -0.410390
     15          1           0       -3.773189    1.988033   -0.375391
     16          1           0       -3.010796    1.944748   -1.982885
     17          1           0       -3.545442   -0.276022    2.271413
     18          1           0       -2.888014   -2.321528    0.822549
     19          1           0       -1.088776    2.573965   -0.984495
     20          6           0        1.116956    0.860556    0.438964
     21          7           0        2.336626    1.374290    0.748964
     22          6           0        3.534598    0.713340    0.454465
     23          7           0        3.330115   -0.495024   -0.180174
     24          6           0        2.124780   -1.101320   -0.534075
     25          1           0        0.239312    1.461427    0.676460
     26          1           0        2.429450    2.274800    1.205125
     27          1           0        4.175527   -1.002468   -0.413834
     28          8           0        4.626583    1.158303    0.727196
     29          8           0        2.142039   -2.188161   -1.095749
 ---------------------------------------------------------------------
                    Distance matrix (angstroms):
                    1          2          3          4          5
     1  C    0.000000
     2  C    1.536904   0.000000
     3  C    2.409260   1.542650   0.000000
     4  O    2.406996   1.409024   2.410618   0.000000
     5  H    2.215476   1.102078   2.192106   2.072571   0.000000
     6  O    2.334120   2.381790   1.437192   3.159439   3.253042
     7  H    3.246543   2.148183   1.096962   2.398373   2.785300
     8  C    3.384647   2.572921   1.505865   3.663419   2.621021
     9  C    1.523527   2.380786   2.355109   2.998317   3.340328
    10  H    1.099576   2.191812   2.873214   3.338615   2.447937
    11  O    1.417080   2.460615   3.643133   2.665793   3.016205
    12  C    2.558658   3.743921   3.596902   4.482972   4.553991
    13  H    2.144325   2.793107   2.896983   2.868388   3.859282
    14  O    3.009882   4.096716   3.813590   5.161643   4.647480
    15  H    2.782640   4.200555   4.398316   4.815555   4.960336
    16  H    3.494338   4.498141   4.089253   5.086602   5.399629
    17  H    1.956952   2.899549   4.221216   3.216926   3.125511
    18  H    2.343884   1.927590   3.156092   0.967527   2.533793
    19  H    3.390985   4.169585   3.532569   5.271311   4.719439
    20  C    3.542661   3.209732   2.503288   4.531704   3.081383
    21  N    4.840114   4.476278   3.774157   5.778128   4.157130
    22  C    5.881843   5.219233   4.373116   6.368244   4.836179
    23  N    5.717039   4.772855   3.790566   5.708575   4.477963
    24  C    4.723025   3.645628   2.563612   4.445109   3.542743
    25  H    2.949343   3.103919   2.695819   4.492577   3.101223
    26  H    5.277565   5.145573   4.579041   6.507399   4.794582
    27  H    6.641328   5.594915   4.606415   6.401104   5.276239
    28  O    7.019808   6.392485   5.583369   7.545152   5.939143
    29  O    5.264415   4.001308   2.949020   4.428854   4.002116
                    6          7          8          9         10
     6  O    0.000000
     7  H    2.087692   0.000000
     8  C    2.415097   2.111174   0.000000
     9  C    1.420181   3.043997   3.494843   0.000000
[...]
 0013996,-0.00038954,0.00017326,-0.01154590,-0.00746480,-0.00452671,0.0
 2198037,0.03403112,0.01005414,-0.14579581,0.02493726,-0.01686452,0.739
 20894,-0.00001776,-0.00006694,-0.00022573,0.00043486,-0.00037771,0.000
 86104,0.00154147,-0.00365074,-0.00172014,0.00002963,0.00050507,-0.0001
 8867,0.00004665,-0.00006598,-0.00030735,0.00093554,0.00063695,0.000603
 00,0.00079173,-0.00006361,0.00080544,0.01013168,0.03306179,0.00720929,
 0.00015203,-0.00000724,0.00029713,-0.00001941,-0.00002537,-0.00001804,
 -0.00018557,0.00017805,0.00012756,-0.00012138,-0.00023069,-0.00008092,
 0.00008022,-0.00000999,-0.00001368,0.00018950,0.00034722,0.00003992,0.
 00001231,-0.00000540,0.00000752,0.00002282,0.00005490,-0.00000298,0.00
 005403,-0.00008875,-0.00005834,0.00017568,0.00004079,0.00000829,-0.000
 05779,-0.00019198,-0.00002301,-0.02262583,-0.01853327,-0.00932452,0.03
 857880,-0.04992942,-0.00230605,-0.01678312,-0.27415151,-0.04791104,-0.
 10472593,0.75387369,0.00007907,0.00002655,-0.00015403,-0.00026251,-0.0
 0023917,-0.00048412,-0.00037691,0.00006785,0.00244601,-0.00015530,0.00
 006681,0.00019658,-0.00000677,-0.00010649,-0.00006554,0.00003348,0.000
 14486,0.00014443,0.00062509,-0.00011505,0.00012928,-0.01040807,0.00514
 348,0.00803132,0.00021816,0.00007101,0.00004591,-0.00002912,-0.0000144
 9,-0.00001650,-0.00018488,0.00002405,0.00018328,-0.00001898,-0.0000699
 4,0.00000754,-0.00001012,-0.00002112,-0.00001359,-0.00003371,0.0001416
 6,0.00001026,-0.00001364,0.00001571,0.00000485,0.00000563,0.00000861,-
 0.00000788,0.00000289,-0.00002158,-0.00005849,0.00003888,-0.00002128,-
 0.00001696,0.00004812,-0.00012008,0.00001638,-0.00738426,-0.00525736,-
 0.00289876,0.01070549,-0.00375609,0.01127486,-0.02500907,-0.03686215,-
 0.07154858,0.14580276,0.10883213,0.12036893,-0.00082371,-0.00039999,0.
 00017910,-0.00144467,-0.00040024,-0.00068197,-0.02585018,0.01471968,-0
 .00359632,0.00111615,0.00091177,0.00021348,-0.00014420,-0.00024337,0.0
 0064585,-0.00071742,-0.00147226,-0.00010793,-0.00042561,0.00104967,-0.
 00061097,-0.19542622,0.04930468,-0.02009520,-0.00125547,0.00041587,-0.
 00035671,-0.00010345,0.00031882,0.00044478,0.00111668,0.00035615,-0.00
 060804,-0.00071123,-0.00037149,-0.00015951,0.00013099,0.00015673,0.000
 05967,0.00144213,-0.00047108,0.00045102,0.00010938,0.00004032,-0.00005
 820,0.00011013,0.00002698,0.00015771,-0.00016560,-0.00004729,0.0002604
 6,-0.00013888,-0.00009974,-0.00000674,-0.00067905,0.00070486,-0.000601
 30,0.05045067,0.03120990,0.01776119,-0.05054667,0.00939616,-0.00932154
 ,0.02898850,-0.08675989,-0.00652606,-0.23675801,0.01391203,-0.04209103
 ,0.55340375,0.00147701,0.00152105,0.00085354,-0.00172443,0.00090602,-0
 .00332444,0.00163012,0.01943703,0.00655695,-0.00120446,-0.00264175,0.0
 0078578,-0.00049149,0.00051007,0.00128340,-0.00676585,-0.00209494,-0.0
 0252781,-0.00394719,-0.00171929,-0.00330191,0.05860265,-0.13101552,0.0
 0589639,0.00137973,-0.00104119,-0.00175130,0.00003054,-0.00059792,-0.0
 0048730,-0.00053239,-0.00118586,0.00028982,0.00078481,0.00059146,0.000
 50643,-0.00071073,-0.00004154,0.00010493,-0.00147506,-0.00015551,-0.00
 041117,-0.00012210,0.00004088,0.00004221,-0.00010292,-0.00017534,-0.00
 013153,0.00001846,0.00032651,-0.00006268,-0.00044360,-0.00009193,-0.00
 006642,0.00076502,-0.00038924,0.00047002,0.01485127,-0.04458275,-0.005
 70823,0.01483988,0.00577232,0.00589058,-0.03347777,-0.00841198,-0.0065
 7723,-0.02247439,-0.13335514,-0.02109510,-0.03447541,0.94619907,-0.000
 02686,-0.00012362,0.00000768,0.00015948,0.00034112,-0.00008499,-0.0052
 5455,0.00689043,0.00240636,-0.00030973,-0.00043664,-0.00029888,0.00019
 926,0.00020392,-0.00006386,-0.00410135,0.00022292,-0.00040936,-0.00120
 789,0.00018945,0.00008488,-0.01716934,0.00212261,-0.08569212,-0.000380
 76,-0.00013434,-0.00093695,0.00005162,0.00012907,0.00001865,0.00013173
 ,-0.00001747,-0.00002246,-0.00010219,-0.00013368,0.00003751,-0.0001998
 9,0.00004927,0.00013914,0.00019299,0.00002706,-0.00006465,0.00002678,0
 .00004793,0.00001505,0.00001499,0.00001589,0.00000926,0.00000321,0.000
 02204,0.00005983,-0.00002901,-0.00007174,0.00002496,-0.00020250,0.0000
 9893,-0.00008606,0.01549536,-0.00272578,0.00705739,-0.00890342,0.00473
 681,-0.00639555,0.00431797,-0.02051486,-0.01740958,-0.04911549,-0.0124
 3217,-0.06623670,0.08022995,0.12803460,0.24673943,-0.00026851,-0.00040
 058,0.00021495,0.00003202,0.00009913,-0.00030247,-0.00030743,-0.000694
 63,0.00117357,-0.00035324,0.00010525,0.00006983,-0.00003813,0.00008548
 ,-0.00012936,-0.00102548,-0.00029836,0.00018774,0.00009842,0.00020543,
 -0.00005380,0.01113243,-0.00305926,-0.00032909,-0.00040817,-0.00029653
 ,-0.00012091,-0.00015772,-0.00036666,0.00035219,0.00001302,0.00030402,
 -0.00009520,-0.00175657,-0.00158024,-0.00037113,0.00001292,0.00018669,
 0.00001647,0.00115295,0.00025542,0.00044870,0.00014858,0.00009089,0.00
 000851,0.00028799,0.00028004,0.00017830,0.00001383,-0.00004414,0.00004
 144,0.00003159,-0.00016270,0.00000453,-0.00074859,0.00174663,-0.002107
 77,-0.20767072,0.14422851,-0.00920989,-0.02237549,0.01959092,-0.001934
 49,0.00015665,-0.00551970,-0.00193111,0.00086781,0.00049429,0.00048849
 ,-0.00105652,-0.00038631,-0.00324533,0.22322371,-0.00039812,-0.0005035
 1,-0.00029111,-0.00015251,-0.00042943,-0.00017150,0.00124643,-0.000580
 21,0.00155178,-0.00004113,0.00016256,0.00009259,0.00004020,-0.00000412
 ,-0.00004224,0.00059626,0.00123133,0.00063168,0.00013269,0.00008306,0.
 00004868,0.02181301,-0.01186086,0.00122801,-0.00134551,0.00007262,0.00
 004639,-0.00025624,0.00014350,0.00043391,0.00040006,0.00025182,-0.0001
 1236,0.00039878,0.00123132,-0.00010452,0.00025077,-0.00005971,0.000007
 54,0.00001071,-0.00216573,0.00012884,-0.00006809,-0.00011063,-0.000029
 00,-0.00019801,-0.00020017,-0.00006025,-0.00002817,-0.00001099,0.00007
 085,-0.00001289,-0.00007930,0.00001612,0.00108202,0.00043517,0.0011652
 4,0.14990184,-0.19753806,0.00344498,-0.01443464,0.01257508,-0.00144567
 ,-0.00132998,-0.00119284,-0.00131969,-0.00008722,0.00056713,0.00024914
 ,-0.00328333,-0.00324135,-0.00406100,-0.15458028,0.20152528,0.00051252
 ,0.00037296,0.00044144,0.00045353,0.00045162,0.00060977,0.00191250,0.0
 0032409,-0.00459171,0.00022828,-0.00001786,-0.00028784,0.00000331,0.00
 011005,-0.00007385,0.00000972,0.00024395,-0.00058039,-0.00060977,0.000
 01154,-0.00012292,0.00413122,-0.00456508,0.00925621,-0.00060405,0.0001
 6201,0.00045170,0.00024988,0.00006295,-0.00032242,-0.00020971,-0.00025
 555,-0.00016893,-0.00023169,-0.00035112,-0.00037123,0.00014647,0.00005
 777,-0.00014102,-0.00001693,0.00026312,-0.00038417,0.00013679,0.000070
 54,0.00005472,-0.00006980,0.00000911,-0.00000466,0.00004153,0.00007785
 ,-0.00004407,0.00000721,0.00010786,0.00003062,-0.00174879,0.00117023,-
 0.00069833,-0.00728852,0.00189333,-0.04386240,-0.00932030,0.00685691,0
 .00213495,-0.00116282,-0.00234436,0.00319224,0.00025605,0.00033658,-0.
 00053750,-0.00374836,-0.00324368,0.00987738,0.01573757,-0.00262903,0.0
 3074280,-0.00002927,-0.00016672,-0.00005564,0.00009952,0.00008402,-0.0
 0021848,0.00107914,-0.00143342,-0.00049164,-0.00016143,-0.00000142,0.0
 0008482,0.00000215,0.00000982,0.00001064,-0.00019580,0.00048140,0.0000
 7374,-0.00050190,-0.00012511,-0.00008824,-0.00533116,0.00020613,-0.001
 90648,0.00019896,-0.00004462,-0.00012017,0.00000494,-0.00000743,0.0000
 3004,-0.00004769,0.00011001,0.00005979,-0.00025447,-0.00027890,-0.0000
 3064,-0.00002971,0.00001709,0.00002023,0.00041407,0.00026862,0.0001384
 8,0.00002172,0.00003282,-0.00000031,0.00005015,0.00004686,0.00003241,-
 0.00000914,-0.00004149,-0.00000529,0.00000842,-0.00005720,0.00000469,-
 0.00016260,-0.00010804,-0.00017584,0.00112291,-0.03224290,-0.00448247,
 -0.07394379,-0.04612067,-0.02526122,0.01553962,0.03127479,0.01017661,-
 0.00593577,0.00370231,-0.00156626,-0.00204722,0.00006304,-0.00030382,0
 .00015480,0.00006730,0.00045305,0.06968625,-0.00011285,0.00008156,0.00
 003934,0.00001540,-0.00016067,0.00014312,-0.00014056,0.00008395,-0.000
 79315,0.00028582,0.00010983,-0.00002898,-0.00000593,-0.00002020,0.0000
 8855,0.00043849,-0.00015810,0.00011730,-0.00011202,0.00000738,0.000009
 41,-0.00089400,0.00412996,0.00019060,-0.00024530,0.00003951,0.00008244
 ,-0.00001930,0.00003065,0.00000757,0.00020191,-0.00004873,-0.00010710,
 0.00009971,0.00018403,-0.00001239,0.00004853,-0.00000425,-0.00000530,-
 0.00007332,-0.00036600,0.00001663,-0.00000530,-0.00002013,-0.00000847,
 -0.00001705,-0.00002939,0.00000761,-0.00003329,0.00002572,0.00003234,-
 0.00002334,0.00003584,0.00001096,0.00002766,0.00024287,-0.00001541,-0.
 00187582,-0.00324676,0.00019159,-0.04346865,-0.43584866,-0.09509205,-0
 .00447034,-0.01800838,-0.00439379,0.00341680,-0.00020868,0.00009995,0.
 00202921,-0.00124572,0.00044397,0.00002895,0.00089948,0.00048728,0.048
 01671,0.45071942,0.00002258,0.00004860,0.00008886,-0.00024932,-0.00010
 789,-0.00024625,-0.00013445,-0.00036102,0.00207981,-0.00013227,-0.0000
 6797,0.00002855,-0.00002776,-0.00000970,-0.00001502,0.00022561,0.00009
 227,-0.00012231,0.00025614,0.00011915,0.00006642,-0.00264609,0.0000565
 6,0.00246947,-0.00008039,-0.00000799,0.00006852,-0.00000172,-0.0000094
 1,0.00001410,0.00001677,-0.00002820,-0.00006492,-0.00005717,-0.0000848
 0,-0.00001331,0.00000966,0.00001019,-0.00001626,0.00011432,0.00009609,
 -0.00006871,0.00003002,0.00001206,0.00000059,-0.00000741,0.00001099,-0
 .00000622,0.00002103,0.00002992,0.00001943,-0.00001771,-0.00002979,0.0
 0001714,-0.00016994,-0.00008754,0.00002074,0.00153486,-0.00744556,-0.0
 0778271,-0.02466085,-0.09521901,-0.03309931,0.00321770,0.00420995,0.00
 065302,-0.00156199,0.00010066,0.00309301,0.00020520,-0.00026644,-0.000
 68320,0.00040088,0.00054767,-0.00145400,0.02356356,0.09815317,0.037820
 04,-0.00004447,0.00000304,0.00001144,-0.00007330,-0.00001427,-0.000181
 03,0.00005763,0.00126180,0.00024306,0.00006852,-0.00000045,0.00005263,
 -0.00001310,-0.00001548,0.00008332,-0.00041038,0.00002109,-0.00005755,
 -0.00003514,-0.00001522,-0.00006371,-0.00284875,-0.00409332,-0.0024348
 0,-0.00000434,-0.00002302,-0.00013617,0.00000109,0.00001431,0.00001405
 ,0.00007072,-0.00000098,-0.00001841,-0.00005900,-0.00004140,0.00000062
 ,-0.00002394,0.00001441,0.00001818,0.00009075,0.00000128,0.00003180,0.
 00000466,0.00001065,-0.00000424,0.00001016,-0.00000122,0.00001275,-0.0
 0002284,0.00000072,0.00001357,-0.00002295,-0.00001603,0.00000403,-0.00
 004326,0.00001553,-0.00003431,-0.00060774,-0.00107675,-0.00017893,0.00
 147357,-0.00353864,-0.00142958,0.01332263,-0.00188809,0.00322662,-0.30
 240139,0.18762388,-0.03401130,-0.02068862,0.02209774,-0.00114529,-0.00
 007875,0.00002288,0.00008416,0.00076681,-0.00036027,-0.00015142,0.3098
 9296,0.00007374,0.00000350,-0.00003673,0.00006653,0.00013038,-0.000102
 36,-0.00010044,0.00073267,0.00012905,-0.00010849,-0.00013412,0.0000335
 3,-0.00001139,0.00000769,0.00000535,-0.00057045,0.00005780,-0.00005373
 ,0.00000191,0.00002400,-0.00003268,-0.00318938,-0.00118013,-0.00180022
 ,0.00012278,0.00000658,-0.00013577,0.00000262,-0.00001503,-0.00001058,
 -0.00009004,-0.00002863,0.00006772,-0.00000105,-0.00001715,0.00002632,
 -0.00004813,-0.00000555,0.00001056,-0.00004255,0.00003328,-0.00001213,
 -0.00000690,0.00001393,0.00000437,-0.00000130,-0.00000073,-0.00000809,
 0.00000870,0.00000750,-0.00001762,0.00000031,0.00000813,-0.00000746,0.
 00002338,-0.00003644,0.00001503,-0.00092449,-0.00025672,-0.00017031,-0
 .00303855,-0.00537226,-0.00261590,0.03179875,-0.01572810,0.00508004,0.
 18331991,-0.21330351,0.00739565,-0.00980558,0.01939201,0.00113304,0.00
 004974,0.00003273,0.00010193,0.00140558,-0.00043142,0.00002892,-0.1990
 1177,0.21502726,0.00001677,0.00001952,-0.00000659,0.00008256,-0.000025
 65,0.00007192,-0.00021613,0.00043501,0.00028509,-0.00004398,-0.0000350
 4,-0.00005031,-0.00000948,0.00001062,-0.00000504,-0.00002744,-0.000008
 53,-0.00011887,-0.00002633,-0.00000998,-0.00001597,-0.00238150,-0.0020
 3969,0.00339705,-0.00001255,0.00001100,0.00001550,-0.00000785,-0.00002
 010,0.00000821,0.00000408,0.00000719,-0.00002938,-0.00001571,-0.000024
 94,0.00000657,-0.00000776,0.00000404,-0.00000231,0.00001842,0.00002508
 ,-0.00000714,0.00000375,0.00000021,-0.00000164,-0.00000265,0.00000636,
 -0.00000416,0.00001268,-0.00000635,0.00000860,0.00000898,-0.00000851,0
 .00001192,-0.00000870,-0.00001305,0.00001128,-0.00015670,-0.00009145,-
 0.00081955,-0.00130738,-0.00289127,0.00344662,0.00979702,-0.00359915,0
 .00063411,-0.03503650,0.00892223,-0.02444378,-0.00744541,0.00882789,0.
 00081595,0.00009554,0.00011002,-0.00042770,0.00022029,-0.00038986,0.00
 100492,0.03393269,-0.01076198,0.02323879,0.00088574,-0.00030924,-0.000
 31825,0.00020240,0.00131592,-0.00111450,0.00241291,-0.00123220,0.00192
 810,-0.00153450,-0.00093378,0.00030983,0.00006063,0.00007966,-0.000331
 09,-0.00249410,0.00076283,-0.00032662,-0.00053259,-0.00010938,0.000007
 75,-0.00094914,-0.00202052,-0.00086449,0.00145245,-0.00013631,-0.00065
 834,0.00002627,-0.00011990,-0.00016685,-0.00129138,-0.00002242,0.00081
 229,0.00025066,-0.00009857,0.00020879,-0.00032368,-0.00009302,0.000042
 93,-0.00090995,0.00068561,-0.00030535,-0.00008500,0.00006095,0.0000557
 0,-0.00006722,0.00000851,-0.00014427,0.00015776,-0.00002645,-0.0002649
 1,0.00013315,-0.00005324,-0.00009694,0.00041615,-0.00064170,0.00047258
 ,0.00353207,0.00896898,0.00171620,-0.08575230,0.00206862,-0.02548024,-
 0.56605513,-0.18268642,-0.15559164,-0.01701037,-0.04224630,-0.01769907
 ,0.00439679,0.00522380,0.00003073,-0.00163828,-0.00123028,-0.00063878,
 -0.00100135,-0.00229308,0.00012668,-0.00311513,-0.00239437,-0.00022152
 ,0.67007825,0.00018526,-0.00007851,-0.00018314,0.00033050,0.00018530,-
 0.00003080,0.00046858,0.00044518,0.00040009,-0.00035273,-0.00009063,0.
 00000075,0.00000197,0.00001134,-0.00013056,-0.00109119,0.00054337,-0.0
 0005667,0.00021547,0.00003156,0.00016303,-0.00385769,0.00696827,0.0007
 4175,0.00039693,-0.00005734,-0.00022340,0.00000632,-0.00005538,-0.0000
 2229,-0.00033629,0.00006555,0.00022265,-0.00010496,-0.00023018,0.00001
 841,-0.00009507,-0.00000804,0.00002503,0.00006785,0.00032525,-0.000000
 45,-0.00000406,0.00003305,0.00001589,0.00001127,0.00003387,-0.00002362
 ,0.00005178,-0.00005050,-0.00007181,0.00008490,-0.00002261,-0.00001107
 ,0.00001461,-0.00022062,0.00002392,-0.00614055,-0.00965552,-0.00451092
 ,0.02873768,0.03021703,0.00903337,-0.18140169,-0.17538861,-0.06330213,
 -0.07252775,-0.03620264,-0.02921412,0.02389748,-0.00029168,0.00428675,
 0.00091830,0.00033589,0.00032831,-0.00513170,0.00198953,-0.00018236,-0
 .00046745,0.00397867,0.00145074,0.22263386,0.18289137,0.00025497,-0.00
 011745,-0.00013128,0.00011846,0.00041508,-0.00032862,0.00079693,-0.000
 19016,0.00005094,-0.00039245,-0.00022902,0.00012090,0.00003730,-0.0000
 0404,-0.00005807,-0.00082226,0.00027635,-0.00003220,-0.00016819,0.0000
 6287,0.00003578,-0.00075739,0.00111989,-0.00116497,0.00048099,-0.00003
 094,-0.00024436,-0.00000505,-0.00001921,-0.00005595,-0.00039122,-0.000
 00308,0.00029081,0.00004748,-0.00004561,0.00005989,-0.00009883,-0.0000
 2640,0.00001856,-0.00022716,0.00020052,-0.00004963,-0.00003139,0.00002
 388,0.00001502,-0.00000489,0.00000187,-0.00003251,0.00002705,-0.000020
 08,-0.00009536,0.00003846,-0.00001156,-0.00003634,0.00012309,-0.000174
 65,0.00009924,-0.00148860,-0.00072321,0.00444518,-0.02035346,0.0024597
 8,0.01633477,-0.15510668,-0.06362655,-0.13247872,-0.02390120,-0.021646
 81,0.01085429,0.00407296,-0.00032091,0.00831722,-0.00020745,-0.0002164
 3,-0.00032498,-0.00034846,0.00055744,-0.00370333,0.00005166,0.00088628
 ,-0.00348478,0.19944407,0.08359508,0.10395467,0.00021692,-0.00025823,-
 0.00058420,0.00119092,0.00017158,0.00011638,0.00150860,-0.00140273,-0.
 00105473,-0.00049038,-0.00019996,0.00007237,-0.00002137,-0.00000041,-0
 .00034111,-0.00096632,0.00155590,0.00071194,0.00011616,0.00129529,0.00
 119264,0.01440181,0.03464712,0.00445959,0.00073329,0.00034896,-0.00013
 768,0.00003886,-0.00003936,-0.00002982,-0.00062735,0.00008860,0.000424
 77,-0.00005360,-0.00015560,0.00009453,-0.00009616,-0.00006343,0.000003
 82,-0.00027796,0.00038116,-0.00009217,-0.00003483,0.00006865,0.0000236
 2,-0.00001838,0.00003871,-0.00006343,0.00008538,-0.00004930,-0.0001429
 5,0.00015191,0.00009317,-0.00002101,0.00012127,-0.00031851,0.00017592,
 -0.01345809,-0.00087773,-0.00447848,0.01028387,-0.00426864,0.00153721,
 -0.00907227,0.01886853,-0.00022428,-0.00131983,-0.07212638,-0.01878705
 ,-0.10228248,-0.01342997,-0.00915665,0.00055689,0.00148344,0.00128573,
 0.00050186,-0.00045880,0.00015346,0.00473360,0.00247090,0.00273481,-0.
 00124509,-0.00651165,-0.00118875,0.09532277,-0.00091804,-0.00088731,-0
 .00066993,0.00046791,-0.00109032,0.00201692,-0.00586207,-0.00431914,-0
 .00293051,0.00073032,0.00180234,-0.00044123,0.00020697,-0.00035421,-0.
 00076772,0.00171143,0.00143252,0.00067748,0.00216819,0.00066710,0.0016
 1553,0.01846179,-0.06438429,-0.01163111,-0.00102857,0.00066190,0.00065
 907,-0.00007459,0.00037918,0.00039908,0.00043771,0.00082374,-0.0001795
 9,-0.00081558,-0.00073824,-0.00033562,0.00036098,0.00006522,-0.0000077
 0,0.00155532,0.00021020,0.00043455,0.00011081,0.00002676,-0.00002332,0
 .00011575,0.00015326,0.00011075,-0.00002656,-0.00024609,0.00005730,0.0
 0029578,-0.00000728,0.00004215,-0.00068909,0.00029960,-0.00053511,0.01
 335187,0.01046360,0.00470643,-0.00693802,-0.00599044,-0.00301166,0.001
 45897,0.01236227,0.00152970,-0.04611756,-0.05879702,-0.02537344,-0.010
 62065,-0.66241775,-0.10834454,-0.00128033,-0.00157006,-0.00009329,-0.0
 0002690,0.00121736,0.00039148,-0.00052299,-0.00294632,0.00009566,-0.00
 516155,-0.00570296,-0.00219294,0.03864870,0.77888638,-0.00007570,-0.00
 013999,0.00021115,-0.00011400,0.00029333,-0.00051414,-0.00043791,-0.00
 082352,-0.00300681,0.00031990,0.00016899,0.00027132,-0.00003273,0.0000
 0491,0.00043379,-0.00031005,0.00080392,0.00055481,0.00103652,0.0007991
 1,0.00039119,0.00051410,-0.00703841,0.02162311,0.00042342,0.00014869,-
 0.00015609,0.00001715,0.00004543,0.00003238,-0.00003027,0.00004694,0.0
 0008306,-0.00017190,-0.00009881,0.00005914,0.00001952,-0.00001413,-0.0
 0001823,0.00015614,0.00005224,0.00010267,-0.00000839,0.00004701,-0.000
 00219,0.00003072,-0.00002060,0.00002156,-0.00004524,0.00000269,-0.0000
 1561,-0.00003534,0.00006341,-0.00002184,-0.00004531,-0.00003162,-0.000
 06844,-0.00184444,0.00119897,0.00282768,0.00133984,-0.00209110,0.00011
 145,-0.00373196,0.00555667,0.00755573,-0.01356281,-0.03189135,0.009675
 51,-0.00866605,-0.11026637,-0.09722633,0.00061928,0.00070936,-0.002393
 72,0.00018660,0.00016725,-0.00016910,0.00206617,0.00084778,-0.00353932
 ,-0.00093276,-0.00234244,-0.00237618,0.02331550,0.14380164,0.06555344\
 \-0.00000367,-0.00000423,0.00000428,-0.00000687,0.00000659,-0.00000080
 ,0.00003661,-0.00001992,0.00002045,0.00000374,-0.00000827,0.00000700,0
 .00000222,-0.00000072,-0.00000199,-0.00000472,0.00002711,-0.00000358,-
 0.00000440,-0.00000089,-0.00000184,-0.00003956,0.00001843,-0.00000448,
 0.00000026,-0.00000794,-0.00000591,0.00000062,0.00000231,-0.00000353,0
 .00000086,0.00000622,-0.00000089,-0.00000117,0.00000251,0.00000438,-0.
 00000190,0.00000196,0.00000133,-0.00000072,-0.00000248,-0.00000412,-0.
 00000002,-0.00000230,0.00000111,0.00000136,-0.00000034,-0.00000041,0.0
 0000074,-0.00000272,0.00000077,-0.00000610,0.00000468,-0.00000243,0.00
 000341,-0.00000240,0.00000141,0.00000580,-0.00000143,-0.00000137,0.000
 00531,0.00000248,-0.00000522,0.00000388,0.00001327,0.00000934,-0.00002
 180,-0.00002101,-0.00000779,0.00003411,-0.00000110,-0.00000556,-0.0000
 0229,-0.00000503,-0.00000292,-0.00000277,-0.00000057,0.00000067,0.0000
 0385,0.00000349,0.00000144,-0.00000144,-0.00000654,-0.00000420,-0.0000
 0535,-0.00000116,0.00000485\\\@
 The archive entry for this job was punched.


 THOSE WITH THE GOLD MAKE THE RULES.

             -- PETER'S GOLDEN RULE
 Job cpu time:       0 days 10 hours 29 minutes 18.4 seconds.
 Elapsed time:       0 days  0 hours 15 minutes 51.8 seconds.
 File lengths (MBytes):  RWF=    632 Int=      0 D2E=      0 Chk=     21 Scr=      1
 Normal termination of Gaussian 16 at Sat Oct 26 08:09:22 2024.
