 Entering Gaussian System, Link 0=g16
 Input=UridineRSslraPBE0aVDZ.gjf
 Output=UridineRSslraPBE0aVDZ.log
 Initial command:
 /sw/contrib/chem-src/g16/c01/g16/l1.exe "/scr/Gau-89678.inp" -scrdir="/scr/"
 Entering Link 1 = /sw/contrib/chem-src/g16/c01/g16/l1.exe PID=     89680.
  
 Copyright (c) 1988-2019, Gaussian, Inc.  All Rights Reserved.
  
 This is part of the Gaussian(R) 16 program.  It is based on
 the Gaussian(R) 09 system (copyright 2009, Gaussian, Inc.),
 the Gaussian(R) 03 system (copyright 2003, Gaussian, Inc.),
 the Gaussian(R) 98 system (copyright 1998, Gaussian, Inc.),
 the Gaussian(R) 94 system (copyright 1995, Gaussian, Inc.),
 the Gaussian 92(TM) system (copyright 1992, Gaussian, Inc.),
 the Gaussian 90(TM) system (copyright 1990, Gaussian, Inc.),
 the Gaussian 88(TM) system (copyright 1988, Gaussian, Inc.),
 the Gaussian 86(TM) system (copyright 1986, Carnegie Mellon
 University), and the Gaussian 82(TM) system (copyright 1983,
 Carnegie Mellon University). Gaussian is a federally registered
 trademark of Gaussian, Inc.
  
 This software contains proprietary and confidential information,
 including trade secrets, belonging to Gaussian, Inc.
  
 This software is provided under written license and may be
 used, copied, transmitted, or stored only in accord with that
 written license.
  
 The following legend is applicable only to US Government
 contracts under FAR:
  
                    RESTRICTED RIGHTS LEGEND
  
 Use, reproduction and disclosure by the US Government is
 subject to restrictions as set forth in subparagraphs (a)
 and (c) of the Commercial Computer Software - Restricted
 Rights clause in FAR 52.227-19.
  
 Gaussian, Inc.
 340 Quinnipiac St., Bldg. 40, Wallingford CT 06492
  
  
 ---------------------------------------------------------------
 Warning -- This program may not be used in any manner that
 competes with the business of Gaussian, Inc. or will provide
 assistance to any competitor of Gaussian, Inc.  The licensee
 of this program is prohibited from giving any competitor of
 Gaussian, Inc. access to this program.  By using this program,
 the user acknowledges that Gaussian, Inc. is engaged in the
 business of creating and licensing software in the field of
 computational chemistry and represents and warrants to the
 licensee that it is not a competitor of Gaussian, Inc. and that
 it will not use this program in any manner prohibited above.
 ---------------------------------------------------------------
  

 Cite this work as:
 Gaussian 16, Revision C.01,
 M. J. Frisch, G. W. Trucks, H. B. Schlegel, G. E. Scuseria, 
 M. A. Robb, J. R. Cheeseman, G. Scalmani, V. Barone, 
 G. A. Petersson, H. Nakatsuji, X. Li, M. Caricato, A. V. Marenich, 
 J. Bloino, B. G. Janesko, R. Gomperts, B. Mennucci, H. P. Hratchian, 
 J. V. Ortiz, A. F. Izmaylov, J. L. Sonnenberg, D. Williams-Young, 
 F. Ding, F. Lipparini, F. Egidi, J. Goings, B. Peng, A. Petrone, 
 T. Henderson, D. Ranasinghe, V. G. Zakrzewski, J. Gao, N. Rega, 
 G. Zheng, W. Liang, M. Hada, M. Ehara, K. Toyota, R. Fukuda, 
 J. Hasegawa, M. Ishida, T. Nakajima, Y. Honda, O. Kitao, H. Nakai, 
 T. Vreven, K. Throssell, J. A. Montgomery, Jr., J. E. Peralta, 
 F. Ogliaro, M. J. Bearpark, J. J. Heyd, E. N. Brothers, K. N. Kudin, 
 V. N. Staroverov, T. A. Keith, R. Kobayashi, J. Normand, 
 K. Raghavachari, A. P. Rendell, J. C. Burant, S. S. Iyengar, 
 J. Tomasi, M. Cossi, J. M. Millam, M. Klene, C. Adamo, R. Cammi, 
 J. W. Ochterski, R. L. Martin, K. Morokuma, O. Farkas, 
 J. B. Foresman, and D. J. Fox, Gaussian, Inc., Wallingford CT, 2019.
 
 ******************************************
 Gaussian 16:  EM64L-G16RevC.01  3-Jul-2019
                26-Oct-2024 
 ******************************************
 %nprocshared=40
 Will use up to   40 processors via shared memory.
 %mem=50gb
 ------------------------------------------------------
 # PBE1PBE/aug-cc-pVDZ opt freq EmpiricalDispersion=GD3
 ------------------------------------------------------
 1/18=20,19=15,26=3,38=1/1,3;
 2/9=110,12=2,17=6,18=5,40=1/2;
 3/5=16,7=10,11=2,25=1,30=1,71=1,74=-13,124=31/1,2,3;
 4//1;
 5/5=2,38=5/2;
 6/7=2,8=2,9=2,10=2,28=1/1;
 7//1,2,3,16;
 1/18=20,19=15,26=3/3(2);
 2/9=110/2;
 99//99;
 2/9=110/2;
 3/5=16,7=10,11=2,25=1,30=1,71=1,74=-13,124=31/1,2,3;
 4/5=5,16=3,69=1/1;
 5/5=2,38=5/2;
 7//1,2,3,16;
 1/18=20,19=15,26=3/3(-5);
 2/9=110/2;
 6/7=2,8=2,9=2,10=2,19=2,28=1/1;
 99/9=1/99;
 ----
 blah
 ----
 Symbolic Z-matrix:
 Charge =  0 Multiplicity = 2
 C                    -2.68418  -0.56867   0.22523 
 C                    -1.24219  -0.87676   0.63646 
 C                    -0.4495   -0.38192  -0.58539 
 O                    -1.02929  -2.19816   0.9848 
 H                    -0.99511  -0.18277   1.46598 
 O                    -1.14622   0.78195  -1.00925 
 H                    -0.45643  -1.15609  -1.36822 
 N                     0.93211  -0.0215   -0.31534 
 C                    -2.51986   0.70272  -0.62516 
 H                    -3.31869  -0.38637   1.1072 
 O                    -3.18986  -1.6478   -0.54331 
 C                    -2.88818   2.00874   0.05549 
 H                    -3.13604   0.60102  -1.53688 
 O                    -2.16749   2.23463   1.24757 
 H                    -3.95411   1.99142   0.32621 
 H                    -2.7328    2.83393  -0.66284 
 H                    -4.09329  -1.43462  -0.79155 
 H                    -0.10931  -2.39803   0.65372 
 H                    -1.23322   2.11047   1.03893 
 C                     1.37525   1.27265  -0.30454 
 C                     2.68103   1.54923  -0.10284 
 C                     3.63777   0.44867   0.0674 
 N                     3.14337  -0.83165   0.06225 
 C                     1.85241  -1.08563  -0.09774 
 H                     0.6255    2.03753  -0.49444 
 H                     3.0442    2.57517  -0.09898 
 O                     4.84654   0.6883    0.20817 
 O                     1.34326  -2.23814  -0.0731 
 

 GradGradGradGradGradGradGradGradGradGradGradGradGradGradGradGradGradGrad
 Berny optimization.
 Initialization pass.
                           ----------------------------
                           !    Initial Parameters    !
                           ! (Angstroms and Degrees)  !
 --------------------------                            --------------------------
 ! Name  Definition              Value          Derivative Info.                !
 --------------------------------------------------------------------------------
 ! R1    R(1,2)                  1.5308         estimate D2E/DX2                !
 ! R2    R(1,9)                  1.5384         estimate D2E/DX2                !
 ! R3    R(1,10)                 1.1017         estimate D2E/DX2                !
 ! R4    R(1,11)                 1.4181         estimate D2E/DX2                !
 ! R5    R(2,3)                  1.5382         estimate D2E/DX2                !
 ! R6    R(2,4)                  1.383          estimate D2E/DX2                !
 ! R7    R(2,5)                  1.1094         estimate D2E/DX2                !
 ! R8    R(3,6)                  1.4211         estimate D2E/DX2                !
 ! R9    R(3,7)                  1.101          estimate D2E/DX2                !
 ! R10   R(3,8)                  1.4532         estimate D2E/DX2                !
 ! R11   R(4,18)                 0.998          estimate D2E/DX2                !
 ! R12   R(6,9)                  1.4285         estimate D2E/DX2                !
 ! R13   R(8,20)                 1.368          estimate D2E/DX2                !
 ! R14   R(8,24)                 1.4236         estimate D2E/DX2                !
 ! R15   R(9,12)                 1.5181         estimate D2E/DX2                !
 ! R16   R(9,13)                 1.1051         estimate D2E/DX2                !
 ! R17   R(11,17)                0.9609         estimate D2E/DX2                !
 ! R18   R(12,14)                1.4112         estimate D2E/DX2                !
 ! R19   R(12,15)                1.0999         estimate D2E/DX2                !
 ! R20   R(12,16)                1.105          estimate D2E/DX2                !
 ! R21   R(14,19)                0.9653         estimate D2E/DX2                !
 ! R22   R(20,21)                1.3499         estimate D2E/DX2                !
 ! R23   R(20,25)                1.0878         estimate D2E/DX2                !
 ! R24   R(21,22)                1.4682         estimate D2E/DX2                !
 ! R25   R(21,26)                1.0883         estimate D2E/DX2                !
 ! R26   R(22,23)                1.3725         estimate D2E/DX2                !
 ! R27   R(22,27)                1.2403         estimate D2E/DX2                !
 ! R28   R(23,24)                1.3254         estimate D2E/DX2                !
 ! R29   R(24,28)                1.2602         estimate D2E/DX2                !
 ! A1    A(2,1,9)              102.3692         estimate D2E/DX2                !
 ! A2    A(2,1,10)             111.1474         estimate D2E/DX2                !
 ! A3    A(2,1,11)             109.1679         estimate D2E/DX2                !
 ! A4    A(9,1,10)             111.5497         estimate D2E/DX2                !
 ! A5    A(9,1,11)             111.5565         estimate D2E/DX2                !
 ! A6    A(10,1,11)            110.7585         estimate D2E/DX2                !
 ! A7    A(1,2,3)              101.964          estimate D2E/DX2                !
 ! A8    A(1,2,4)              113.8888         estimate D2E/DX2                !
 ! A9    A(1,2,5)              106.5439         estimate D2E/DX2                !
 ! A10   A(3,2,4)              115.3467         estimate D2E/DX2                !
 ! A11   A(3,2,5)              106.1363         estimate D2E/DX2                !
 ! A12   A(4,2,5)              112.0289         estimate D2E/DX2                !
 ! A13   A(2,3,6)              104.3429         estimate D2E/DX2                !
 ! A14   A(2,3,7)              109.5927         estimate D2E/DX2                !
 ! A15   A(2,3,8)              114.9687         estimate D2E/DX2                !
 ! A16   A(6,3,7)              111.1436         estimate D2E/DX2                !
 ! A17   A(6,3,8)              108.5669         estimate D2E/DX2                !
 ! A18   A(7,3,8)              108.2113         estimate D2E/DX2                !
 ! A19   A(2,4,18)             104.4602         estimate D2E/DX2                !
 ! A20   A(3,6,9)              110.2306         estimate D2E/DX2                !
 ! A21   A(3,8,20)             122.9636         estimate D2E/DX2                !
 ! A22   A(3,8,24)             117.2342         estimate D2E/DX2                !
 ! A23   A(20,8,24)            119.7709         estimate D2E/DX2                !
 ! A24   A(1,9,6)              107.2884         estimate D2E/DX2                !
 ! A25   A(1,9,12)             115.9273         estimate D2E/DX2                !
 ! A26   A(1,9,13)             108.6895         estimate D2E/DX2                !
 ! A27   A(6,9,12)             107.8264         estimate D2E/DX2                !
 ! A28   A(6,9,13)             108.6288         estimate D2E/DX2                !
 ! A29   A(12,9,13)            108.2876         estimate D2E/DX2                !
 ! A30   A(1,11,17)            107.8465         estimate D2E/DX2                !
 ! A31   A(9,12,14)            113.1128         estimate D2E/DX2                !
 ! A32   A(9,12,15)            109.3862         estimate D2E/DX2                !
 ! A33   A(9,12,16)            108.4733         estimate D2E/DX2                !
 ! A34   A(14,12,15)           106.8299         estimate D2E/DX2                !
 ! A35   A(14,12,16)           110.9641         estimate D2E/DX2                !
 ! A36   A(15,12,16)           107.9399         estimate D2E/DX2                !
 ! A37   A(12,14,19)           106.9244         estimate D2E/DX2                !
 ! A38   A(8,20,21)            120.5553         estimate D2E/DX2                !
 ! A39   A(8,20,25)            116.1399         estimate D2E/DX2                !
 ! A40   A(21,20,25)           123.2809         estimate D2E/DX2                !
 ! A41   A(20,21,22)           119.6094         estimate D2E/DX2                !
 ! A42   A(20,21,26)           121.0954         estimate D2E/DX2                !
 ! A43   A(22,21,26)           119.2599         estimate D2E/DX2                !
 ! A44   A(21,22,23)           117.652          estimate D2E/DX2                !
 ! A45   A(21,22,27)           120.2258         estimate D2E/DX2                !
 ! A46   A(23,22,27)           122.1221         estimate D2E/DX2                !
 ! A47   A(22,23,24)           122.0113         estimate D2E/DX2                !
 ! A48   A(8,24,23)            120.3222         estimate D2E/DX2                !
 ! A49   A(8,24,28)            115.1772         estimate D2E/DX2                !
 ! A50   A(23,24,28)           124.5006         estimate D2E/DX2                !
 ! D1    D(9,1,2,3)            -32.6683         estimate D2E/DX2                !
 ! D2    D(9,1,2,4)           -157.5897         estimate D2E/DX2                !
 ! D3    D(9,1,2,5)             78.3894         estimate D2E/DX2                !
 ! D4    D(10,1,2,3)          -151.8788         estimate D2E/DX2                !
 ! D5    D(10,1,2,4)            83.1997         estimate D2E/DX2                !
 ! D6    D(10,1,2,5)           -40.8212         estimate D2E/DX2                !
 ! D7    D(11,1,2,3)            85.6559         estimate D2E/DX2                !
 ! D8    D(11,1,2,4)           -39.2656         estimate D2E/DX2                !
 ! D9    D(11,1,2,5)          -163.2865         estimate D2E/DX2                !
 ! D10   D(2,1,9,6)             18.1888         estimate D2E/DX2                !
 ! D11   D(2,1,9,12)          -102.3297         estimate D2E/DX2                !
 ! D12   D(2,1,9,13)           135.4766         estimate D2E/DX2                !
 ! D13   D(10,1,9,6)           137.1165         estimate D2E/DX2                !
 ! D14   D(10,1,9,12)           16.598          estimate D2E/DX2                !
 ! D15   D(10,1,9,13)         -105.5957         estimate D2E/DX2                !
 ! D16   D(11,1,9,6)           -98.4301         estimate D2E/DX2                !
 ! D17   D(11,1,9,12)          141.0514         estimate D2E/DX2                !
 ! D18   D(11,1,9,13)           18.8577         estimate D2E/DX2                !
 ! D19   D(2,1,11,17)         -179.9377         estimate D2E/DX2                !
 ! D20   D(9,1,11,17)          -67.532          estimate D2E/DX2                !
 ! D21   D(10,1,11,17)          57.364          estimate D2E/DX2                !
 ! D22   D(1,2,3,6)             36.8821         estimate D2E/DX2                !
 ! D23   D(1,2,3,7)            -82.2094         estimate D2E/DX2                !
 ! D24   D(1,2,3,8)            155.6722         estimate D2E/DX2                !
 ! D25   D(4,2,3,6)            160.8291         estimate D2E/DX2                !
 ! D26   D(4,2,3,7)             41.7376         estimate D2E/DX2                !
 ! D27   D(4,2,3,8)            -80.3808         estimate D2E/DX2                !
 ! D28   D(5,2,3,6)            -74.4835         estimate D2E/DX2                !
 ! D29   D(5,2,3,7)            166.425          estimate D2E/DX2                !
 ! D30   D(5,2,3,8)             44.3066         estimate D2E/DX2                !
 ! D31   D(1,2,4,18)           144.2383         estimate D2E/DX2                !
 ! D32   D(3,2,4,18)            26.8078         estimate D2E/DX2                !
 ! D33   D(5,2,4,18)           -94.7534         estimate D2E/DX2                !
 ! D34   D(2,3,6,9)            -26.6335         estimate D2E/DX2                !
 ! D35   D(7,3,6,9)             91.4003         estimate D2E/DX2                !
 ! D36   D(8,3,6,9)           -149.6931         estimate D2E/DX2                !
 ! D37   D(2,3,8,20)          -108.0223         estimate D2E/DX2                !
 ! D38   D(2,3,8,24)            74.0193         estimate D2E/DX2                !
 ! D39   D(6,3,8,20)             8.3802         estimate D2E/DX2                !
 ! D40   D(6,3,8,24)          -169.5782         estimate D2E/DX2                !
 ! D41   D(7,3,8,20)           129.1165         estimate D2E/DX2                !
 ! D42   D(7,3,8,24)           -48.8419         estimate D2E/DX2                !
 ! D43   D(3,6,9,1)              5.2924         estimate D2E/DX2                !
 ! D44   D(3,6,9,12)           130.8203         estimate D2E/DX2                !
 ! D45   D(3,6,9,13)          -112.0351         estimate D2E/DX2                !
 ! D46   D(3,8,20,21)         -177.2242         estimate D2E/DX2                !
 ! D47   D(3,8,20,25)            1.0557         estimate D2E/DX2                !
 ! D48   D(24,8,20,21)           0.6845         estimate D2E/DX2                !
 ! D49   D(24,8,20,25)         178.9644         estimate D2E/DX2                !
 ! D50   D(3,8,24,23)          175.347          estimate D2E/DX2                !
 ! D51   D(3,8,24,28)           -4.6649         estimate D2E/DX2                !
 ! D52   D(20,8,24,23)          -2.6796         estimate D2E/DX2                !
 ! D53   D(20,8,24,28)         177.3085         estimate D2E/DX2                !
 ! D54   D(1,9,12,14)           56.8974         estimate D2E/DX2                !
 ! D55   D(1,9,12,15)          -62.0432         estimate D2E/DX2                !
 ! D56   D(1,9,12,16)         -179.5484         estimate D2E/DX2                !
 ! D57   D(6,9,12,14)          -63.3306         estimate D2E/DX2                !
 ! D58   D(6,9,12,15)          177.7288         estimate D2E/DX2                !
 ! D59   D(6,9,12,16)           60.2236         estimate D2E/DX2                !
 ! D60   D(13,9,12,14)         179.3037         estimate D2E/DX2                !
 ! D61   D(13,9,12,15)          60.3631         estimate D2E/DX2                !
 ! D62   D(13,9,12,16)         -57.1421         estimate D2E/DX2                !
 ! D63   D(9,12,14,19)          50.7553         estimate D2E/DX2                !
 ! D64   D(15,12,14,19)        171.1632         estimate D2E/DX2                !
 ! D65   D(16,12,14,19)        -71.4168         estimate D2E/DX2                !
 ! D66   D(8,20,21,22)           1.7752         estimate D2E/DX2                !
 ! D67   D(8,20,21,26)         179.5966         estimate D2E/DX2                !
 ! D68   D(25,20,21,22)       -176.3776         estimate D2E/DX2                !
 ! D69   D(25,20,21,26)          1.4438         estimate D2E/DX2                !
 ! D70   D(20,21,22,23)         -2.3717         estimate D2E/DX2                !
 ! D71   D(20,21,22,27)        177.5584         estimate D2E/DX2                !
 ! D72   D(26,21,22,23)        179.7667         estimate D2E/DX2                !
 ! D73   D(26,21,22,27)         -0.3032         estimate D2E/DX2                !
 ! D74   D(21,22,23,24)          0.4124         estimate D2E/DX2                !
 ! D75   D(27,22,23,24)       -179.5163         estimate D2E/DX2                !
 ! D76   D(22,23,24,8)           2.0538         estimate D2E/DX2                !
 ! D77   D(22,23,24,28)       -177.9331         estimate D2E/DX2                !
 --------------------------------------------------------------------------------
 Trust Radius=3.00D-01 FncErr=1.00D-07 GrdErr=1.00D-06 EigMax=2.50D+02 EigMin=1.00D-04
 Number of steps in this run=    166 maximum allowed number of steps=    168.
 GradGradGradGradGradGradGradGradGradGradGradGradGradGradGradGradGradGrad

                          Input orientation:                          
 ---------------------------------------------------------------------
 Center     Atomic      Atomic             Coordinates (Angstroms)
 Number     Number       Type             X           Y           Z
 ---------------------------------------------------------------------
      1          6           0       -2.684183   -0.568666    0.225232
      2          6           0       -1.242187   -0.876763    0.636463
      3          6           0       -0.449497   -0.381923   -0.585394
      4          8           0       -1.029286   -2.198159    0.984801
      5          1           0       -0.995110   -0.182765    1.465984
      6          8           0       -1.146216    0.781947   -1.009252
      7          1           0       -0.456430   -1.156094   -1.368223
      8          7           0        0.932107   -0.021500   -0.315339
      9          6           0       -2.519856    0.702717   -0.625159
     10          1           0       -3.318686   -0.386366    1.107201
     11          8           0       -3.189855   -1.647799   -0.543311
     12          6           0       -2.888178    2.008738    0.055492
     13          1           0       -3.136037    0.601020   -1.536876
     14          8           0       -2.167489    2.234627    1.247570
     15          1           0       -3.954110    1.991423    0.326206
     16          1           0       -2.732799    2.833928   -0.662842
     17          1           0       -4.093291   -1.434624   -0.791551
     18          1           0       -0.109313   -2.398031    0.653718
     19          1           0       -1.233222    2.110468    1.038931
     20          6           0        1.375252    1.272654   -0.304535
     21          6           0        2.681028    1.549234   -0.102843
     22          6           0        3.637766    0.448667    0.067404
     23          7           0        3.143366   -0.831645    0.062247
     24          6           0        1.852405   -1.085634   -0.097744
     25          1           0        0.625504    2.037528   -0.494442
     26          1           0        3.044200    2.575169   -0.098981
     27          8           0        4.846544    0.688299    0.208168
     28          8           0        1.343263   -2.238137   -0.073099
 ---------------------------------------------------------------------
                    Distance matrix (angstroms):
                    1          2          3          4          5
     1  C    0.000000
     2  C    1.530813   0.000000
     3  C    2.384493   1.538232   0.000000
     4  O    2.443538   1.383023   2.469895   0.000000
     5  H    2.131045   1.109408   2.132020   2.072322   0.000000
     6  O    2.390282   2.338569   1.421150   3.587611   2.660882
     7  H    2.801259   2.171222   1.101004   2.636434   3.044713
     8  N    3.697183   2.522886   1.453157   3.205506   2.629312
     9  C    1.538370   2.391419   2.337608   3.637149   2.735289
    10  H    1.101679   2.184933   3.331237   2.922144   2.359912
    11  O    1.418059   2.404116   3.018903   2.702976   3.316700
    12  C    2.591030   3.372377   3.474645   4.692236   3.221161
    13  H    2.162721   3.239431   3.014796   4.316556   3.770286
    14  O    3.028300   3.303087   3.627339   4.584119   2.695545
    15  H    2.859539   3.959454   4.329676   5.151790   3.844720
    16  H    3.516914   4.204681   3.944764   5.562246   4.080674
    17  H    1.941473   3.237163   3.798410   3.623057   4.032659
    18  H    3.187496   1.896828   2.390777   0.997955   2.520281
    19  H    3.153594   3.014235   3.076470   4.313790   2.344779
    20  C    4.488889   3.515175   2.479156   4.414831   3.297211
    21  C    5.777424   4.671579   3.709772   5.384455   4.356034
    22  C    6.405226   5.088667   4.221581   5.443223   4.880397
    23  N    5.835756   4.423215   3.678363   4.486590   4.417975
    24  C    4.577357   3.187348   2.455965   3.273188   3.371759
    25  H    4.273664   3.641471   2.649083   4.782001   3.376294
    26  H    6.542414   5.552461   4.602924   6.368087   5.135303
    27  O    7.634926   6.301230   5.461059   6.592433   6.038690
    28  O    4.369949   3.006887   2.630963   2.598026   3.472941
                    6          7          8          9         10
     6  O    0.000000
     7  H    2.088221   0.000000
     8  N    2.333767   2.079400   0.000000
     9  C    1.428528   2.874900   3.540696   0.000000
    10  H    3.250224   3.861698   4.497331   2.196657   0.000000
    11  O    3.208929   2.897217   4.437047   2.445511   2.081346
    12  C    2.381833   4.237514   4.342115   1.518103   2.651029
    13  H    2.066521   3.208767   4.292957   1.105101   2.828327
    14  O    2.871676   4.611625   4.140083   2.445000   2.866106
    15  H    3.336248   5.001172   5.323397   2.150103   2.582169
    16  H    2.616844   4.647547   4.658944   2.142154   3.721103
    17  H    3.694026   3.692816   5.241977   2.659250   2.303067
    18  H    3.735358   2.398154   2.769752   4.130482   3.814776
    19  H    2.442865   4.131371   3.326858   2.531084   3.253921
    20  C    2.663685   3.222624   1.367965   3.949620   5.174785
    21  C    4.007256   4.331700   2.360314   5.295149   6.419293
    22  C    4.914951   4.625875   2.772750   6.201652   7.083127
    23  N    4.706623   3.887164   2.385073   5.907527   6.561122
    24  C    3.648347   2.636247   1.423614   4.753213   5.355469
    25  H    2.231704   3.483288   2.089421   3.419371   4.898689
    26  H    4.647991   5.271405   3.354167   5.894206   7.121228
    27  O    6.115885   5.831666   4.012567   7.413399   8.284573
    28  O    4.024276   2.467196   2.267423   4.886418   5.153245
                   11         12         13         14         15
    11  O    0.000000
    12  C    3.717504   0.000000
    13  H    2.459117   2.139799   0.000000
    14  O    4.396103   1.411194   3.370445   0.000000
    15  H    3.818911   1.099908   2.464455   2.024864   0.000000
    16  H    4.506558   1.105027   2.431546   2.080483   1.783152
    17  H    0.960866   3.745200   2.369745   4.618455   3.606459
    18  H    3.389021   5.244004   4.791040   5.103946   5.844402
    19  H    4.522883   1.927792   3.540328   0.965298   2.815205
    20  C    5.424598   4.341460   4.724562   3.985654   5.414477
    21  C    6.699425   5.590373   6.065790   5.079517   6.663683
    22  C    7.168302   6.709837   6.962854   6.187361   7.751365
    23  N    6.414242   6.666884   6.636311   6.245974   7.642876
    24  C    5.093029   5.663192   5.458979   5.384566   6.585107
    25  H    5.304808   3.556574   4.159256   3.297615   4.652790
    26  H    7.542833   5.961360   6.645309   5.393595   7.035473
    27  O    8.402725   7.848108   8.171560   7.257282   8.897392
    28  O    4.595515   5.996464   5.501598   5.837394   6.790492
                   16         17         18         19         20
    16  H    0.000000
    17  H    4.481968   0.000000
    18  H    5.999117   4.346152   0.000000
    19  H    2.380789   4.909006   4.662416   0.000000
    20  C    4.409313   6.121397   4.073832   3.051388   0.000000
    21  C    5.592277   7.434321   4.892779   4.115821   1.349899
    22  C    6.841552   8.003364   4.742157   5.237554   2.436445
    23  N    6.963583   7.311755   3.658323   5.363251   2.772874
    24  C    6.058581   5.996204   2.476978   4.585651   2.414945
    25  H    3.455548   5.866101   4.640303   2.410688   1.087759
    26  H    5.810216   8.215952   5.936659   4.450520   2.127013
    27  O    7.925202   9.242667   5.855294   6.298912   3.557275
    28  O    6.533599   5.542375   1.632117   5.175447   3.518556
                   21         22         23         24         25
    21  C    0.000000
    22  C    1.468189   0.000000
    23  N    2.430966   1.372464   0.000000
    24  C    2.762095   2.359845   1.325401   0.000000
    25  H    2.148711   3.451648   3.857679   3.378875   0.000000
    26  H    1.088325   2.214050   3.412068   3.849916   2.509091
    27  O    2.351042   1.240315   2.287430   3.493607   4.486787
    28  O    4.016800   3.536015   2.288429   1.260197   4.355918
                   26         27         28
    26  H    0.000000
    27  O    2.627368   0.000000
    28  O    5.105073   4.573414   0.000000
 Stoichiometry    C9H11N2O6(2)
 Framework group  C1[X(C9H11N2O6)]
 Deg. of freedom    78
 Full point group                 C1      NOp   1
 Largest Abelian subgroup         C1      NOp   1
 Largest concise Abelian subgroup C1      NOp   1
                         Standard orientation:                         
 ---------------------------------------------------------------------
 Center     Atomic      Atomic             Coordinates (Angstroms)
 Number     Number       Type             X           Y           Z
 ---------------------------------------------------------------------
      1          6           0       -2.684183   -0.568666    0.225232
      2          6           0       -1.242187   -0.876763    0.636463
      3          6           0       -0.449497   -0.381923   -0.585394
      4          8           0       -1.029286   -2.198159    0.984801
      5          1           0       -0.995110   -0.182765    1.465984
      6          8           0       -1.146216    0.781947   -1.009252
      7          1           0       -0.456430   -1.156094   -1.368223
      8          7           0        0.932107   -0.021500   -0.315339
      9          6           0       -2.519856    0.702717   -0.625159
     10          1           0       -3.318686   -0.386366    1.107201
     11          8           0       -3.189855   -1.647799   -0.543311
     12          6           0       -2.888178    2.008738    0.055492
     13          1           0       -3.136037    0.601020   -1.536876
     14          8           0       -2.167489    2.234627    1.247570
     15          1           0       -3.954110    1.991423    0.326206
     16          1           0       -2.732799    2.833928   -0.662842
     17          1           0       -4.093291   -1.434624   -0.791551
     18          1           0       -0.109313   -2.398031    0.653718
     19          1           0       -1.233222    2.110468    1.038931
     20          6           0        1.375252    1.272654   -0.304535
     21          6           0        2.681028    1.549234   -0.102843
     22          6           0        3.637766    0.448667    0.067404
     23          7           0        3.143366   -0.831645    0.062247
     24          6           0        1.852405   -1.085634   -0.097744
     25          1           0        0.625504    2.037528   -0.494442
     26          1           0        3.044200    2.575169   -0.098981
     27          8           0        4.846544    0.688299    0.208168
     28          8           0        1.343263   -2.238137   -0.073099
 ---------------------------------------------------------------------
 Rotational constants (GHZ):           0.8885496           0.3186203           0.2558947
 Standard basis: Aug-CC-pVDZ (5D, 7F)
 There are   524 symmetry adapted cartesian basis functions of A   symmetry.
 There are   490 symmetry adapted basis functions of A   symmetry.
   490 basis functions,   852 primitive gaussians,   524 cartesian basis functions
    64 alpha electrons       63 beta electrons
       nuclear repulsion energy      1309.8061088076 Hartrees.
 NAtoms=   28 NActive=   28 NUniq=   28 SFac= 1.00D+00 NAtFMM=   60 NAOKFM=F Big=F
 Integral buffers will be    131072 words long.
 Raffenetti 2 integral format.
 Two-electron integral symmetry is turned on.
 Nuclear repulsion after empirical dispersion term =     1309.7863432136 Hartrees.
 One-electron integrals computed using PRISM.
 NBasis=   490 RedAO= T EigKep=  3.27D-06  NBF=   490
 NBsUse=   490 1.00D-06 EigRej= -1.00D+00 NBFU=   490
 ExpMin= 2.97D-02 ExpMax= 1.17D+04 ExpMxC= 4.01D+02 IAcc=3 IRadAn=         5 AccDes= 0.00D+00
 Harris functional with IExCor= 1009 and IRadAn=       5 diagonalized for initial guess.
 HarFok:  IExCor= 1009 AccDes= 0.00D+00 IRadAn=         5 IDoV= 1 UseB2=F ITyADJ=14
 ICtDFT=  3500011 ScaDFX=  1.000000  1.000000  1.000000  1.000000
 FoFCou: FMM=F IPFlag=           0 FMFlag=      100000 FMFlg1=           0
         NFxFlg=           0 DoJE=T BraDBF=F KetDBF=T FulRan=T
         wScrn=  0.000000 ICntrl=       500 IOpCl=  0 I1Cent=   200000004 NGrid=           0
         NMat0=    1 NMatS0=      1 NMatT0=    0 NMatD0=    1 NMtDS0=    0 NMtDT0=    0
 Petite list used in FoFCou.
 Initial guess <Sx>= 0.0000 <Sy>= 0.0000 <Sz>= 0.5000 <S**2>= 0.7500 S= 0.5000
 Requested convergence on RMS density matrix=1.00D-08 within 128 cycles.
 Requested convergence on MAX density matrix=1.00D-06.
 Requested convergence on             energy=1.00D-06.
 No special actions if energy rises.
 Restarting incremental Fock formation.
 SCF Done:  E(UPBE1PBE) =  -909.503532734     A.U. after   35 cycles
            NFock= 35  Conv=0.94D-08     -V/T= 2.0055
 <Sx>= 0.0000 <Sy>= 0.0000 <Sz>= 0.5000 <S**2>= 0.7879 S= 0.5188
 <L.S>= 0.000000000000E+00
 Annihilation of the first spin contaminant:
 S**2 before annihilation     0.7879,   after     0.7509

 **********************************************************************

            Population analysis using the SCF Density.

 **********************************************************************

 Orbital symmetries:
 Alpha Orbitals:
       Occupied  (A) (A) (A) (A) (A) (A) (A) (A) (A) (A) (A) (A)
                 (A) (A) (A) (A) (A) (A) (A) (A) (A) (A) (A) (A)
                 (A) (A) (A) (A) (A) (A) (A) (A) (A) (A) (A) (A)
                 (A) (A) (A) (A) (A) (A) (A) (A) (A) (A) (A) (A)
                 (A) (A) (A) (A) (A) (A) (A) (A) (A) (A) (A) (A)
                 (A) (A) (A) (A)
       Virtual   (A) (A) (A) (A) (A) (A) (A) (A) (A) (A) (A) (A)
                 (A) (A) (A) (A) (A) (A) (A) (A) (A) (A) (A) (A)
                 (A) (A) (A) (A) (A) (A) (A) (A) (A) (A) (A) (A)
                 (A) (A) (A) (A) (A) (A) (A) (A) (A) (A) (A) (A)
                 (A) (A) (A) (A) (A) (A) (A) (A) (A) (A) (A) (A)
                 (A) (A) (A) (A) (A) (A) (A) (A) (A) (A) (A) (A)
                 (A) (A) (A) (A) (A) (A) (A) (A) (A) (A) (A) (A)
                 (A) (A) (A) (A) (A) (A) (A) (A) (A) (A) (A) (A)
                 (A) (A) (A) (A) (A) (A) (A) (A) (A) (A) (A) (A)
                 (A) (A) (A) (A) (A) (A) (A) (A) (A) (A) (A) (A)
                 (A) (A) (A) (A) (A) (A) (A) (A) (A) (A) (A) (A)
                 (A) (A) (A) (A) (A) (A) (A) (A) (A) (A) (A) (A)
                 (A) (A) (A) (A) (A) (A) (A) (A) (A) (A) (A) (A)
                 (A) (A) (A) (A) (A) (A) (A) (A) (A) (A) (A) (A)
                 (A) (A) (A) (A) (A) (A) (A) (A) (A) (A) (A) (A)
                 (A) (A) (A) (A) (A) (A) (A) (A) (A) (A) (A) (A)
                 (A) (A) (A) (A) (A) (A) (A) (A) (A) (A) (A) (A)
                 (A) (A) (A) (A) (A) (A) (A) (A) (A) (A) (A) (A)
                 (A) (A) (A) (A) (A) (A) (A) (A) (A) (A) (A) (A)
                 (A) (A) (A) (A) (A) (A) (A) (A) (A) (A) (A) (A)
                 (A) (A) (A) (A) (A) (A) (A) (A) (A) (A) (A) (A)
                 (A) (A) (A) (A) (A) (A) (A) (A) (A) (A) (A) (A)
                 (A) (A) (A) (A) (A) (A) (A) (A) (A) (A) (A) (A)
                 (A) (A) (A) (A) (A) (A) (A) (A) (A) (A) (A) (A)
                 (A) (A) (A) (A) (A) (A) (A) (A) (A) (A) (A) (A)
                 (A) (A) (A) (A) (A) (A) (A) (A) (A) (A) (A) (A)
                 (A) (A) (A) (A) (A) (A) (A) (A) (A) (A) (A) (A)
                 (A) (A) (A) (A) (A) (A) (A) (A) (A) (A) (A) (A)
                 (A) (A) (A) (A) (A) (A) (A) (A) (A) (A) (A) (A)
                 (A) (A) (A) (A) (A) (A) (A) (A) (A) (A) (A) (A)
                 (A) (A) (A) (A) (A) (A) (A) (A) (A) (A) (A) (A)
                 (A) (A) (A) (A) (A) (A) (A) (A) (A) (A) (A) (A)
                 (A) (A) (A) (A) (A) (A) (A) (A) (A) (A) (A) (A)
                 (A) (A) (A) (A) (A) (A) (A) (A) (A) (A) (A) (A)
                 (A) (A) (A) (A) (A) (A) (A) (A) (A) (A) (A) (A)
                 (A) (A) (A) (A) (A) (A)
 Beta  Orbitals:
       Occupied  (A) (A) (A) (A) (A) (A) (A) (A) (A) (A) (A) (A)
                 (A) (A) (A) (A) (A) (A) (A) (A) (A) (A) (A) (A)
                 (A) (A) (A) (A) (A) (A) (A) (A) (A) (A) (A) (A)
                 (A) (A) (A) (A) (A) (A) (A) (A) (A) (A) (A) (A)
                 (A) (A) (A) (A) (A) (A) (A) (A) (A) (A) (A) (A)
                 (A) (A) (A)
       Virtual   (A) (A) (A) (A) (A) (A) (A) (A) (A) (A) (A) (A)
                 (A) (A) (A) (A) (A) (A) (A) (A) (A) (A) (A) (A)
                 (A) (A) (A) (A) (A) (A) (A) (A) (A) (A) (A) (A)
                 (A) (A) (A) (A) (A) (A) (A) (A) (A) (A) (A) (A)
                 (A) (A) (A) (A) (A) (A) (A) (A) (A) (A) (A) (A)
                 (A) (A) (A) (A) (A) (A) (A) (A) (A) (A) (A) (A)
                 (A) (A) (A) (A) (A) (A) (A) (A) (A) (A) (A) (A)
                 (A) (A) (A) (A) (A) (A) (A) (A) (A) (A) (A) (A)
                 (A) (A) (A) (A) (A) (A) (A) (A) (A) (A) (A) (A)
                 (A) (A) (A) (A) (A) (A) (A) (A) (A) (A) (A) (A)
                 (A) (A) (A) (A) (A) (A) (A) (A) (A) (A) (A) (A)
                 (A) (A) (A) (A) (A) (A) (A) (A) (A) (A) (A) (A)
                 (A) (A) (A) (A) (A) (A) (A) (A) (A) (A) (A) (A)
                 (A) (A) (A) (A) (A) (A) (A) (A) (A) (A) (A) (A)
                 (A) (A) (A) (A) (A) (A) (A) (A) (A) (A) (A) (A)
                 (A) (A) (A) (A) (A) (A) (A) (A) (A) (A) (A) (A)
                 (A) (A) (A) (A) (A) (A) (A) (A) (A) (A) (A) (A)
                 (A) (A) (A) (A) (A) (A) (A) (A) (A) (A) (A) (A)
                 (A) (A) (A) (A) (A) (A) (A) (A) (A) (A) (A) (A)
                 (A) (A) (A) (A) (A) (A) (A) (A) (A) (A) (A) (A)
                 (A) (A) (A) (A) (A) (A) (A) (A) (A) (A) (A) (A)
                 (A) (A) (A) (A) (A) (A) (A) (A) (A) (A) (A) (A)
                 (A) (A) (A) (A) (A) (A) (A) (A) (A) (A) (A) (A)
                 (A) (A) (A) (A) (A) (A) (A) (A) (A) (A) (A) (A)
                 (A) (A) (A) (A) (A) (A) (A) (A) (A) (A) (A) (A)
                 (A) (A) (A) (A) (A) (A) (A) (A) (A) (A) (A) (A)
                 (A) (A) (A) (A) (A) (A) (A) (A) (A) (A) (A) (A)
                 (A) (A) (A) (A) (A) (A) (A) (A) (A) (A) (A) (A)
                 (A) (A) (A) (A) (A) (A) (A) (A) (A) (A) (A) (A)
                 (A) (A) (A) (A) (A) (A) (A) (A) (A) (A) (A) (A)
                 (A) (A) (A) (A) (A) (A) (A) (A) (A) (A) (A) (A)
                 (A) (A) (A) (A) (A) (A) (A) (A) (A) (A) (A) (A)
                 (A) (A) (A) (A) (A) (A) (A) (A) (A) (A) (A) (A)
                 (A) (A) (A) (A) (A) (A) (A) (A) (A) (A) (A) (A)
                 (A) (A) (A) (A) (A) (A) (A) (A) (A) (A) (A) (A)
                 (A) (A) (A) (A) (A) (A) (A)
 The electronic state is 2-A.
 Alpha  occ. eigenvalues --  -19.29398 -19.26864 -19.26046 -19.25341 -19.22233
 Alpha  occ. eigenvalues --  -19.21696 -14.54069 -14.41910 -10.39185 -10.37471
 Alpha  occ. eigenvalues --  -10.37096 -10.35248 -10.32476 -10.32026 -10.31774
 Alpha  occ. eigenvalues --  -10.31319 -10.31256  -1.15740  -1.12816  -1.11255
 Alpha  occ. eigenvalues --   -1.09111  -1.08880  -1.06180  -1.03944  -0.96311
 Alpha  occ. eigenvalues --   -0.87550  -0.83582  -0.81712  -0.74824  -0.72988
 Alpha  occ. eigenvalues --   -0.68646  -0.65818  -0.65196  -0.62002  -0.60936
 Alpha  occ. eigenvalues --   -0.58988  -0.56865  -0.55305  -0.53973  -0.53522
 Alpha  occ. eigenvalues --   -0.51837  -0.51140  -0.50421  -0.49325  -0.48728
 Alpha  occ. eigenvalues --   -0.47454  -0.46932  -0.45593  -0.45399  -0.43490
 Alpha  occ. eigenvalues --   -0.42944  -0.41422  -0.39389  -0.39180  -0.36586
 Alpha  occ. eigenvalues --   -0.35019  -0.34388  -0.33018  -0.32332  -0.31255
 Alpha  occ. eigenvalues --   -0.30976  -0.30622  -0.29611  -0.29285
 Alpha virt. eigenvalues --   -0.07877  -0.02743  -0.02543  -0.01813  -0.00370
 Alpha virt. eigenvalues --    0.00341   0.00886   0.01746   0.02011   0.03044
 Alpha virt. eigenvalues --    0.03414   0.04099   0.04869   0.05625   0.05720
 Alpha virt. eigenvalues --    0.05948   0.06488   0.07010   0.07246   0.07596
 Alpha virt. eigenvalues --    0.07888   0.08067   0.08679   0.08864   0.09142
 Alpha virt. eigenvalues --    0.09613   0.09756   0.09902   0.10341   0.10654
 Alpha virt. eigenvalues --    0.11021   0.11249   0.11425   0.11767   0.12094
 Alpha virt. eigenvalues --    0.12327   0.12785   0.13063   0.13471   0.14731
 Alpha virt. eigenvalues --    0.15036   0.15325   0.15411   0.15797   0.16158
 Alpha virt. eigenvalues --    0.16347   0.17019   0.17674   0.18017   0.18367
 Alpha virt. eigenvalues --    0.18596   0.18755   0.19069   0.19930   0.20074
 Alpha virt. eigenvalues --    0.20555   0.20831   0.21160   0.21375   0.22034
 Alpha virt. eigenvalues --    0.22860   0.22915   0.23539   0.23738   0.24128
 Alpha virt. eigenvalues --    0.24444   0.24524   0.24619   0.24847   0.25296
 Alpha virt. eigenvalues --    0.25897   0.26000   0.26222   0.26486   0.26904
 Alpha virt. eigenvalues --    0.27166   0.27409   0.28335   0.28447   0.28675
 Alpha virt. eigenvalues --    0.29423   0.29726   0.30044   0.30443   0.30541
 Alpha virt. eigenvalues --    0.30927   0.31410   0.31842   0.31978   0.32464
 Alpha virt. eigenvalues --    0.32991   0.33317   0.33693   0.33806   0.34547
 Alpha virt. eigenvalues --    0.34981   0.35259   0.35441   0.35980   0.36579
 Alpha virt. eigenvalues --    0.37132   0.37505   0.37759   0.38021   0.38694
 Alpha virt. eigenvalues --    0.39338   0.39531   0.40188   0.40331   0.40735
 Alpha virt. eigenvalues --    0.41559   0.42152   0.42663   0.43263   0.43835
 Alpha virt. eigenvalues --    0.44287   0.44904   0.45464   0.45746   0.46180
 Alpha virt. eigenvalues --    0.47323   0.47516   0.48141   0.48878   0.49201
 Alpha virt. eigenvalues --    0.49582   0.50392   0.51332   0.51530   0.52017
 Alpha virt. eigenvalues --    0.52866   0.53899   0.54195   0.54906   0.55108
 Alpha virt. eigenvalues --    0.55434   0.55900   0.56538   0.57492   0.57618
 Alpha virt. eigenvalues --    0.58578   0.59030   0.59845   0.60241   0.60670
 Alpha virt. eigenvalues --    0.61033   0.61586   0.61802   0.62571   0.62989
 Alpha virt. eigenvalues --    0.63606   0.64164   0.64525   0.64653   0.64914
 Alpha virt. eigenvalues --    0.65359   0.65626   0.66461   0.67113   0.67698
 Alpha virt. eigenvalues --    0.67989   0.68902   0.69195   0.69833   0.70301
 Alpha virt. eigenvalues --    0.70459   0.71291   0.71980   0.72675   0.72952
 Alpha virt. eigenvalues --    0.73596   0.73751   0.74293   0.74621   0.74994
 Alpha virt. eigenvalues --    0.76178   0.76680   0.77671   0.78390   0.79015
 Alpha virt. eigenvalues --    0.79878   0.80359   0.81269   0.82431   0.82811
 Alpha virt. eigenvalues --    0.83091   0.83794   0.84305   0.85296   0.85824
 Alpha virt. eigenvalues --    0.86412   0.87408   0.88267   0.88868   0.89220
 Alpha virt. eigenvalues --    0.89665   0.90339   0.92553   0.93010   0.93833
 Alpha virt. eigenvalues --    0.94682   0.94871   0.95810   0.96640   0.97508
 Alpha virt. eigenvalues --    0.98351   0.99482   1.00350   1.01317   1.02155
 Alpha virt. eigenvalues --    1.02890   1.03368   1.04413   1.05751   1.06208
 Alpha virt. eigenvalues --    1.07002   1.07870   1.08651   1.10475   1.10872
 Alpha virt. eigenvalues --    1.12335   1.12765   1.14088   1.14592   1.15192
 Alpha virt. eigenvalues --    1.15693   1.16802   1.17699   1.18163   1.19524
 Alpha virt. eigenvalues --    1.19729   1.21198   1.21809   1.22077   1.24536
 Alpha virt. eigenvalues --    1.25383   1.26163   1.26273   1.28842   1.29509
 Alpha virt. eigenvalues --    1.30350   1.30793   1.32134   1.32634   1.34153
 Alpha virt. eigenvalues --    1.34725   1.35301   1.36048   1.36734   1.38716
 Alpha virt. eigenvalues --    1.38952   1.39907   1.41928   1.42850   1.43789
 Alpha virt. eigenvalues --    1.45819   1.46495   1.47118   1.47661   1.48719
 Alpha virt. eigenvalues --    1.49319   1.49688   1.50501   1.51433   1.51929
 Alpha virt. eigenvalues --    1.52664   1.53100   1.54284   1.55147   1.56742
 Alpha virt. eigenvalues --    1.58157   1.58925   1.59421   1.60419   1.61281
 Alpha virt. eigenvalues --    1.61752   1.63289   1.64743   1.66043   1.66678
 Alpha virt. eigenvalues --    1.67894   1.68082   1.69223   1.70101   1.71521
 Alpha virt. eigenvalues --    1.72182   1.72561   1.73451   1.74031   1.74434
 Alpha virt. eigenvalues --    1.75760   1.76140   1.76749   1.78662   1.80335
 Alpha virt. eigenvalues --    1.80982   1.81901   1.82916   1.84645   1.85304
 Alpha virt. eigenvalues --    1.85826   1.86508   1.87869   1.89273   1.89647
 Alpha virt. eigenvalues --    1.90995   1.91275   1.91800   1.93148   1.94708
 Alpha virt. eigenvalues --    1.95321   1.96381   1.97901   1.99508   2.00246
 Alpha virt. eigenvalues --    2.00507   2.01858   2.03583   2.04113   2.06034
 Alpha virt. eigenvalues --    2.06274   2.06659   2.08003   2.10771   2.11122
 Alpha virt. eigenvalues --    2.13411   2.13838   2.14359   2.15784   2.16847
 Alpha virt. eigenvalues --    2.18998   2.20195   2.21841   2.22588   2.24608
 Alpha virt. eigenvalues --    2.26048   2.28140   2.29088   2.29719   2.31311
 Alpha virt. eigenvalues --    2.32547   2.33222   2.35185   2.35715   2.36319
 Alpha virt. eigenvalues --    2.39097   2.40607   2.40946   2.42475   2.43528
 Alpha virt. eigenvalues --    2.43913   2.45305   2.48285   2.49222   2.49936
 Alpha virt. eigenvalues --    2.51416   2.53229   2.54148   2.54817   2.57076
 Alpha virt. eigenvalues --    2.57253   2.60144   2.61041   2.63797   2.64095
 Alpha virt. eigenvalues --    2.65697   2.66564   2.68801   2.71216   2.71601
 Alpha virt. eigenvalues --    2.74300   2.75174   2.76119   2.79843   2.83162
 Alpha virt. eigenvalues --    2.84254   2.86869   2.89044   2.90212   2.95158
 Alpha virt. eigenvalues --    2.96492   2.99978   3.02407   3.09242   3.11549
 Alpha virt. eigenvalues --    3.15955   3.20554   3.23289   3.27186   3.29496
 Alpha virt. eigenvalues --    3.33418   3.36608   3.37319   3.37761   3.42184
 Alpha virt. eigenvalues --    3.43609   3.44820   3.46563   3.47633   3.48395
 Alpha virt. eigenvalues --    3.50168   3.50505   3.51651   3.55198   3.56609
 Alpha virt. eigenvalues --    3.57143   3.57931   3.59476   3.59904   3.61982
 Alpha virt. eigenvalues --    3.63494   3.64701   3.68610   3.71535   3.74931
 Alpha virt. eigenvalues --    3.75868   3.77765   3.81872   3.85763   3.90198
 Alpha virt. eigenvalues --    3.97658   3.99497   4.03758   4.08610   4.41705
 Alpha virt. eigenvalues --    4.58741
  Beta  occ. eigenvalues --  -19.29371 -19.26046 -19.25647 -19.25335 -19.22192
  Beta  occ. eigenvalues --  -19.21728 -14.53405 -14.41607 -10.39280 -10.37475
  Beta  occ. eigenvalues --  -10.37351 -10.35430 -10.32477 -10.31957 -10.31766
  Beta  occ. eigenvalues --  -10.31255 -10.30777  -1.15508  -1.11805  -1.09723
  Beta  occ. eigenvalues --   -1.09079  -1.08851  -1.06048  -1.03418  -0.95362
  Beta  occ. eigenvalues --   -0.86814  -0.83513  -0.81254  -0.74546  -0.72694
  Beta  occ. eigenvalues --   -0.68365  -0.65583  -0.65016  -0.61696  -0.60666
  Beta  occ. eigenvalues --   -0.58822  -0.56450  -0.55223  -0.53544  -0.53040
  Beta  occ. eigenvalues --   -0.51480  -0.50701  -0.49655  -0.49091  -0.48020
  Beta  occ. eigenvalues --   -0.46896  -0.46469  -0.45414  -0.43557  -0.43209
  Beta  occ. eigenvalues --   -0.42142  -0.40697  -0.39189  -0.39019  -0.36204
  Beta  occ. eigenvalues --   -0.34030  -0.32932  -0.32599  -0.31083  -0.30707
  Beta  occ. eigenvalues --   -0.30035  -0.29511  -0.27769
  Beta virt. eigenvalues --   -0.21587  -0.06159  -0.02547  -0.01928  -0.01795
  Beta virt. eigenvalues --   -0.00355   0.00389   0.00938   0.01770   0.02056
  Beta virt. eigenvalues --    0.03072   0.03427   0.04142   0.04906   0.05709
  Beta virt. eigenvalues --    0.05771   0.05992   0.06596   0.07009   0.07272
  Beta virt. eigenvalues --    0.07647   0.07922   0.08135   0.08896   0.09084
  Beta virt. eigenvalues --    0.09208   0.09730   0.09874   0.10026   0.10389
  Beta virt. eigenvalues --    0.10830   0.11074   0.11332   0.11505   0.11919
  Beta virt. eigenvalues --    0.12314   0.12365   0.12829   0.13205   0.13529
  Beta virt. eigenvalues --    0.14816   0.15104   0.15349   0.15473   0.15886
  Beta virt. eigenvalues --    0.16215   0.16433   0.17064   0.17713   0.18070
  Beta virt. eigenvalues --    0.18490   0.18623   0.18861   0.19195   0.20023
  Beta virt. eigenvalues --    0.20212   0.20610   0.20888   0.21252   0.21446
  Beta virt. eigenvalues --    0.22176   0.22919   0.23002   0.23698   0.23788
  Beta virt. eigenvalues --    0.24288   0.24546   0.24635   0.24768   0.24948
  Beta virt. eigenvalues --    0.25347   0.25966   0.26102   0.26293   0.26530
  Beta virt. eigenvalues --    0.26957   0.27316   0.27478   0.28445   0.28569
  Beta virt. eigenvalues --    0.28804   0.29497   0.29783   0.30106   0.30517
  Beta virt. eigenvalues --    0.30668   0.31017   0.31490   0.31905   0.32084
  Beta virt. eigenvalues --    0.32597   0.33042   0.33369   0.33793   0.33899
  Beta virt. eigenvalues --    0.34612   0.35147   0.35369   0.35493   0.36063
  Beta virt. eigenvalues --    0.36698   0.37211   0.37572   0.37834   0.38047
  Beta virt. eigenvalues --    0.38832   0.39472   0.39609   0.40307   0.40401
  Beta virt. eigenvalues --    0.40827   0.41646   0.42259   0.42756   0.43417
  Beta virt. eigenvalues --    0.43943   0.44366   0.45026   0.45547   0.45818
  Beta virt. eigenvalues --    0.46313   0.47375   0.47578   0.48242   0.49024
  Beta virt. eigenvalues --    0.49349   0.49736   0.50514   0.51575   0.51600
  Beta virt. eigenvalues --    0.52061   0.52939   0.54081   0.54246   0.54978
  Beta virt. eigenvalues --    0.55208   0.55518   0.56076   0.56631   0.57596
  Beta virt. eigenvalues --    0.57659   0.58658   0.59119   0.59906   0.60318
  Beta virt. eigenvalues --    0.60832   0.61160   0.61629   0.61936   0.62740
  Beta virt. eigenvalues --    0.63154   0.63718   0.64229   0.64642   0.64733
  Beta virt. eigenvalues --    0.64964   0.65553   0.65737   0.66619   0.67200
  Beta virt. eigenvalues --    0.67760   0.68225   0.69084   0.69411   0.69921
  Beta virt. eigenvalues --    0.70425   0.70658   0.71363   0.72098   0.72787
  Beta virt. eigenvalues --    0.73098   0.73716   0.73911   0.74486   0.74774
  Beta virt. eigenvalues --    0.75161   0.76297   0.76939   0.77777   0.78500
  Beta virt. eigenvalues --    0.79120   0.80042   0.80453   0.81350   0.82508
  Beta virt. eigenvalues --    0.82972   0.83275   0.83932   0.84425   0.85401
  Beta virt. eigenvalues --    0.85894   0.86537   0.87506   0.88349   0.89055
  Beta virt. eigenvalues --    0.89357   0.89831   0.90611   0.92759   0.93148
  Beta virt. eigenvalues --    0.94197   0.94789   0.95037   0.95887   0.96767
  Beta virt. eigenvalues --    0.97624   0.98577   0.99623   1.00508   1.01649
  Beta virt. eigenvalues --    1.02345   1.03177   1.03575   1.05130   1.05841
  Beta virt. eigenvalues --    1.06250   1.07290   1.07963   1.08864   1.10575
  Beta virt. eigenvalues --    1.11007   1.12432   1.12910   1.14177   1.14684
  Beta virt. eigenvalues --    1.15346   1.15910   1.16915   1.17898   1.18385
  Beta virt. eigenvalues --    1.19644   1.19907   1.21475   1.21880   1.22137
  Beta virt. eigenvalues --    1.24679   1.25496   1.26339   1.26480   1.28888
  Beta virt. eigenvalues --    1.29613   1.30568   1.30873   1.32282   1.32871
  Beta virt. eigenvalues --    1.34279   1.34791   1.35611   1.36213   1.37079
  Beta virt. eigenvalues --    1.39058   1.39313   1.40096   1.42018   1.43101
  Beta virt. eigenvalues --    1.44080   1.45945   1.46568   1.47475   1.47957
  Beta virt. eigenvalues --    1.48976   1.49544   1.49985   1.50748   1.51702
  Beta virt. eigenvalues --    1.52258   1.53074   1.53547   1.54501   1.55226
  Beta virt. eigenvalues --    1.56912   1.58295   1.59018   1.59579   1.60535
  Beta virt. eigenvalues --    1.61633   1.61952   1.63379   1.64889   1.66190
  Beta virt. eigenvalues --    1.66829   1.68173   1.68294   1.69335   1.70264
  Beta virt. eigenvalues --    1.71768   1.72337   1.72732   1.73720   1.74346
  Beta virt. eigenvalues --    1.74630   1.75834   1.76336   1.76931   1.78817
  Beta virt. eigenvalues --    1.80544   1.81087   1.82063   1.83037   1.84910
  Beta virt. eigenvalues --    1.85416   1.85902   1.86554   1.87942   1.89406
  Beta virt. eigenvalues --    1.89798   1.91060   1.91416   1.91931   1.93246
  Beta virt. eigenvalues --    1.94908   1.95397   1.96459   1.98015   1.99621
  Beta virt. eigenvalues --    2.00324   2.00777   2.01924   2.03796   2.04215
  Beta virt. eigenvalues --    2.06191   2.06642   2.06870   2.08138   2.10941
  Beta virt. eigenvalues --    2.11213   2.13568   2.13972   2.14640   2.15981
  Beta virt. eigenvalues --    2.17080   2.19209   2.20332   2.21959   2.22712
  Beta virt. eigenvalues --    2.24941   2.26159   2.28221   2.29190   2.29790
  Beta virt. eigenvalues --    2.31416   2.32666   2.33310   2.35343   2.35858
  Beta virt. eigenvalues --    2.36409   2.39299   2.40792   2.41130   2.42567
  Beta virt. eigenvalues --    2.43842   2.44556   2.45509   2.48594   2.49514
  Beta virt. eigenvalues --    2.50216   2.51663   2.53580   2.54255   2.55138
  Beta virt. eigenvalues --    2.57284   2.57790   2.60314   2.61284   2.63995
  Beta virt. eigenvalues --    2.64199   2.66115   2.66948   2.68915   2.71529
  Beta virt. eigenvalues --    2.72029   2.74766   2.75407   2.76261   2.80096
  Beta virt. eigenvalues --    2.83349   2.84348   2.87040   2.89655   2.90411
  Beta virt. eigenvalues --    2.95268   2.96617   3.00300   3.02588   3.09372
  Beta virt. eigenvalues --    3.11617   3.16258   3.20775   3.23444   3.27318
  Beta virt. eigenvalues --    3.30042   3.36527   3.36812   3.39856   3.40435
  Beta virt. eigenvalues --    3.42483   3.43660   3.44790   3.46520   3.47759
  Beta virt. eigenvalues --    3.48435   3.50246   3.50717   3.51897   3.55353
  Beta virt. eigenvalues --    3.56743   3.57366   3.58080   3.59850   3.60105
  Beta virt. eigenvalues --    3.62231   3.63562   3.64763   3.69049   3.71778
  Beta virt. eigenvalues --    3.74990   3.76082   3.77960   3.82388   3.85857
  Beta virt. eigenvalues --    3.90269   3.98044   3.99509   4.03791   4.08642
  Beta virt. eigenvalues --    4.41745   4.58799
          Condensed to atoms (all electrons):
               1          2          3          4          5          6
     1  C    9.362245  -1.980559   0.148724  -0.011492   0.250572  -0.199631
     2  C   -1.980559   8.499808  -2.468158  -0.335791  -0.630575  -0.101989
     3  C    0.148724  -2.468158  12.375602   0.255002   0.319066   0.040439
     4  O   -0.011492  -0.335791   0.255002   8.649209  -0.120824   0.017960
     5  H    0.250572  -0.630575   0.319066  -0.120824   1.923433  -0.032367
     6  O   -0.199631  -0.101989   0.040439   0.017960  -0.032367   9.551201
     7  H    0.004293   0.025674  -0.470350   0.007166   0.169222  -0.238653
     8  N    0.090365   0.789253  -1.590776  -0.083715  -0.246746  -0.151169
     9  C   -1.437261   0.671725  -2.680937   0.053938  -0.327978   0.074453
    10  H   -1.213617   0.561158   0.065825   0.024689  -0.129541   0.031199
    11  O   -0.521473   0.076183   0.012625  -0.023533   0.049396   0.036485
    12  C    0.079449  -0.073455   0.172524  -0.012556   0.059270  -0.053895
    13  H   -0.069968   0.244058   0.272508  -0.002786  -0.009397  -0.273589
    14  O   -0.059692  -0.008630  -0.087808   0.000165   0.015188  -0.037062
    15  H    0.061350  -0.011919   0.119940  -0.001525   0.018005   0.102986
    16  H    0.045723  -0.037437  -0.017370   0.000235  -0.006565  -0.037336
    17  H    0.072110  -0.034265  -0.018281  -0.002435   0.004225   0.001797
    18  H    0.070983  -0.055625  -0.068951   0.313775   0.002252  -0.000882
    19  H    0.039838  -0.038974   0.067284   0.000846   0.022547   0.024364
    20  C    0.003362   0.153013  -1.301153  -0.017584   0.029956   0.272088
    21  C    0.005184   0.024234  -0.244025   0.004254  -0.045049  -0.041135
    22  C    0.002406   0.008638  -0.048526  -0.001104   0.004169   0.010378
    23  N    0.027176   0.012655  -0.023152  -0.003736  -0.005955  -0.001057
    24  C   -0.131932  -0.096569   0.248795   0.012755   0.077387  -0.022030
    25  H    0.101371  -0.096785   0.132086  -0.000909  -0.015037  -0.210753
    26  H    0.000009  -0.001331   0.044074   0.000248  -0.001215   0.003863
    27  O   -0.000418  -0.000066  -0.007630  -0.000017   0.000265   0.000493
    28  O    0.036385   0.019958   0.143916  -0.061847  -0.003018  -0.007138
               7          8          9         10         11         12
     1  C    0.004293   0.090365  -1.437261  -1.213617  -0.521473   0.079449
     2  C    0.025674   0.789253   0.671725   0.561158   0.076183  -0.073455
     3  C   -0.470350  -1.590776  -2.680937   0.065825   0.012625   0.172524
     4  O    0.007166  -0.083715   0.053938   0.024689  -0.023533  -0.012556
     5  H    0.169222  -0.246746  -0.327978  -0.129541   0.049396   0.059270
     6  O   -0.238653  -0.151169   0.074453   0.031199   0.036485  -0.053895
     7  H    2.342458  -0.376939  -0.110466  -0.000140   0.018756   0.022783
     8  N   -0.376939   8.607795   0.351510  -0.015485  -0.018823   0.005139
     9  C   -0.110466   0.351510   9.434944   0.191334   0.217258  -0.378949
    10  H   -0.000140  -0.015485   0.191334   2.007041  -0.067048  -0.131900
    11  O    0.018756  -0.018823   0.217258  -0.067048   8.591816  -0.014651
    12  C    0.022783   0.005139  -0.378949  -0.131900  -0.014651   4.942432
    13  H    0.010946  -0.033903  -0.767161   0.105464  -0.022732  -0.056184
    14  O    0.001471   0.002435   0.180465   0.036970   0.000899   0.038993
    15  H    0.002610   0.003789  -0.391658  -0.055262   0.000096   0.285434
    16  H    0.002798  -0.009307   0.183399   0.015170   0.001284   0.069744
    17  H    0.000666   0.004368  -0.022411  -0.082604   0.361916   0.002562
    18  H    0.019115  -0.012804   0.007360  -0.002758  -0.004965   0.000984
    19  H    0.001148   0.008569  -0.146068  -0.011562  -0.001790   0.036391
    20  C    0.017482   0.403724   0.237299  -0.005688   0.001478  -0.074919
    21  C   -0.041859  -0.374506   0.077201   0.001161   0.000008  -0.003793
    22  C    0.004372   0.013388   0.006191   0.000628   0.000261  -0.006154
    23  N   -0.005568   0.040661   0.000224   0.000435  -0.000074  -0.000765
    24  C    0.094236  -0.427090  -0.171775   0.002805   0.009309   0.017638
    25  H    0.018778   0.077088  -0.147005   0.000186  -0.003506   0.047807
    26  H   -0.001280   0.071067   0.003830   0.000193   0.000044  -0.002063
    27  O   -0.000282  -0.020523  -0.000185  -0.000043   0.000004   0.000143
    28  O    0.034913  -0.182456  -0.006732   0.000526  -0.001713   0.000991
              13         14         15         16         17         18
     1  C   -0.069968  -0.059692   0.061350   0.045723   0.072110   0.070983
     2  C    0.244058  -0.008630  -0.011919  -0.037437  -0.034265  -0.055625
     3  C    0.272508  -0.087808   0.119940  -0.017370  -0.018281  -0.068951
     4  O   -0.002786   0.000165  -0.001525   0.000235  -0.002435   0.313775
     5  H   -0.009397   0.015188   0.018005  -0.006565   0.004225   0.002252
     6  O   -0.273589  -0.037062   0.102986  -0.037336   0.001797  -0.000882
     7  H    0.010946   0.001471   0.002610   0.002798   0.000666   0.019115
     8  N   -0.033903   0.002435   0.003789  -0.009307   0.004368  -0.012804
     9  C   -0.767161   0.180465  -0.391658   0.183399  -0.022411   0.007360
    10  H    0.105464   0.036970  -0.055262   0.015170  -0.082604  -0.002758
    11  O   -0.022732   0.000899   0.000096   0.001284   0.361916  -0.004965
    12  C   -0.056184   0.038993   0.285434   0.069744   0.002562   0.000984
    13  H    2.259657   0.026787  -0.103462  -0.028532  -0.020796   0.000845
    14  O    0.026787   8.328815  -0.179102  -0.034101  -0.001263  -0.000946
    15  H   -0.103462  -0.179102   1.738145  -0.333030   0.010297  -0.000070
    16  H   -0.028532  -0.034101  -0.333030   1.454980  -0.001503  -0.000382
    17  H   -0.020796  -0.001263   0.010297  -0.001503   0.609124   0.000107
    18  H    0.000845  -0.000946  -0.000070  -0.000382   0.000107   0.495432
    19  H    0.002967   0.256360   0.013641  -0.035491   0.000316   0.000850
    20  C   -0.025197   0.015820  -0.014841   0.023228   0.001762  -0.015991
    21  C   -0.002641  -0.005517  -0.000247  -0.000391  -0.000201   0.016978
    22  C    0.000714   0.002008  -0.000379   0.000544   0.000025  -0.008487
    23  N   -0.000337   0.000035   0.000032  -0.000342   0.000138  -0.000281
    24  C    0.003638  -0.002077   0.001932  -0.000126  -0.001437  -0.009666
    25  H   -0.003463   0.003795   0.002393   0.000543   0.000511   0.000475
    26  H    0.000106   0.000212  -0.000251   0.000199  -0.000022  -0.000486
    27  O   -0.000028  -0.000020   0.000009  -0.000002   0.000001   0.000450
    28  O   -0.000373  -0.000007   0.000171  -0.000107   0.000230   0.026801
              19         20         21         22         23         24
     1  C    0.039838   0.003362   0.005184   0.002406   0.027176  -0.131932
     2  C   -0.038974   0.153013   0.024234   0.008638   0.012655  -0.096569
     3  C    0.067284  -1.301153  -0.244025  -0.048526  -0.023152   0.248795
     4  O    0.000846  -0.017584   0.004254  -0.001104  -0.003736   0.012755
     5  H    0.022547   0.029956  -0.045049   0.004169  -0.005955   0.077387
     6  O    0.024364   0.272088  -0.041135   0.010378  -0.001057  -0.022030
     7  H    0.001148   0.017482  -0.041859   0.004372  -0.005568   0.094236
     8  N    0.008569   0.403724  -0.374506   0.013388   0.040661  -0.427090
     9  C   -0.146068   0.237299   0.077201   0.006191   0.000224  -0.171775
    10  H   -0.011562  -0.005688   0.001161   0.000628   0.000435   0.002805
    11  O   -0.001790   0.001478   0.000008   0.000261  -0.000074   0.009309
    12  C    0.036391  -0.074919  -0.003793  -0.006154  -0.000765   0.017638
    13  H    0.002967  -0.025197  -0.002641   0.000714  -0.000337   0.003638
    14  O    0.256360   0.015820  -0.005517   0.002008   0.000035  -0.002077
    15  H    0.013641  -0.014841  -0.000247  -0.000379   0.000032   0.001932
    16  H   -0.035491   0.023228  -0.000391   0.000544  -0.000342  -0.000126
    17  H    0.000316   0.001762  -0.000201   0.000025   0.000138  -0.001437
    18  H    0.000850  -0.015991   0.016978  -0.008487  -0.000281  -0.009666
    19  H    0.616037  -0.033300   0.019675  -0.000157  -0.000060   0.005063
    20  C   -0.033300   8.881930  -2.180691   0.232254  -0.102025  -0.916173
    21  C    0.019675  -2.180691   9.331968  -1.637406   0.314756   0.680870
    22  C   -0.000157   0.232254  -1.637406   7.821946  -0.163146  -0.778739
    23  N   -0.000060  -0.102025   0.314756  -0.163146   7.818439  -0.157004
    24  C    0.005063  -0.916173   0.680870  -0.778739  -0.157004   6.857681
    25  H    0.009063  -0.887662   0.042391  -0.167260   0.048807   0.067099
    26  H    0.000022   0.525896  -0.726751   0.048323  -0.083195  -0.119917
    27  O   -0.000267   0.069180  -0.154286   0.126125  -0.092964   0.051592
    28  O   -0.000784  -0.080555   0.016043   0.019025  -0.165097   0.176965
              25         26         27         28
     1  C    0.101371   0.000009  -0.000418   0.036385
     2  C   -0.096785  -0.001331  -0.000066   0.019958
     3  C    0.132086   0.044074  -0.007630   0.143916
     4  O   -0.000909   0.000248  -0.000017  -0.061847
     5  H   -0.015037  -0.001215   0.000265  -0.003018
     6  O   -0.210753   0.003863   0.000493  -0.007138
     7  H    0.018778  -0.001280  -0.000282   0.034913
     8  N    0.077088   0.071067  -0.020523  -0.182456
     9  C   -0.147005   0.003830  -0.000185  -0.006732
    10  H    0.000186   0.000193  -0.000043   0.000526
    11  O   -0.003506   0.000044   0.000004  -0.001713
    12  C    0.047807  -0.002063   0.000143   0.000991
    13  H   -0.003463   0.000106  -0.000028  -0.000373
    14  O    0.003795   0.000212  -0.000020  -0.000007
    15  H    0.002393  -0.000251   0.000009   0.000171
    16  H    0.000543   0.000199  -0.000002  -0.000107
    17  H    0.000511  -0.000022   0.000001   0.000230
    18  H    0.000475  -0.000486   0.000450   0.026801
    19  H    0.009063   0.000022  -0.000267  -0.000784
    20  C   -0.887662   0.525896   0.069180  -0.080555
    21  C    0.042391  -0.726751  -0.154286   0.016043
    22  C   -0.167260   0.048323   0.126125   0.019025
    23  N    0.048807  -0.083195  -0.092964  -0.165097
    24  C    0.067099  -0.119917   0.051592   0.176965
    25  H    2.884473  -0.194427   0.001890  -0.000010
    26  H   -0.194427   1.984695  -0.019179   0.002075
    27  O    0.001890  -0.019179   8.630238  -0.004408
    28  O   -0.000010   0.002075  -0.004408   8.805337
          Atomic-Atomic Spin Densities.
               1          2          3          4          5          6
     1  C    0.047483   0.007349  -0.046823  -0.004288   0.010805   0.012589
     2  C    0.007349   0.029428   0.007871  -0.001490  -0.000798   0.000041
     3  C   -0.046823   0.007871   0.084780   0.002201  -0.029921  -0.013901
     4  O   -0.004288  -0.001490   0.002201   0.014655  -0.001961  -0.000545
     5  H    0.010805  -0.000798  -0.029921  -0.001961   0.012434   0.003229
     6  O    0.012589   0.000041  -0.013901  -0.000545   0.003229   0.016356
     7  H    0.008133   0.000133  -0.028726   0.001119   0.003135  -0.001884
     8  N    0.000697  -0.001984  -0.088134  -0.000291   0.012366   0.005870
     9  C   -0.027335  -0.005964   0.030509   0.001749  -0.006514  -0.011600
    10  H   -0.014748  -0.004933   0.008133   0.001588  -0.002715  -0.001740
    11  O   -0.008422  -0.000540   0.004213   0.000443  -0.000798  -0.001328
    12  C    0.005936   0.002681  -0.007930  -0.000428   0.001494   0.002666
    13  H    0.001483   0.000364  -0.000917   0.000012  -0.000052   0.000875
    14  O    0.001682   0.000194  -0.002788  -0.000094   0.000851   0.001078
    15  H    0.001119   0.000855  -0.001556  -0.000021   0.000049   0.000787
    16  H   -0.000863  -0.000317   0.001351  -0.000015   0.000016  -0.000919
    17  H    0.003182   0.000872  -0.001825  -0.000173   0.000114   0.000427
    18  H    0.004374  -0.002776  -0.007664   0.000968   0.002741   0.000382
    19  H    0.002767  -0.000187  -0.002572  -0.000227   0.001349   0.001538
    20  C   -0.000743   0.005024   0.006640   0.000183  -0.002660   0.001161
    21  C    0.003092   0.001513   0.014664  -0.000001   0.000586   0.002365
    22  C    0.001336  -0.000666  -0.004032   0.000180   0.000655   0.000321
    23  N   -0.000033   0.000563   0.003205   0.000099  -0.000150   0.000369
    24  C    0.004411  -0.003272   0.006939  -0.000784   0.002546  -0.002581
    25  H   -0.004165  -0.000176   0.017492   0.000195  -0.001802  -0.006865
    26  H    0.000233  -0.000128  -0.005186   0.000002   0.000063   0.000413
    27  O    0.000012   0.000049  -0.000900  -0.000005  -0.000004   0.000001
    28  O   -0.002483   0.001647   0.006188   0.000114  -0.001677  -0.000310
               7          8          9         10         11         12
     1  C    0.008133   0.000697  -0.027335  -0.014748  -0.008422   0.005936
     2  C    0.000133  -0.001984  -0.005964  -0.004933  -0.000540   0.002681
     3  C   -0.028726  -0.088134   0.030509   0.008133   0.004213  -0.007930
     4  O    0.001119  -0.000291   0.001749   0.001588   0.000443  -0.000428
     5  H    0.003135   0.012366  -0.006514  -0.002715  -0.000798   0.001494
     6  O   -0.001884   0.005870  -0.011600  -0.001740  -0.001328   0.002666
     7  H    0.059089  -0.013870  -0.006000   0.000017  -0.001242   0.001078
     8  N   -0.013870   0.441824  -0.001278   0.000141   0.001075  -0.000003
     9  C   -0.006000  -0.001278   0.032335   0.008308   0.004900  -0.008826
    10  H    0.000017   0.000141   0.008308   0.011113   0.001769  -0.001878
    11  O   -0.001242   0.001075   0.004900   0.001769   0.004759  -0.001014
    12  C    0.001078  -0.000003  -0.008826  -0.001878  -0.001014   0.002776
    13  H   -0.000067   0.000065  -0.003284  -0.000241  -0.000519   0.000754
    14  O    0.000104   0.000787  -0.002513  -0.000337  -0.000089   0.000692
    15  H   -0.000117   0.000098  -0.002186  -0.000481  -0.000132   0.000856
    16  H    0.000218  -0.000298   0.002168   0.000020   0.000013  -0.001087
    17  H   -0.000014  -0.000107  -0.001977  -0.000824  -0.001404   0.000477
    18  H    0.002984  -0.000095  -0.001937  -0.000325  -0.000424   0.000348
    19  H    0.000251   0.001316  -0.004161  -0.000524  -0.000174   0.001090
    20  C    0.000099  -0.027722   0.000558  -0.000004  -0.000014   0.000533
    21  C    0.000847   0.001973  -0.001008   0.000182  -0.000065   0.000208
    22  C   -0.000666   0.008632  -0.000958  -0.000023  -0.000039   0.000144
    23  N    0.000979  -0.008705   0.000331  -0.000013   0.000003  -0.000047
    24  C    0.008494  -0.008773  -0.002863  -0.000465  -0.000457   0.001053
    25  H   -0.000858   0.003746   0.002548   0.000396   0.000326  -0.000428
    26  H   -0.000186  -0.009745  -0.000206  -0.000016  -0.000010   0.000037
    27  O    0.000151   0.001629  -0.000042   0.000002   0.000000   0.000015
    28  O   -0.004712   0.000013   0.001250   0.000056   0.000209  -0.000175
              13         14         15         16         17         18
     1  C    0.001483   0.001682   0.001119  -0.000863   0.003182   0.004374
     2  C    0.000364   0.000194   0.000855  -0.000317   0.000872  -0.002776
     3  C   -0.000917  -0.002788  -0.001556   0.001351  -0.001825  -0.007664
     4  O    0.000012  -0.000094  -0.000021  -0.000015  -0.000173   0.000968
     5  H   -0.000052   0.000851   0.000049   0.000016   0.000114   0.002741
     6  O    0.000875   0.001078   0.000787  -0.000919   0.000427   0.000382
     7  H   -0.000067   0.000104  -0.000117   0.000218  -0.000014   0.002984
     8  N    0.000065   0.000787   0.000098  -0.000298  -0.000107  -0.000095
     9  C   -0.003284  -0.002513  -0.002186   0.002168  -0.001977  -0.001937
    10  H   -0.000241  -0.000337  -0.000481   0.000020  -0.000824  -0.000325
    11  O   -0.000519  -0.000089  -0.000132   0.000013  -0.001404  -0.000424
    12  C    0.000754   0.000692   0.000856  -0.001087   0.000477   0.000348
    13  H    0.001713   0.000071   0.000103  -0.000116   0.000235  -0.000044
    14  O    0.000071   0.000084   0.000192  -0.000211   0.000021   0.000063
    15  H    0.000103   0.000192   0.000325  -0.000322   0.000056   0.000020
    16  H   -0.000116  -0.000211  -0.000322   0.000459   0.000009  -0.000004
    17  H    0.000235   0.000021   0.000056   0.000009   0.001111   0.000090
    18  H   -0.000044   0.000063   0.000020  -0.000004   0.000090   0.005079
    19  H    0.000056   0.000399   0.000238  -0.000270   0.000051   0.000189
    20  C    0.000248   0.000133   0.000098  -0.000054   0.000034  -0.001114
    21  C    0.000061   0.000371   0.000016  -0.000108  -0.000007  -0.000064
    22  C   -0.000086   0.000097   0.000003   0.000019   0.000015   0.001284
    23  N    0.000010  -0.000029  -0.000001   0.000005   0.000001  -0.000415
    24  C   -0.000028   0.000201   0.000050  -0.000041   0.000082   0.001587
    25  H    0.000018  -0.000761  -0.000127   0.000208  -0.000092  -0.000428
    26  H   -0.000026   0.000056   0.000007   0.000020   0.000003   0.000093
    27  O    0.000000   0.000007   0.000001   0.000002  -0.000000   0.000009
    28  O    0.000051  -0.000043  -0.000001  -0.000005  -0.000025  -0.004627
              19         20         21         22         23         24
     1  C    0.002767  -0.000743   0.003092   0.001336  -0.000033   0.004411
     2  C   -0.000187   0.005024   0.001513  -0.000666   0.000563  -0.003272
     3  C   -0.002572   0.006640   0.014664  -0.004032   0.003205   0.006939
     4  O   -0.000227   0.000183  -0.000001   0.000180   0.000099  -0.000784
     5  H    0.001349  -0.002660   0.000586   0.000655  -0.000150   0.002546
     6  O    0.001538   0.001161   0.002365   0.000321   0.000369  -0.002581
     7  H    0.000251   0.000099   0.000847  -0.000666   0.000979   0.008494
     8  N    0.001316  -0.027722   0.001973   0.008632  -0.008705  -0.008773
     9  C   -0.004161   0.000558  -0.001008  -0.000958   0.000331  -0.002863
    10  H   -0.000524  -0.000004   0.000182  -0.000023  -0.000013  -0.000465
    11  O   -0.000174  -0.000014  -0.000065  -0.000039   0.000003  -0.000457
    12  C    0.001090   0.000533   0.000208   0.000144  -0.000047   0.001053
    13  H    0.000056   0.000248   0.000061  -0.000086   0.000010  -0.000028
    14  O    0.000399   0.000133   0.000371   0.000097  -0.000029   0.000201
    15  H    0.000238   0.000098   0.000016   0.000003  -0.000001   0.000050
    16  H   -0.000270  -0.000054  -0.000108   0.000019   0.000005  -0.000041
    17  H    0.000051   0.000034  -0.000007   0.000015   0.000001   0.000082
    18  H    0.000189  -0.001114  -0.000064   0.001284  -0.000415   0.001587
    19  H    0.000554  -0.001183   0.000099   0.000349  -0.000153   0.000376
    20  C   -0.001183  -0.262317   0.097386   0.002419   0.014206   0.019541
    21  C    0.000099   0.097386   0.256093   0.100632  -0.005214  -0.029270
    22  C    0.000349   0.002419   0.100632  -0.338558   0.007254   0.026059
    23  N   -0.000153   0.014206  -0.005214   0.007254   0.165809  -0.005884
    24  C    0.000376   0.019541  -0.029270   0.026059  -0.005884  -0.095169
    25  H   -0.001191   0.004202  -0.019139  -0.009474  -0.000051   0.004205
    26  H    0.000262  -0.053157   0.082178   0.019294   0.001258   0.003326
    27  O    0.000031  -0.004772  -0.024023  -0.022347  -0.006152  -0.000333
    28  O   -0.000106   0.000074   0.001136   0.000012   0.000435   0.012927
              25         26         27         28
     1  C   -0.004165   0.000233   0.000012  -0.002483
     2  C   -0.000176  -0.000128   0.000049   0.001647
     3  C    0.017492  -0.005186  -0.000900   0.006188
     4  O    0.000195   0.000002  -0.000005   0.000114
     5  H   -0.001802   0.000063  -0.000004  -0.001677
     6  O   -0.006865   0.000413   0.000001  -0.000310
     7  H   -0.000858  -0.000186   0.000151  -0.004712
     8  N    0.003746  -0.009745   0.001629   0.000013
     9  C    0.002548  -0.000206  -0.000042   0.001250
    10  H    0.000396  -0.000016   0.000002   0.000056
    11  O    0.000326  -0.000010   0.000000   0.000209
    12  C   -0.000428   0.000037   0.000015  -0.000175
    13  H    0.000018  -0.000026   0.000000   0.000051
    14  O   -0.000761   0.000056   0.000007  -0.000043
    15  H   -0.000127   0.000007   0.000001  -0.000001
    16  H    0.000208   0.000020   0.000002  -0.000005
    17  H   -0.000092   0.000003  -0.000000  -0.000025
    18  H   -0.000428   0.000093   0.000009  -0.004627
    19  H   -0.001191   0.000262   0.000031  -0.000106
    20  C    0.004202  -0.053157  -0.004772   0.000074
    21  C   -0.019139   0.082178  -0.024023   0.001136
    22  C   -0.009474   0.019294  -0.022347   0.000012
    23  N   -0.000051   0.001258  -0.006152   0.000435
    24  C    0.004205   0.003326  -0.000333   0.012927
    25  H    0.028139  -0.005452  -0.000346   0.000264
    26  H   -0.005452  -0.046473  -0.001096  -0.000105
    27  O   -0.000346  -0.001096   0.517987  -0.000347
    28  O    0.000264  -0.000105  -0.000347  -0.018456
 Mulliken charges and spin densities:
               1          2
     1  C    1.224501   0.006779
     2  C    0.885771   0.035354
     3  C    0.608708  -0.048686
     4  O   -0.660388   0.013184
     5  H   -0.370683   0.003380
     6  O   -0.759021   0.008796
     7  H   -0.553350   0.028488
     8  N    0.075088   0.319224
     9  C    0.897455  -0.003995
    10  H   -0.329136   0.002460
    11  O   -0.697509   0.001037
    12  C    1.027001   0.001023
    13  H   -0.507142   0.000738
    14  O   -0.494192   0.000218
    15  H   -0.269084  -0.000071
    16  H   -0.255827  -0.000123
    17  H    0.115064   0.000331
    18  H    0.225886   0.000295
    19  H    0.143472   0.000169
    20  C    0.787309  -0.201200
    21  C    0.923775   0.484506
    22  C    0.509964  -0.208143
    23  N   -0.458600   0.167680
    24  C    0.526770  -0.058120
    25  H   -0.711937   0.010385
    26  H   -0.534736  -0.014542
    27  O   -0.580070   0.459529
    28  O   -0.769090  -0.008696
 Sum of Mulliken charges =  -0.00000   1.00000
 Mulliken charges and spin densities with hydrogens summed into heavy atoms:
               1          2
     1  C    0.895365   0.009239
     2  C    0.515088   0.038734
     3  C    0.055358  -0.020198
     4  O   -0.434502   0.013480
     6  O   -0.759021   0.008796
     8  N    0.075088   0.319224
     9  C    0.390313  -0.003257
    11  O   -0.582445   0.001368
    12  C    0.502090   0.000829
    14  O   -0.350720   0.000387
    20  C    0.075372  -0.190816
    21  C    0.389038   0.469964
    22  C    0.509964  -0.208143
    23  N   -0.458600   0.167680
    24  C    0.526770  -0.058120
    27  O   -0.580070   0.459529
    28  O   -0.769090  -0.008696
 Electronic spatial extent (au):  <R**2>=           4138.8729
 Charge=             -0.0000 electrons
 Dipole moment (field-independent basis, Debye):
    X=             -5.5719    Y=              6.4965    Z=             -2.4453  Tot=              8.9011
 Quadrupole moment (field-independent basis, Debye-Ang):
   XX=           -107.0365   YY=           -109.7015   ZZ=           -100.0235
   XY=              6.0010   XZ=              3.8559   YZ=             -0.7779
 Traceless Quadrupole moment (field-independent basis, Debye-Ang):
   XX=             -1.4493   YY=             -4.1143   ZZ=              5.5636
   XY=              6.0010   XZ=              3.8559   YZ=             -0.7779
 Octapole moment (field-independent basis, Debye-Ang**2):
  XXX=           -225.2147  YYY=             38.1584  ZZZ=             -4.4185  XYY=              9.9569
  XXY=             18.2562  XXZ=            -26.8656  XZZ=              2.4743  YZZ=             -7.5029
  YYZ=            -14.8644  XYZ=              4.4350
 Hexadecapole moment (field-independent basis, Debye-Ang**3):
 XXXX=          -3969.6858 YYYY=          -1299.5837 ZZZZ=           -320.0390 XXXY=             29.1715
 XXXZ=             22.4130 YYYX=             46.9552 YYYZ=            -17.6495 ZZZX=             18.4960
 ZZZY=              4.6454 XXYY=           -869.6447 XXZZ=           -656.7316 YYZZ=           -284.3707
 XXYZ=             -9.7290 YYXZ=             35.1514 ZZXY=             15.6046
 N-N= 1.309786343214D+03 E-N=-4.748371292472D+03  KE= 9.045630076106D+02
                          Isotropic Fermi Contact Couplings
        Atom                 a.u.       MegaHertz       Gauss      10(-4) cm-1
     1  C(13)              0.00044       0.49576       0.17690       0.16537
     2  C(13)              0.00952      10.69771       3.81721       3.56837
     3  C(13)             -0.01263     -14.20401      -5.06834      -4.73795
     4  O(17)              0.00388      -2.35014      -0.83859      -0.78392
     5  H(1)              -0.00008      -0.33962      -0.12118      -0.11328
     6  O(17)              0.00126      -0.76638      -0.27346      -0.25564
     7  H(1)               0.01174      52.45564      18.71748      17.49732
     8  N(14)              0.07009      22.64577       8.08057       7.55382
     9  C(13)             -0.00006      -0.06510      -0.02323      -0.02171
    10  H(1)               0.00114       5.09284       1.81725       1.69879
    11  O(17)              0.00158      -0.95519      -0.34083      -0.31862
    12  C(13)              0.00004       0.04986       0.01779       0.01663
    13  H(1)               0.00022       0.96160       0.34312       0.32076
    14  O(17)             -0.00006       0.03423       0.01221       0.01142
    15  H(1)               0.00002       0.07820       0.02790       0.02608
    16  H(1)              -0.00001      -0.06578      -0.02347      -0.02194
    17  H(1)               0.00016       0.70723       0.25236       0.23591
    18  H(1)               0.00050       2.22516       0.79399       0.74223
    19  H(1)               0.00001       0.05438       0.01940       0.01814
    20  C(13)             -0.02774     -31.19066     -11.12960     -10.40408
[...]
 29999,-0.00008552,0.00010089,0.00002592,0.00004165,-0.00009727,-0.0391
 3638,0.00571810,-0.05882981,0.07554327,0.01127676,0.11812009,0.0008059
 5,0.00031576,0.00622953,0.00114285,0.01145216,-0.01419151,-0.00854032,
 -0.01750338,0.01320131,0.00346845,-0.01154869,0.00149518,-0.00016687,0
 .00017229,0.00010690,-0.00005757,0.00249869,-0.00029200,-0.00001767,0.
 00031804,-0.00145506,0.05914503,-0.03900249,0.00614183,0.00234198,-0.0
 0106437,0.00051234,-0.00159825,0.00057673,-0.00098619,-0.00197032,-0.0
 0210529,-0.00111704,-0.00019828,-0.00063552,-0.00026271,-0.00026929,0.
 00005182,-0.00007901,-0.00021631,0.00100977,0.00051348,-0.00005192,0.0
 0008205,0.00010931,0.00016214,0.00015772,-0.00001254,0.00078830,0.0007
 8191,0.00002714,-0.00911350,0.00261515,0.00065811,0.00015675,-0.000699
 19,-0.00039908,0.01221052,0.02452664,-0.00366300,-0.08159823,0.0302810
 4,0.00559066,0.51608069,-0.00014155,0.00009724,0.00158257,0.00059597,0
 .00584817,-0.00411351,-0.00664750,-0.00663348,0.00068074,0.00555938,-0
 .00460425,0.00037872,-0.00033504,-0.00016386,0.00026405,0.00139671,-0.
 00101663,-0.00001984,-0.00172329,0.00210441,-0.00066744,0.00594599,-0.
 01477329,0.00400391,0.00036555,-0.00014371,0.00038709,-0.00023061,0.00
 012873,-0.00030488,0.00008183,-0.00102001,-0.00020510,0.00009299,0.000
 16555,0.00012143,0.00005207,-0.00008580,0.00001459,-0.00007765,-0.0002
 7403,-0.00009335,-0.00001959,-0.00000823,-0.00002223,0.00001401,-0.000
 06395,0.00001535,-0.00060652,0.00030563,-0.00034646,-0.00896067,0.0001
 5859,0.00207955,0.00014357,0.00016878,-0.00010231,0.00840971,0.0228712
 0,0.00481868,0.06713252,-0.20278145,0.00868114,0.09378743,0.60739799,0
 .00034405,-0.00014712,0.00104889,0.00070674,0.00239192,-0.00274139,0.0
 0014319,-0.00410161,0.00031183,-0.00003943,-0.00148119,0.00033424,0.00
 000438,-0.00005570,0.00008365,0.00014644,0.00134586,-0.00123220,-0.001
 21417,0.00006668,-0.00047265,0.00637985,-0.00253906,-0.00098675,0.0005
 4255,-0.00021733,-0.00001449,-0.00028284,0.00017734,-0.00022538,-0.000
 61198,-0.00041623,-0.00026503,0.00007901,-0.00009135,0.00009875,-0.000
 04048,0.00004836,-0.00005597,-0.00018638,0.00031691,-0.00000257,-0.000
 01647,-0.00002129,0.00001660,0.00002833,0.00005112,-0.00002240,0.00024
 087,0.00021766,-0.00000432,-0.00045739,0.00043114,0.00012066,0.0000577
 3,-0.00024922,-0.00003226,-0.00032003,-0.00807960,0.02263840,0.0021538
 4,0.00827832,-0.08465683,0.05599094,-0.00038217,0.17693295,-0.00024791
 ,-0.00001899,-0.00360884,-0.00009863,-0.01017983,0.00831794,0.00997391
 ,0.01510705,-0.00735885,-0.00809785,0.00957682,0.00050409,0.00021240,0
 .00026266,-0.00001172,-0.00382925,0.00066108,0.00031927,0.00097850,-0.
 00085683,0.00149085,-0.07784140,0.05955921,-0.01280030,-0.00050396,0.0
 0067500,-0.00109571,0.00079139,-0.00034701,0.00059354,0.00046304,0.001
 53034,0.00048132,-0.00017350,-0.00007359,-0.00018532,-0.00013353,0.000
 05445,0.00009151,0.00022307,0.00003073,0.00012027,0.00003162,0.0000276
 1,0.00005277,-0.00005313,0.00000986,0.00000835,0.00034171,-0.00043918,
 0.00029682,0.01415514,-0.00104886,-0.00389285,-0.00031656,0.00002646,0
 .00007382,-0.04220006,-0.03097228,-0.00407942,0.01945630,0.01104061,0.
 00067892,0.00492419,-0.07884543,0.00016998,0.57195725,-0.00004250,-0.0
 0037699,-0.00176915,-0.00109015,-0.00769076,0.00474237,0.00309435,-0.0
 0158589,-0.00153147,-0.00801441,0.00717578,0.00047097,0.00036728,0.000
 40012,-0.00015440,0.00317915,0.00024918,0.00025230,0.00137499,-0.00154
 964,0.00102421,0.02247216,0.01673696,0.00062619,-0.00116353,-0.0001831
 0,0.00058040,0.00036422,-0.00008352,0.00026576,0.00005358,0.00129974,0
 .00020167,0.00015416,0.00005613,-0.00004807,0.00033046,0.00007374,-0.0
 0011723,0.00008285,0.00009623,-0.00005810,0.00004776,-0.00007911,-0.00
 004525,-0.00005549,0.00006747,0.00000593,0.00060867,-0.00036638,0.0003
 5800,0.01236086,-0.00051152,-0.00417611,-0.00019591,0.00000472,0.00014
 753,-0.01089175,-0.00543029,0.00051102,-0.00583071,-0.04326243,-0.0001
 9506,-0.00053777,-0.30760983,0.00461572,0.19013249,0.50442160,-0.00006
 184,0.00000904,-0.00003969,-0.00040272,-0.00069743,0.00043770,0.000385
 42,0.00195974,0.00153700,-0.00056389,0.00058865,0.00002726,-0.00008779
 ,0.00003868,-0.00004237,-0.00054363,-0.00016087,-0.00019200,0.00044330
 ,-0.00038013,-0.00001732,-0.01079449,0.00290626,0.01708763,0.00014043,
 0.00003782,-0.00033105,0.00001378,-0.00001768,0.00002299,0.00008254,0.
 00003158,0.00004412,0.00000796,-0.00002317,-0.00007386,-0.00009117,0.0
 0000779,0.00004756,0.00003105,-0.00000799,0.00009063,-0.00000856,-0.00
 000434,0.00001320,0.00000512,-0.00001950,0.00001307,-0.00002480,0.0000
 0357,-0.00000412,0.00093886,0.00023794,-0.00015131,0.00001562,0.000014
 75,-0.00006433,0.00015098,0.00188936,-0.00462764,-0.00381208,0.0024643
 7,0.02144592,0.00098276,-0.00198749,-0.05900291,0.04908948,0.00551053,
 0.06479322,0.00033199,0.00045441,0.00450312,-0.00114831,0.01366679,-0.
 01069442,-0.02663415,0.00863079,0.00316400,0.00763627,-0.01118213,0.00
 107508,-0.00023569,-0.00006253,0.00019158,-0.00190977,-0.00233352,-0.0
 0102458,-0.00313306,-0.00013072,-0.00326926,-0.07582687,-0.08077942,0.
 00075437,0.00166640,-0.00046162,-0.00090810,-0.00100795,0.00038529,-0.
 00070017,-0.00052440,-0.00213493,-0.00049506,0.00011760,-0.00001365,0.
 00018442,-0.00045699,0.00002712,0.00010867,-0.00031763,0.00006401,-0.0
 0003683,-0.00006128,-0.00000797,-0.00000033,0.00010049,-0.00003836,-0.
 00001788,-0.00043090,0.00055701,-0.00037171,-0.01608345,-0.00331049,0.
 00196651,0.00054057,-0.00015431,-0.00012398,0.09486947,0.04938932,0.01
 945545,-0.02627641,0.01002048,-0.00992138,-0.18194200,-0.04161292,-0.0
 2094757,-0.30077555,-0.05290994,-0.02569313,0.60564828,-0.00021771,0.0
 0118384,0.00232682,-0.00029788,0.01724925,-0.00633940,0.01406308,0.024
 46518,0.00460276,0.02403362,-0.01646715,-0.00275426,-0.00083658,-0.001
 30816,-0.00034429,-0.01336306,-0.00239053,-0.00086491,-0.00400199,0.00
 172217,-0.00332268,-0.02059465,-0.04720780,0.00040179,0.00243682,0.000
 94344,-0.00236014,-0.00052339,-0.00008842,-0.00023275,0.00064544,-0.00
 286559,-0.00007231,-0.00059839,-0.00026377,0.00002632,-0.00111227,-0.0
 0013024,0.00036962,-0.00005231,-0.00027052,0.00026951,-0.00010493,0.00
 028671,0.00013854,0.00010448,-0.00021156,-0.00003718,-0.00198098,0.000
 68069,-0.00096951,-0.03413874,-0.00271234,0.01220637,0.00033478,-0.000
 11742,-0.00035906,-0.02004993,-0.05044007,-0.00947135,0.01213991,0.001
 77995,0.00557447,-0.01865615,-0.01737950,0.00368700,-0.05212266,-0.105
 98462,-0.00320101,0.33426702,0.68624768,0.00013645,-0.00005675,0.00047
 993,-0.00078181,0.00030224,-0.00021737,-0.00439436,0.00225776,0.001499
 11,0.00129014,0.00001409,-0.00054215,0.00029863,-0.00016747,-0.0002575
 6,-0.00058138,-0.00084208,0.00107075,-0.00064215,0.00014570,0.00043233
 ,-0.00385011,-0.01535707,-0.07224998,-0.00006718,0.00027179,0.00083251
 ,-0.00016025,0.00004804,-0.00010429,-0.00027167,-0.00020238,-0.0003109
 1,-0.00019876,-0.00002362,0.00010938,0.00015589,0.00003248,-0.00012601
 ,-0.00006016,0.00006234,-0.00014088,0.00000805,0.00005684,-0.00000737,
 0.00000193,0.00004907,-0.00002333,0.00013613,0.00005386,0.00003830,-0.
 00094620,0.00166282,-0.00035802,0.00005758,-0.00007425,0.00010525,0.01
 415336,0.00914186,0.00553146,-0.00266424,-0.00018523,-0.00350018,-0.02
 611958,-0.00415157,-0.01664121,-0.01502477,-0.00457101,-0.06793923,0.0
 1527989,-0.00433154,0.21150137,-0.00005679,-0.00028204,0.00030414,-0.0
 0002044,0.00019189,-0.00037739,-0.00094519,-0.00153646,0.00105084,-0.0
 0031919,0.00035563,-0.00008476,0.00004090,0.00004764,0.00004344,-0.004
 25670,-0.00230521,-0.00176520,0.00026994,0.00068116,-0.00004301,0.0150
 0109,-0.00609643,0.00149542,-0.00173116,-0.00000976,0.00052081,-0.0000
 5749,0.00009162,-0.00009481,0.00001256,0.00027656,-0.00004638,-0.00012
 973,-0.00005525,0.00009590,0.00029036,0.00000360,-0.00002687,0.0000169
 7,-0.00008787,-0.00037758,0.00009007,0.00003121,-0.00011103,-0.0001253
 2,0.00018137,-0.00005716,0.00005799,-0.00003442,0.00002782,0.00037120,
 -0.00001237,-0.00012206,-0.00000193,0.00025076,0.00099939,-0.19231679,
 0.14615194,-0.03610001,-0.00890730,0.02077854,-0.00349892,-0.00023700,
 -0.00510646,-0.00072770,-0.00078121,0.00009704,0.00051765,0.00140541,-
 0.00175361,-0.00113795,0.19518569,0.00014172,-0.00018672,-0.00010202,0
 .00002657,-0.00049145,0.00004285,0.00288738,-0.00210120,0.00053031,-0.
 00039542,0.00050668,0.00000665,-0.00001359,0.00000400,0.00010240,0.001
 55332,0.00165360,0.00012462,-0.00010327,0.00007547,0.00008394,0.022255
 04,-0.02822622,0.00534699,-0.00119380,0.00069639,0.00042664,0.00003672
 ,0.00009281,-0.00006550,0.00005067,0.00017793,0.00000387,-0.00001966,0
 .00028474,-0.00008640,0.00027777,0.00000496,-0.00001956,0.00017276,-0.
 00039079,-0.00014191,0.00003543,-0.00008848,-0.00000099,0.00006348,-0.
 00006039,0.00007639,0.00003144,-0.00004564,0.00002303,0.00062962,-0.00
 000022,-0.00024548,-0.00018619,0.00066319,0.00003637,0.13882591,-0.207
 25190,0.03357688,-0.00565733,0.01074690,-0.00083563,-0.00151871,-0.000
 83202,0.00129417,0.00117914,0.00072003,-0.00021659,-0.00738440,0.00244
 907,-0.00106308,-0.15171163,0.22390767,0.00028621,-0.00007483,-0.00033
 494,0.00109791,0.00054325,0.00051622,0.00127566,-0.00106173,-0.0040558
 4,-0.00008532,-0.00015588,-0.00009216,0.00000688,0.00000365,-0.0000783
 5,-0.00125185,-0.00075385,-0.00166700,-0.00105226,0.00025097,-0.000085
 68,0.00056195,0.00116174,0.00890855,-0.00043713,0.00025580,0.00000374,
 0.00009146,0.00006885,-0.00000073,-0.00014276,0.00001334,-0.00000182,0
 .00046353,0.00002747,0.00081241,0.00005644,-0.00003343,-0.00002679,-0.
 00052888,-0.00002426,-0.00040361,-0.00006248,-0.00004177,-0.00011619,-
 0.00003013,0.00008065,-0.00007810,0.00006145,0.00002159,0.00000120,-0.
 00003093,0.00003276,-0.00000804,0.00087678,-0.00016959,-0.00043362,-0.
 03799315,0.03559961,-0.05122211,-0.00118345,0.00439931,0.00644460,0.00
 220396,-0.00272987,0.00491263,-0.00115123,0.00038193,-0.00217253,-0.00
 188897,0.00034900,0.00672717,0.03917943,-0.03858027,0.03614507,-0.0000
 0139,-0.00004308,0.00010082,-0.00014996,0.00012712,-0.00031456,0.00091
 154,-0.00132953,0.00031031,0.00010662,-0.00012649,0.00005697,0.0000093
 1,-0.00001448,0.00001083,0.00003997,0.00027640,0.00003750,-0.00036284,
 -0.00009548,-0.00006503,-0.00566383,-0.00053817,-0.00197256,0.00009605
 ,-0.00003870,-0.00004165,-0.00004326,0.00000609,-0.00001187,-0.0000353
 2,0.00000208,0.00000399,-0.00003715,-0.00006259,-0.00005545,-0.0000172
 0,0.00000801,0.00000172,0.00004590,0.00008774,0.00005497,0.00000642,0.
 00001078,0.00001123,-0.00000919,0.00001220,-0.00000592,0.00001389,0.00
 001400,-0.00000830,-0.00018668,0.00003167,0.00002532,-0.00005090,-0.00
 008759,-0.00000595,-0.00383553,-0.02767824,-0.00054366,-0.09532466,-0.
 10352883,-0.00922421,0.01111859,0.01656850,0.00111040,-0.00147736,0.00
 509451,-0.00062833,-0.00300211,0.00050701,-0.00030669,0.00069951,0.000
 34940,0.00069046,0.09502782,0.00002246,-0.00001569,-0.00000805,-0.0000
 6435,-0.00009248,0.00003967,0.00066401,0.00039452,0.00008166,-0.000071
 34,0.00007108,-0.00002118,0.00001627,0.00000241,-0.00001394,-0.0000277
 6,-0.00001692,-0.00005166,0.00000809,-0.00009885,0.00000891,0.00101391
 ,0.00138754,0.00038229,0.00001305,-0.00000179,-0.00002528,-0.00000107,
 0.00000182,0.00000254,0.00000511,0.00001046,0.00000395,0.00000970,0.00
 001001,-0.00000502,-0.00000194,0.00000432,0.00000081,0.00000592,-0.000
 01374,0.00000843,-0.00000067,-0.00000372,0.00000180,-0.00000043,-0.000
 00265,0.00000519,0.00000567,-0.00000605,0.00000505,0.00012040,0.000003
 49,-0.00005037,0.00000771,0.00001822,-0.00002053,0.00490830,0.00254009
 ,0.00084122,-0.10692047,-0.31802934,-0.01413628,-0.01622932,-0.0133293
 0,-0.00286299,0.00350401,-0.00363988,0.00025431,0.00071819,0.00062020,
 0.00016398,-0.00027766,0.00040695,-0.00021151,0.11211143,0.32728863,-0
 .00010214,0.00005924,-0.00020616,-0.00018049,-0.00025640,0.00047670,0.
 00022917,-0.00021440,0.00021491,-0.00005380,0.00015782,-0.00011750,0.0
 0001392,-0.00000377,-0.00002614,-0.00007281,0.00003507,0.00036032,0.00
 005088,0.00020175,0.00016638,-0.00193841,-0.00038134,0.00504120,-0.000
 01879,0.00000843,0.00005174,0.00003441,-0.00002607,0.00004234,0.000023
 12,0.00003126,0.00003647,-0.00001084,-0.00001297,0.00004941,0.00000170
 ,-0.00001035,-0.00000484,-0.00002122,-0.00003265,-0.00006251,-0.000003
 16,0.00001267,-0.00000276,-0.00000050,0.00000257,-0.00000752,-0.000017
 87,-0.00001488,0.00001366,0.00010539,-0.00000652,-0.00000231,0.0000132
 9,0.00002554,0.00005746,-0.00158147,-0.00269738,0.00342209,-0.00612742
 ,-0.01425355,-0.03118857,-0.00740411,0.00095259,0.00409802,0.00243637,
 0.00060510,0.00425448,0.00056843,0.00006872,-0.00210117,0.00092833,-0.
 00034210,-0.00294844,0.01033557,0.01494262,0.02023591,-0.00041615,-0.0
 0010106,-0.00342094,-0.00063784,-0.00687289,0.00780052,0.00447908,0.00
 940898,-0.00694800,-0.00283438,0.00677406,-0.00056768,0.00010637,-0.00
 002321,-0.00005987,-0.00038417,-0.00173171,0.00013227,0.00016963,-0.00
 023678,0.00094780,-0.03189690,0.02461363,-0.00391652,-0.00106447,0.000
 40398,-0.00028574,0.00085502,-0.00032156,0.00054735,0.00095245,0.00115
 859,0.00058154,0.00012415,0.00030516,0.00011821,0.00010595,-0.00001586
 ,0.00003578,0.00008547,-0.00045255,-0.00019955,0.00002073,-0.00004218,
 -0.00004704,-0.00007153,-0.00008262,0.00000882,-0.00029874,-0.00041322
 ,0.00003026,0.00629679,-0.00136750,-0.00096121,-0.00004623,0.00029539,
 0.00009606,-0.02417498,0.00826182,0.00037715,-0.09650682,0.03482233,-0
 .01786207,-0.35884226,-0.07916891,-0.04837426,-0.11268200,-0.07662821,
 -0.00899490,0.09459637,-0.01640107,0.01338729,-0.00278959,-0.00080345,
 -0.00168668,0.00126270,0.00070429,0.00322419,0.54715016,0.00003537,-0.
 00000723,-0.00057179,-0.00044055,-0.00204872,0.00150068,0.00260443,0.0
 0264427,0.00044453,-0.00178602,0.00139424,-0.00011453,0.00011448,0.000
 05546,-0.00012018,-0.00039160,0.00007007,-0.00003713,0.00063001,-0.000
 81860,0.00016928,-0.00264675,-0.00320950,-0.00190553,-0.00019342,0.000
 05562,-0.00004859,0.00008497,-0.00004836,0.00011639,0.00003459,0.00036
 553,0.00008746,-0.00002930,-0.00003897,-0.00002236,0.00000026,0.000031
 52,-0.00001311,0.00002465,0.00005502,0.00001564,0.00000329,0.00000491,
 0.00000058,-0.00000529,0.00001727,-0.00000749,0.00018377,-0.00012306,0
 .00012548,0.00268817,-0.00001277,-0.00074534,-0.00001669,-0.00003703,0
 .00002871,0.00969669,0.00148562,-0.00158705,0.02141172,0.01483666,0.00
 234916,-0.06287552,-0.09297330,-0.00209333,-0.06795739,-0.02305942,-0.
 00847887,0.00539200,-0.00479418,-0.00013001,0.00134302,0.00052168,0.00
 122842,-0.00170734,0.00260700,0.00089598,0.10143485,0.10902608,-0.0001
 2162,0.00006142,-0.00075586,0.00000078,-0.00163359,0.00170619,-0.00012
 708,0.00215059,-0.00135285,-0.00059984,0.00099713,-0.00004218,-0.00000
 073,0.00006414,-0.00001175,-0.00002396,-0.00062635,0.00050500,0.000458
 99,0.00013208,0.00027060,-0.00377490,0.00452242,-0.00251612,-0.0003686
 7,0.00014630,-0.00000963,0.00019402,-0.00010011,0.00014303,0.00031674,
 0.00032188,0.00016672,-0.00004081,0.00004773,-0.00006690,0.00003330,-0
 .00001836,0.00002501,0.00010048,-0.00014302,0.00003017,0.00001339,0.00
 000914,-0.00001032,-0.00001827,-0.00002728,0.00001550,-0.00008305,-0.0
 0014100,0.00003586,0.00095987,-0.00019698,-0.00018572,-0.00004244,0.00
 010827,-0.00000577,-0.00542562,0.00442834,-0.00694968,-0.01611796,0.00
 265113,0.02065236,-0.04220191,-0.00678664,-0.05435495,-0.01237014,-0.0
 0763982,0.00810549,0.01545341,-0.00592147,0.01158448,-0.00065459,-0.00
 057520,-0.00007781,0.00034556,0.00053350,-0.00168423,0.06898862,0.0079
 1531,0.02670680,0.00000083,0.00004862,-0.00273813,-0.00006424,-0.01671
 518,0.00724012,0.00045239,0.00021118,-0.00470430,-0.03358956,0.0122864
 4,0.00989297,0.00043061,0.00113910,0.00010028,0.00137864,0.00276995,0.
 00093003,0.00052179,0.00181962,0.00187080,0.01136689,0.02144134,-0.004
 71599,-0.00063641,0.00002263,0.00041309,0.00055590,-0.00021970,0.00037
 270,-0.00052702,0.00199931,-0.00016330,-0.00005018,-0.00017822,-0.0002
 0021,0.00026722,0.00013606,-0.00016026,0.00007644,0.00043001,0.0001416
 2,0.00002540,-0.00002566,0.00003888,-0.00002121,0.00013360,0.00001557,
 0.00161059,-0.00030847,0.00120656,0.00960226,0.00572416,-0.00462382,-0
 .00028517,-0.00015438,0.00003917,-0.01447951,-0.00593704,-0.00496412,0
 .00347410,-0.00574569,0.00272587,0.03247435,0.02332992,0.00512041,-0.0
 7429661,-0.08245418,-0.00109760,-0.16714633,-0.20172587,0.01230190,-0.
 00076585,0.00047105,0.00067309,0.00085909,-0.00024352,-0.00043176,-0.0
 2355877,-0.00763238,-0.00489360,0.25232437,0.00004456,-0.00016065,-0.0
 0273077,-0.00088816,-0.01198256,0.00640403,-0.00466382,-0.00112654,-0.
 00326688,-0.01860567,0.01543140,0.00321086,0.00050350,0.00106727,0.000
 07622,0.00336820,0.00065687,-0.00025217,0.00221403,-0.00210310,0.00157
 101,0.00071310,-0.10099455,0.01029894,-0.00198348,-0.00016704,0.000584
 37,0.00053506,-0.00010056,0.00040079,-0.00020101,0.00220405,0.00027864
 ,0.00019152,0.00000925,-0.00018617,0.00041373,0.00014168,-0.00015836,0
 .00015570,0.00029152,-0.00002870,0.00008094,-0.00011039,-0.00005510,-0
 .00007522,0.00016536,0.00002033,0.00138556,-0.00065425,0.00075311,0.02
 584806,-0.00574636,-0.00943448,-0.00033160,-0.00001466,0.00025976,0.01
 747515,0.00260300,0.00434378,-0.00304617,-0.00460113,-0.00085426,0.003
 74921,0.02444634,-0.00018400,-0.05051547,-0.02988832,-0.00075931,-0.22
 105552,-0.48499630,0.01689317,-0.00121282,-0.00323706,-0.00058137,0.00
 004359,-0.00011633,0.00025301,-0.00352030,-0.00599982,-0.00027957,0.24
 937734,0.60498287,-0.00017523,-0.00030957,0.00027502,0.00100966,0.0060
 5142,-0.00260925,-0.00010815,-0.00099523,-0.00393597,0.01563720,-0.004
 25152,0.00057689,-0.00036250,-0.00030803,0.00030842,-0.00120214,0.0018
 5503,0.00115328,0.00043655,0.00140190,0.00048166,-0.00148108,0.0189548
 0,0.01748691,0.00106291,0.00030784,-0.00032756,-0.00010355,0.00002844,
 0.00003155,0.00038086,-0.00051337,0.00072466,-0.00022318,-0.00002260,-
 0.00006024,-0.00010168,-0.00012478,0.00008384,0.00008705,-0.00016950,0
 .00015163,-0.00002574,0.00005044,0.00005594,0.00001052,-0.00009810,-0.
 00000047,-0.00069607,-0.00000699,-0.00088249,-0.00709240,-0.00321170,-
 0.00317573,0.00000094,0.00008306,-0.00011563,-0.00660905,-0.00278175,0
 .00072700,0.00208311,0.00040950,-0.00102773,0.00442029,-0.00206756,0.0
 1011467,-0.00314615,0.00000609,0.01673810,0.01338843,0.01056093,-0.075
 39239,0.00006224,0.00059962,-0.00066782,0.00008854,0.00013086,-0.00016
 895,-0.00295141,0.00099764,-0.00192346,-0.01438995,-0.02657688,0.04137
 812\\-0.00000685,-0.00001689,0.00000220,0.00000127,0.00000851,0.000001
 79,0.00000301,-0.00001873,-0.00000348,-0.00000290,0.00000131,-0.000008
 57,0.00000082,0.00000248,0.00000011,0.00000251,0.00001206,0.00000281,0
 .00000203,0.00000403,-0.00000035,-0.00000694,0.00000581,-0.00000248,-0
 .00000687,0.00001263,-0.00000212,0.00000220,0.00000256,0.00000260,0.00
 000296,-0.00000133,0.00000778,-0.00000930,-0.00000454,-0.00000271,0.00
 000026,-0.00000954,0.00000261,0.00001195,-0.00001127,0.00000456,-0.000
 00287,0.00000573,-0.00000008,-0.00000126,-0.00000077,0.00000356,-0.000
 00437,0.00000506,-0.00000376,0.00000132,0.00000427,0.00000167,0.000001
 14,0.00000503,0.00000422,0.00001446,0.00000345,-0.00000008,0.00000107,
 -0.00001471,0.00000537,-0.00005928,0.00001069,-0.00001511,0.00001103,-
 0.00000337,0.00000581,0.00000291,-0.00000045,-0.00000386,-0.00000128,-
 0.00000027,-0.00000019,0.00000013,0.00000062,-0.00000258,0.00003713,0.
 00000276,0.00000195,0.00000575,-0.00000513,-0.00000165\\\@
 The archive entry for this job was punched.


 This summer one third of the nation will be ill-housed
 ill-nourished and ill-clad. Only they call it a vacation.
 -- Jonas Salk
 Job cpu time:       0 days 17 hours 34 minutes  1.2 seconds.
 Elapsed time:       0 days  0 hours 26 minutes 34.5 seconds.
 File lengths (MBytes):  RWF=   1167 Int=      0 D2E=      0 Chk=     28 Scr=      1
 Normal termination of Gaussian 16 at Sat Oct 26 22:24:03 2024.
