 Entering Gaussian System, Link 0=g16
 Input=UridineMSsrrgPBE0aVDZ.gjf
 Output=UridineMSsrrgPBE0aVDZ.log
 Initial command:
 /sw/contrib/chem-src/g16/c01/g16/l1.exe "/scr/Gau-99470.inp" -scrdir="/scr/"
 Entering Link 1 = /sw/contrib/chem-src/g16/c01/g16/l1.exe PID=     99471.
  
 Copyright (c) 1988-2019, Gaussian, Inc.  All Rights Reserved.
  
 This is part of the Gaussian(R) 16 program.  It is based on
 the Gaussian(R) 09 system (copyright 2009, Gaussian, Inc.),
 the Gaussian(R) 03 system (copyright 2003, Gaussian, Inc.),
 the Gaussian(R) 98 system (copyright 1998, Gaussian, Inc.),
 the Gaussian(R) 94 system (copyright 1995, Gaussian, Inc.),
 the Gaussian 92(TM) system (copyright 1992, Gaussian, Inc.),
 the Gaussian 90(TM) system (copyright 1990, Gaussian, Inc.),
 the Gaussian 88(TM) system (copyright 1988, Gaussian, Inc.),
 the Gaussian 86(TM) system (copyright 1986, Carnegie Mellon
 University), and the Gaussian 82(TM) system (copyright 1983,
 Carnegie Mellon University). Gaussian is a federally registered
 trademark of Gaussian, Inc.
  
 This software contains proprietary and confidential information,
 including trade secrets, belonging to Gaussian, Inc.
  
 This software is provided under written license and may be
 used, copied, transmitted, or stored only in accord with that
 written license.
  
 The following legend is applicable only to US Government
 contracts under FAR:
  
                    RESTRICTED RIGHTS LEGEND
  
 Use, reproduction and disclosure by the US Government is
 subject to restrictions as set forth in subparagraphs (a)
 and (c) of the Commercial Computer Software - Restricted
 Rights clause in FAR 52.227-19.
  
 Gaussian, Inc.
 340 Quinnipiac St., Bldg. 40, Wallingford CT 06492
  
  
 ---------------------------------------------------------------
 Warning -- This program may not be used in any manner that
 competes with the business of Gaussian, Inc. or will provide
 assistance to any competitor of Gaussian, Inc.  The licensee
 of this program is prohibited from giving any competitor of
 Gaussian, Inc. access to this program.  By using this program,
 the user acknowledges that Gaussian, Inc. is engaged in the
 business of creating and licensing software in the field of
 computational chemistry and represents and warrants to the
 licensee that it is not a competitor of Gaussian, Inc. and that
 it will not use this program in any manner prohibited above.
 ---------------------------------------------------------------
  

 Cite this work as:
 Gaussian 16, Revision C.01,
 M. J. Frisch, G. W. Trucks, H. B. Schlegel, G. E. Scuseria, 
 M. A. Robb, J. R. Cheeseman, G. Scalmani, V. Barone, 
 G. A. Petersson, H. Nakatsuji, X. Li, M. Caricato, A. V. Marenich, 
 J. Bloino, B. G. Janesko, R. Gomperts, B. Mennucci, H. P. Hratchian, 
 J. V. Ortiz, A. F. Izmaylov, J. L. Sonnenberg, D. Williams-Young, 
 F. Ding, F. Lipparini, F. Egidi, J. Goings, B. Peng, A. Petrone, 
 T. Henderson, D. Ranasinghe, V. G. Zakrzewski, J. Gao, N. Rega, 
 G. Zheng, W. Liang, M. Hada, M. Ehara, K. Toyota, R. Fukuda, 
 J. Hasegawa, M. Ishida, T. Nakajima, Y. Honda, O. Kitao, H. Nakai, 
 T. Vreven, K. Throssell, J. A. Montgomery, Jr., J. E. Peralta, 
 F. Ogliaro, M. J. Bearpark, J. J. Heyd, E. N. Brothers, K. N. Kudin, 
 V. N. Staroverov, T. A. Keith, R. Kobayashi, J. Normand, 
 K. Raghavachari, A. P. Rendell, J. C. Burant, S. S. Iyengar, 
 J. Tomasi, M. Cossi, J. M. Millam, M. Klene, C. Adamo, R. Cammi, 
 J. W. Ochterski, R. L. Martin, K. Morokuma, O. Farkas, 
 J. B. Foresman, and D. J. Fox, Gaussian, Inc., Wallingford CT, 2019.
 
 ******************************************
 Gaussian 16:  EM64L-G16RevC.01  3-Jul-2019
                21-Oct-2024 
 ******************************************
 %nprocshared=40
 Will use up to   40 processors via shared memory.
 %mem=50gb
 ------------------------------------------------------
 # PBE1PBE/aug-cc-pVDZ opt freq EmpiricalDispersion=GD3
 ------------------------------------------------------
 1/18=20,19=15,26=3,38=1/1,3;
 2/9=110,12=2,17=6,18=5,40=1/2;
 3/5=16,7=10,11=2,25=1,30=1,71=1,74=-13,124=31/1,2,3;
 4//1;
 5/5=2,38=5/2;
 6/7=2,8=2,9=2,10=2,28=1/1;
 7//1,2,3,16;
 1/18=20,19=15,26=3/3(2);
 2/9=110/2;
 99//99;
 2/9=110/2;
 3/5=16,7=10,11=2,25=1,30=1,71=1,74=-13,124=31/1,2,3;
 4/5=5,16=3,69=1/1;
 5/5=2,38=5/2;
 7//1,2,3,16;
 1/18=20,19=15,26=3/3(-5);
 2/9=110/2;
 6/7=2,8=2,9=2,10=2,19=2,28=1/1;
 99/9=1/99;
 ----
 blah
 ----
 Symbolic Z-matrix:
 Charge = -1 Multiplicity = 1
 C                    -2.66954  -0.4941    0.46031 
 C                    -1.22606  -0.70983   0.95786 
 C                    -0.41762  -0.47525  -0.32153 
 O                    -0.99238  -1.942     1.57655 
 H                    -0.9783    0.06323   1.69718 
 O                    -1.08631   0.5945   -0.95847 
 H                    -0.41479  -1.38185  -0.94511 
 N                     0.96725  -0.12357  -0.12878 
 C                    -2.4939    0.36289  -0.80361 
 H                    -3.27813   0.02358   1.21436 
 O                    -3.26827  -1.72057   0.07905 
 C                    -3.17743   1.7122   -0.75904 
 H                    -2.86877  -0.2192   -1.66166 
 O                    -2.73243   2.49241   0.33333 
 H                    -4.25738   1.563    -0.62959 
 H                    -3.01762   2.23522  -1.71601 
 H                    -3.53158  -2.18498   0.88031 
 H                    -1.19559  -2.63539   0.93674 
 H                    -1.80893   2.70577   0.16543 
 C                     1.30184   1.02078   0.55312 
 C                     2.57406   1.42052   0.75123 
 C                     3.66595   0.61952   0.22691 
 N                     3.23243  -0.52287  -0.45793 
 C                     1.94563  -0.95266  -0.68213 
 H                     0.45387   1.59782   0.9163 
 H                     2.81022   2.3312    1.29279 
 O                     4.85488   0.85817   0.33411 
 O                     1.68895  -1.9677   -1.30167 
 

 GradGradGradGradGradGradGradGradGradGradGradGradGradGradGradGradGradGrad
 Berny optimization.
 Initialization pass.
                           ----------------------------
                           !    Initial Parameters    !
                           ! (Angstroms and Degrees)  !
 --------------------------                            --------------------------
 ! Name  Definition              Value          Derivative Info.                !
 --------------------------------------------------------------------------------
 ! R1    R(1,2)                  1.542          estimate D2E/DX2                !
 ! R2    R(1,9)                  1.5371         estimate D2E/DX2                !
 ! R3    R(1,10)                 1.0986         estimate D2E/DX2                !
 ! R4    R(1,11)                 1.4171         estimate D2E/DX2                !
 ! R5    R(2,3)                  1.5315         estimate D2E/DX2                !
 ! R6    R(2,4)                  1.3984         estimate D2E/DX2                !
 ! R7    R(2,5)                  1.098          estimate D2E/DX2                !
 ! R8    R(3,6)                  1.4132         estimate D2E/DX2                !
 ! R9    R(3,7)                  1.1004         estimate D2E/DX2                !
 ! R10   R(3,8)                  1.4418         estimate D2E/DX2                !
 ! R11   R(4,18)                 0.9651         estimate D2E/DX2                !
 ! R12   R(6,9)                  1.4349         estimate D2E/DX2                !
 ! R13   R(8,20)                 1.3735         estimate D2E/DX2                !
 ! R14   R(8,24)                 1.3967         estimate D2E/DX2                !
 ! R15   R(9,12)                 1.5132         estimate D2E/DX2                !
 ! R16   R(9,13)                 1.1025         estimate D2E/DX2                !
 ! R17   R(11,17)                0.9628         estimate D2E/DX2                !
 ! R18   R(12,14)                1.4142         estimate D2E/DX2                !
 ! R19   R(12,15)                1.0979         estimate D2E/DX2                !
 ! R20   R(12,16)                1.1022         estimate D2E/DX2                !
 ! R21   R(14,19)                0.9626         estimate D2E/DX2                !
 ! R22   R(20,21)                1.3482         estimate D2E/DX2                !
 ! R23   R(20,25)                1.0881         estimate D2E/DX2                !
 ! R24   R(21,22)                1.4521         estimate D2E/DX2                !
 ! R25   R(21,26)                1.0855         estimate D2E/DX2                !
 ! R26   R(22,23)                1.4007         estimate D2E/DX2                !
 ! R27   R(22,27)                1.2174         estimate D2E/DX2                !
 ! R28   R(23,24)                1.3751         estimate D2E/DX2                !
 ! R29   R(24,28)                1.2166         estimate D2E/DX2                !
 ! A1    A(2,1,9)              103.6711         estimate D2E/DX2                !
 ! A2    A(2,1,10)             111.2863         estimate D2E/DX2                !
 ! A3    A(2,1,11)             111.1772         estimate D2E/DX2                !
 ! A4    A(9,1,10)             111.4044         estimate D2E/DX2                !
 ! A5    A(9,1,11)             108.0342         estimate D2E/DX2                !
 ! A6    A(10,1,11)            111.0049         estimate D2E/DX2                !
 ! A7    A(1,2,3)              101.7226         estimate D2E/DX2                !
 ! A8    A(1,2,4)              114.9893         estimate D2E/DX2                !
 ! A9    A(1,2,5)              109.2684         estimate D2E/DX2                !
 ! A10   A(3,2,4)              114.604          estimate D2E/DX2                !
 ! A11   A(3,2,5)              109.6051         estimate D2E/DX2                !
 ! A12   A(4,2,5)              106.5442         estimate D2E/DX2                !
 ! A13   A(2,3,6)              104.0448         estimate D2E/DX2                !
 ! A14   A(2,3,7)              110.3999         estimate D2E/DX2                !
 ! A15   A(2,3,8)              115.6406         estimate D2E/DX2                !
 ! A16   A(6,3,7)              111.6833         estimate D2E/DX2                !
 ! A17   A(6,3,8)              109.2758         estimate D2E/DX2                !
 ! A18   A(7,3,8)              105.9181         estimate D2E/DX2                !
 ! A19   A(2,4,18)             107.7313         estimate D2E/DX2                !
 ! A20   A(3,6,9)              107.0581         estimate D2E/DX2                !
 ! A21   A(3,8,20)             120.2379         estimate D2E/DX2                !
 ! A22   A(3,8,24)             118.3649         estimate D2E/DX2                !
 ! A23   A(20,8,24)            121.3739         estimate D2E/DX2                !
 ! A24   A(1,9,6)              106.9075         estimate D2E/DX2                !
 ! A25   A(1,9,12)             114.9168         estimate D2E/DX2                !
 ! A26   A(1,9,13)             107.8615         estimate D2E/DX2                !
 ! A27   A(6,9,12)             107.5996         estimate D2E/DX2                !
 ! A28   A(6,9,13)             109.5581         estimate D2E/DX2                !
 ! A29   A(12,9,13)            109.8829         estimate D2E/DX2                !
 ! A30   A(1,11,17)            108.0052         estimate D2E/DX2                !
 ! A31   A(9,12,14)            111.8727         estimate D2E/DX2                !
 ! A32   A(9,12,15)            109.0647         estimate D2E/DX2                !
 ! A33   A(9,12,16)            109.3934         estimate D2E/DX2                !
 ! A34   A(14,12,15)           107.063          estimate D2E/DX2                !
 ! A35   A(14,12,16)           111.2978         estimate D2E/DX2                !
 ! A36   A(15,12,16)           108.0281         estimate D2E/DX2                !
 ! A37   A(12,14,19)           106.8247         estimate D2E/DX2                !
 ! A38   A(8,20,21)            123.3581         estimate D2E/DX2                !
 ! A39   A(8,20,25)            114.6909         estimate D2E/DX2                !
 ! A40   A(21,20,25)           121.9462         estimate D2E/DX2                !
 ! A41   A(20,21,22)           119.5347         estimate D2E/DX2                !
 ! A42   A(20,21,26)           121.8266         estimate D2E/DX2                !
 ! A43   A(22,21,26)           118.6386         estimate D2E/DX2                !
 ! A44   A(21,22,23)           113.1838         estimate D2E/DX2                !
 ! A45   A(21,22,27)           126.4717         estimate D2E/DX2                !
 ! A46   A(23,22,27)           120.3445         estimate D2E/DX2                !
 ! A47   A(22,23,24)           128.6274         estimate D2E/DX2                !
 ! A48   A(8,24,23)            113.9157         estimate D2E/DX2                !
 ! A49   A(8,24,28)            123.3145         estimate D2E/DX2                !
 ! A50   A(23,24,28)           122.7689         estimate D2E/DX2                !
 ! D1    D(9,1,2,3)            -22.2365         estimate D2E/DX2                !
 ! D2    D(9,1,2,4)           -146.6974         estimate D2E/DX2                !
 ! D3    D(9,1,2,5)             93.5842         estimate D2E/DX2                !
 ! D4    D(10,1,2,3)          -142.0949         estimate D2E/DX2                !
 ! D5    D(10,1,2,4)            93.4443         estimate D2E/DX2                !
 ! D6    D(10,1,2,5)           -26.2742         estimate D2E/DX2                !
 ! D7    D(11,1,2,3)            93.6074         estimate D2E/DX2                !
 ! D8    D(11,1,2,4)           -30.8535         estimate D2E/DX2                !
 ! D9    D(11,1,2,5)          -150.5719         estimate D2E/DX2                !
 ! D10   D(2,1,9,6)             -0.5249         estimate D2E/DX2                !
 ! D11   D(2,1,9,12)          -119.8433         estimate D2E/DX2                !
 ! D12   D(2,1,9,13)           117.2213         estimate D2E/DX2                !
 ! D13   D(10,1,9,6)           119.2529         estimate D2E/DX2                !
 ! D14   D(10,1,9,12)           -0.0655         estimate D2E/DX2                !
 ! D15   D(10,1,9,13)         -123.0008         estimate D2E/DX2                !
 ! D16   D(11,1,9,6)          -118.5715         estimate D2E/DX2                !
 ! D17   D(11,1,9,12)          122.1101         estimate D2E/DX2                !
 ! D18   D(11,1,9,13)           -0.8252         estimate D2E/DX2                !
 ! D19   D(2,1,11,17)           77.518          estimate D2E/DX2                !
 ! D20   D(9,1,11,17)         -169.3597         estimate D2E/DX2                !
 ! D21   D(10,1,11,17)         -46.9389         estimate D2E/DX2                !
 ! D22   D(1,2,3,6)             38.4809         estimate D2E/DX2                !
 ! D23   D(1,2,3,7)            -81.478          estimate D2E/DX2                !
 ! D24   D(1,2,3,8)            158.3178         estimate D2E/DX2                !
 ! D25   D(4,2,3,6)            163.1999         estimate D2E/DX2                !
 ! D26   D(4,2,3,7)             43.2409         estimate D2E/DX2                !
 ! D27   D(4,2,3,8)            -76.9632         estimate D2E/DX2                !
 ! D28   D(5,2,3,6)            -77.0928         estimate D2E/DX2                !
 ! D29   D(5,2,3,7)            162.9482         estimate D2E/DX2                !
 ! D30   D(5,2,3,8)             42.744          estimate D2E/DX2                !
 ! D31   D(1,2,4,18)            59.4238         estimate D2E/DX2                !
 ! D32   D(3,2,4,18)           -57.9614         estimate D2E/DX2                !
 ! D33   D(5,2,4,18)          -179.3612         estimate D2E/DX2                !
 ! D34   D(2,3,6,9)            -40.625          estimate D2E/DX2                !
 ! D35   D(7,3,6,9)             78.4621         estimate D2E/DX2                !
 ! D36   D(8,3,6,9)           -164.6832         estimate D2E/DX2                !
 ! D37   D(2,3,8,20)           -61.0968         estimate D2E/DX2                !
 ! D38   D(2,3,8,24)           120.6349         estimate D2E/DX2                !
 ! D39   D(6,3,8,20)            55.842          estimate D2E/DX2                !
 ! D40   D(6,3,8,24)          -122.4263         estimate D2E/DX2                !
 ! D41   D(7,3,8,20)           176.2907         estimate D2E/DX2                !
 ! D42   D(7,3,8,24)            -1.9776         estimate D2E/DX2                !
 ! D43   D(3,6,9,1)             25.7497         estimate D2E/DX2                !
 ! D44   D(3,6,9,12)           149.6936         estimate D2E/DX2                !
 ! D45   D(3,6,9,13)           -90.8778         estimate D2E/DX2                !
 ! D46   D(3,8,20,21)         -178.9116         estimate D2E/DX2                !
 ! D47   D(3,8,20,25)            0.2984         estimate D2E/DX2                !
 ! D48   D(24,8,20,21)          -0.6963         estimate D2E/DX2                !
 ! D49   D(24,8,20,25)         178.5137         estimate D2E/DX2                !
 ! D50   D(3,8,24,23)          179.2006         estimate D2E/DX2                !
 ! D51   D(3,8,24,28)           -1.1396         estimate D2E/DX2                !
 ! D52   D(20,8,24,23)           0.9529         estimate D2E/DX2                !
 ! D53   D(20,8,24,28)        -179.3873         estimate D2E/DX2                !
 ! D54   D(1,9,12,14)           57.7959         estimate D2E/DX2                !
 ! D55   D(1,9,12,15)          -60.4508         estimate D2E/DX2                !
 ! D56   D(1,9,12,16)         -178.4071         estimate D2E/DX2                !
 ! D57   D(6,9,12,14)          -61.1367         estimate D2E/DX2                !
 ! D58   D(6,9,12,15)         -179.3834         estimate D2E/DX2                !
 ! D59   D(6,9,12,16)           62.6604         estimate D2E/DX2                !
 ! D60   D(13,9,12,14)         179.642          estimate D2E/DX2                !
 ! D61   D(13,9,12,15)          61.3953         estimate D2E/DX2                !
 ! D62   D(13,9,12,16)         -56.561          estimate D2E/DX2                !
 ! D63   D(9,12,14,19)          66.8868         estimate D2E/DX2                !
 ! D64   D(15,12,14,19)       -173.6809         estimate D2E/DX2                !
 ! D65   D(16,12,14,19)        -55.8334         estimate D2E/DX2                !
 ! D66   D(8,20,21,22)           0.0391         estimate D2E/DX2                !
 ! D67   D(8,20,21,26)         179.8858         estimate D2E/DX2                !
 ! D68   D(25,20,21,22)       -179.115          estimate D2E/DX2                !
 ! D69   D(25,20,21,26)          0.7317         estimate D2E/DX2                !
 ! D70   D(20,21,22,23)          0.2538         estimate D2E/DX2                !
 ! D71   D(20,21,22,27)       -179.8028         estimate D2E/DX2                !
 ! D72   D(26,21,22,23)       -179.5978         estimate D2E/DX2                !
 ! D73   D(26,21,22,27)          0.3456         estimate D2E/DX2                !
 ! D74   D(21,22,23,24)          0.0947         estimate D2E/DX2                !
 ! D75   D(27,22,23,24)       -179.8525         estimate D2E/DX2                !
 ! D76   D(22,23,24,8)          -0.6829         estimate D2E/DX2                !
 ! D77   D(22,23,24,28)        179.6551         estimate D2E/DX2                !
 --------------------------------------------------------------------------------
 Trust Radius=3.00D-01 FncErr=1.00D-07 GrdErr=1.00D-06 EigMax=2.50D+02 EigMin=1.00D-04
 Number of steps in this run=    166 maximum allowed number of steps=    168.
 GradGradGradGradGradGradGradGradGradGradGradGradGradGradGradGradGradGrad

                          Input orientation:                          
 ---------------------------------------------------------------------
 Center     Atomic      Atomic             Coordinates (Angstroms)
 Number     Number       Type             X           Y           Z
 ---------------------------------------------------------------------
      1          6           0       -2.669538   -0.494103    0.460313
      2          6           0       -1.226059   -0.709833    0.957859
      3          6           0       -0.417619   -0.475247   -0.321533
      4          8           0       -0.992377   -1.942002    1.576549
      5          1           0       -0.978297    0.063229    1.697177
      6          8           0       -1.086313    0.594496   -0.958470
      7          1           0       -0.414788   -1.381852   -0.945105
      8          7           0        0.967249   -0.123572   -0.128780
      9          6           0       -2.493895    0.362889   -0.803606
     10          1           0       -3.278125    0.023580    1.214358
     11          8           0       -3.268269   -1.720565    0.079045
     12          6           0       -3.177430    1.712198   -0.759038
     13          1           0       -2.868772   -0.219202   -1.661656
     14          8           0       -2.732426    2.492414    0.333326
     15          1           0       -4.257377    1.563004   -0.629586
     16          1           0       -3.017618    2.235222   -1.716014
     17          1           0       -3.531575   -2.184977    0.880312
     18          1           0       -1.195593   -2.635393    0.936736
     19          1           0       -1.808925    2.705769    0.165430
     20          6           0        1.301836    1.020779    0.553120
     21          6           0        2.574055    1.420515    0.751229
     22          6           0        3.665950    0.619524    0.226912
     23          7           0        3.232434   -0.522870   -0.457931
     24          6           0        1.945625   -0.952657   -0.682129
     25          1           0        0.453872    1.597820    0.916300
     26          1           0        2.810224    2.331202    1.292786
     27          8           0        4.854878    0.858169    0.334109
     28          8           0        1.688945   -1.967703   -1.301673
 ---------------------------------------------------------------------
                    Distance matrix (angstroms):
                    1          2          3          4          5
     1  C    0.000000
     2  C    1.541987   0.000000
     3  C    2.383858   1.531486   0.000000
     4  O    2.480980   1.398437   2.466664   0.000000
     5  H    2.168121   1.097999   2.163217   2.008905   0.000000
     6  O    2.388429   2.322309   1.413220   3.587334   2.710419
     7  H    2.801285   2.175096   1.100356   2.646907   3.063896
     8  N    3.702775   2.516960   1.441766   3.170957   2.674727
     9  C    1.537133   2.420929   2.290369   3.637611   2.939515
    10  H    1.098616   2.194234   3.284857   3.036336   2.350297
    11  O    1.417058   2.442236   3.136477   2.733356   3.323288
    12  C    2.571485   3.552720   3.548645   4.856192   3.686228
    13  H    2.148957   3.130668   2.805288   4.120057   3.864637
    14  O    2.989877   3.593545   3.820233   4.923151   3.292111
    15  H    2.817943   4.107878   4.358108   5.273739   4.291330
    16  H    3.508101   4.362640   4.006397   5.691377   4.530591
    17  H    1.943852   2.738150   3.750244   2.644108   3.498704
    18  H    2.642842   1.925917   2.618151   0.965116   2.812125
    19  H    3.326679   3.554436   3.505956   4.925422   3.165313
    20  C    4.251505   3.090159   2.441237   3.884442   2.724844
    21  C    5.589782   4.361415   3.700655   4.970625   3.918705
    22  C    6.436851   5.121838   4.263197   5.484792   4.903078
    23  N    5.973046   4.681621   3.652911   4.899191   4.766367
    24  C    4.776523   3.578841   2.437801   3.835660   3.904157
    25  H    3.786787   2.854673   2.566970   3.880452   2.239609
    26  H    6.221186   5.064746   4.571778   5.727178   4.433974
    27  O    7.646006   6.310744   5.477873   6.601137   6.042832
    28  O    4.926709   3.896790   2.761469   3.933740   4.497996
                    6          7          8          9         10
     6  O    0.000000
     7  H    2.087361   0.000000
     8  N    2.328331   2.039530   0.000000
     9  C    1.434891   2.717872   3.559712   0.000000
    10  H    3.138657   3.851911   4.455207   2.191421   0.000000
    11  O    3.346173   3.050568   4.531356   2.391549   2.081123
    12  C    2.379454   4.152103   4.576641   1.513222   2.599204
    13  H    2.081762   2.808423   4.132059   1.102548   2.915128
    14  O    2.824981   4.692096   4.554615   2.425776   2.677526
    15  H    3.331939   4.851517   5.512900   2.140193   2.594010
    16  H    2.644956   4.522416   4.895139   2.147651   3.680530
    17  H    4.133509   3.700205   5.050453   3.225520   2.248010
    18  H    3.746456   2.392143   3.481732   3.701901   3.388827
    19  H    2.498558   4.459322   3.974780   2.626271   3.233100
    20  C    2.858300   3.311210   1.373490   4.084250   4.733676
    21  C    4.123551   4.434410   2.395923   5.405571   6.034395
    22  C    4.897934   4.693778   2.821648   6.250722   7.039203
    23  N    4.488944   3.778547   2.323541   5.804731   6.744074
    24  C    3.415069   2.413486   1.396709   4.631928   5.642452
    25  H    2.625565   3.619094   2.078206   3.629389   4.061388
    26  H    4.823619   5.403298   3.382798   6.033473   6.511472
    27  O    6.085888   5.867151   4.036303   7.452796   8.222963
    28  O    3.792718   2.212703   2.301596   4.814133   5.913324
                   11         12         13         14         15
    11  O    0.000000
    12  C    3.534756   0.000000
    13  H    2.333180   2.154134   0.000000
    14  O    4.254524   1.414222   3.369185   0.000000
    15  H    3.501759   1.097863   2.483878   2.028911   0.000000
    16  H    4.351243   1.102224   2.459534   2.085012   1.780226
    17  H    0.962828   4.242742   3.281033   4.776591   4.105355
    18  H    2.422505   5.069998   3.922900   5.387055   5.427193
    19  H    4.661500   1.927338   3.607904   0.962582   2.816537
    20  C    5.350287   4.718436   4.882290   4.299917   5.709435
    21  C    6.667156   5.953618   6.175358   5.429765   6.971041
    22  C    7.319923   6.999849   6.853666   6.667702   8.025139
    23  N    6.631889   6.795039   6.226225   6.730348   7.776735
    24  C    5.324825   5.775211   4.967479   5.897781   6.693918
    25  H    5.056383   4.000774   4.581200   3.360454   4.958512
    26  H    7.405272   6.359650   6.890884   5.627390   7.364552
    27  O    8.526456   8.151215   8.049756   7.761310   9.190141
    28  O    5.151838   6.125172   4.894857   6.489560   6.948118
                   16         17         18         19         20
    16  H    0.000000
    17  H    5.152011   0.000000
    18  H    5.837786   2.379679   0.000000
    19  H    2.285210   5.234308   5.431307   0.000000
    20  C    5.028074   5.809112   4.444312   3.558979   0.000000
    21  C    6.165861   7.091893   5.540311   4.604949   1.348176
    22  C    7.145315   7.752195   5.893465   5.859220   2.420011
    23  N    6.946438   7.092624   5.100517   6.018969   2.670634
    24  C    5.988762   5.827483   3.914023   5.310281   2.415524
    25  H    4.403022   5.494965   4.543264   2.628994   1.088080
    26  H    6.559408   7.796437   6.390650   4.769462   2.130622
    27  O    8.250786   8.938214   7.012584   6.917250   3.563498
    28  O    6.323606   5.662340   3.711717   6.019039   3.538522
                   21         22         23         24         25
    21  C    0.000000
    22  C    1.452147   0.000000
    23  N    2.381654   1.400718   0.000000
    24  C    2.842778   2.501525   1.375085   0.000000
    25  H    2.133978   3.427793   3.755828   3.359350   0.000000
    26  H    1.085546   2.190478   3.374759   3.928301   2.496395
    27  O    2.385870   1.217371   2.273086   3.574295   4.500543
    28  O    4.059292   3.597063   2.276357   1.216568   4.376958
                   26         27         28
    26  H    0.000000
    27  O    2.696201   0.000000
    28  O    5.144810   4.548018   0.000000
 Stoichiometry    C9H11N2O6(1-)
 Framework group  C1[X(C9H11N2O6)]
 Deg. of freedom    78
 Full point group                 C1      NOp   1
 Largest Abelian subgroup         C1      NOp   1
 Largest concise Abelian subgroup C1      NOp   1
                         Standard orientation:                         
 ---------------------------------------------------------------------
 Center     Atomic      Atomic             Coordinates (Angstroms)
 Number     Number       Type             X           Y           Z
 ---------------------------------------------------------------------
      1          6           0       -2.639984   -0.486300    0.462373
      2          6           0       -1.195923   -0.715963    0.951930
      3          6           0       -0.391529   -0.479003   -0.329573
      4          8           0       -0.968624   -1.953850    1.561517
      5          1           0       -0.939095    0.050390    1.695130
      6          8           0       -1.055114    0.599806   -0.956484
      7          1           0       -0.398245   -1.381505   -0.959040
      8          7           0        0.996768   -0.138860   -0.140839
      9          6           0       -2.463667    0.377619   -0.796727
     10          1           0       -3.241304    0.030930    1.222533
     11          8           0       -3.249526   -1.705775    0.075858
     12          6           0       -3.136945    1.731632   -0.740267
     13          1           0       -2.846720   -0.196054   -1.656833
     14          8           0       -2.681240    2.501367    0.355116
     15          1           0       -4.217377    1.589594   -0.606876
     16          1           0       -2.977559    2.259708   -1.694535
     17          1           0       -3.512667   -2.173457    0.875275
     18          1           0       -1.179867   -2.641516    0.918135
     19          1           0       -1.756944    2.708973    0.184412
     20          6           0        1.342920    0.998496    0.546966
     21          6           0        2.618954    1.387496    0.741881
     22          6           0        3.702493    0.581890    0.207398
     23          7           0        3.257418   -0.552757   -0.482887
     24          6           0        1.966453   -0.971529   -0.704019
     25          1           0        0.500912    1.579411    0.917749
     26          1           0        2.864322    2.292847    1.288275
     27          8           0        4.893632    0.811019    0.310735
     28          8           0        1.699448   -1.980571   -1.328983
 ---------------------------------------------------------------------
 Rotational constants (GHZ):           0.8745222           0.2908023           0.2507484
 Standard basis: Aug-CC-pVDZ (5D, 7F)
 There are   524 symmetry adapted cartesian basis functions of A   symmetry.
 There are   490 symmetry adapted basis functions of A   symmetry.
   490 basis functions,   852 primitive gaussians,   524 cartesian basis functions
    64 alpha electrons       64 beta electrons
       nuclear repulsion energy      1291.5404774312 Hartrees.
 NAtoms=   28 NActive=   28 NUniq=   28 SFac= 1.00D+00 NAtFMM=   60 NAOKFM=F Big=F
 Integral buffers will be    131072 words long.
 Raffenetti 2 integral format.
 Two-electron integral symmetry is turned on.
 Nuclear repulsion after empirical dispersion term =     1291.5214829171 Hartrees.
 One-electron integrals computed using PRISM.
 NBasis=   490 RedAO= T EigKep=  2.43D-06  NBF=   490
 NBsUse=   490 1.00D-06 EigRej= -1.00D+00 NBFU=   490
 ExpMin= 2.97D-02 ExpMax= 1.17D+04 ExpMxC= 4.01D+02 IAcc=3 IRadAn=         5 AccDes= 0.00D+00
 Harris functional with IExCor= 1009 and IRadAn=       5 diagonalized for initial guess.
 HarFok:  IExCor= 1009 AccDes= 0.00D+00 IRadAn=         5 IDoV= 1 UseB2=F ITyADJ=14
 ICtDFT=  3500011 ScaDFX=  1.000000  1.000000  1.000000  1.000000
 FoFCou: FMM=F IPFlag=           0 FMFlag=      100000 FMFlg1=           0
         NFxFlg=           0 DoJE=T BraDBF=F KetDBF=T FulRan=T
         wScrn=  0.000000 ICntrl=       500 IOpCl=  0 I1Cent=   200000004 NGrid=           0
         NMat0=    1 NMatS0=      1 NMatT0=    0 NMatD0=    1 NMtDS0=    0 NMtDT0=    0
 Petite list used in FoFCou.
 Requested convergence on RMS density matrix=1.00D-08 within 128 cycles.
 Requested convergence on MAX density matrix=1.00D-06.
 Requested convergence on             energy=1.00D-06.
 No special actions if energy rises.
 EnCoef did     3 forward-backward iterations
 SCF Done:  E(RPBE1PBE) =  -909.642930551     A.U. after   16 cycles
            NFock= 16  Conv=0.91D-08     -V/T= 2.0052

 **********************************************************************

            Population analysis using the SCF Density.

 **********************************************************************

 Orbital symmetries:
       Occupied  (A) (A) (A) (A) (A) (A) (A) (A) (A) (A) (A) (A)
                 (A) (A) (A) (A) (A) (A) (A) (A) (A) (A) (A) (A)
                 (A) (A) (A) (A) (A) (A) (A) (A) (A) (A) (A) (A)
                 (A) (A) (A) (A) (A) (A) (A) (A) (A) (A) (A) (A)
                 (A) (A) (A) (A) (A) (A) (A) (A) (A) (A) (A) (A)
                 (A) (A) (A) (A)
       Virtual   (A) (A) (A) (A) (A) (A) (A) (A) (A) (A) (A) (A)
                 (A) (A) (A) (A) (A) (A) (A) (A) (A) (A) (A) (A)
                 (A) (A) (A) (A) (A) (A) (A) (A) (A) (A) (A) (A)
                 (A) (A) (A) (A) (A) (A) (A) (A) (A) (A) (A) (A)
                 (A) (A) (A) (A) (A) (A) (A) (A) (A) (A) (A) (A)
                 (A) (A) (A) (A) (A) (A) (A) (A) (A) (A) (A) (A)
                 (A) (A) (A) (A) (A) (A) (A) (A) (A) (A) (A) (A)
                 (A) (A) (A) (A) (A) (A) (A) (A) (A) (A) (A) (A)
                 (A) (A) (A) (A) (A) (A) (A) (A) (A) (A) (A) (A)
                 (A) (A) (A) (A) (A) (A) (A) (A) (A) (A) (A) (A)
                 (A) (A) (A) (A) (A) (A) (A) (A) (A) (A) (A) (A)
                 (A) (A) (A) (A) (A) (A) (A) (A) (A) (A) (A) (A)
                 (A) (A) (A) (A) (A) (A) (A) (A) (A) (A) (A) (A)
                 (A) (A) (A) (A) (A) (A) (A) (A) (A) (A) (A) (A)
                 (A) (A) (A) (A) (A) (A) (A) (A) (A) (A) (A) (A)
                 (A) (A) (A) (A) (A) (A) (A) (A) (A) (A) (A) (A)
                 (A) (A) (A) (A) (A) (A) (A) (A) (A) (A) (A) (A)
                 (A) (A) (A) (A) (A) (A) (A) (A) (A) (A) (A) (A)
                 (A) (A) (A) (A) (A) (A) (A) (A) (A) (A) (A) (A)
                 (A) (A) (A) (A) (A) (A) (A) (A) (A) (A) (A) (A)
                 (A) (A) (A) (A) (A) (A) (A) (A) (A) (A) (A) (A)
                 (A) (A) (A) (A) (A) (A) (A) (A) (A) (A) (A) (A)
                 (A) (A) (A) (A) (A) (A) (A) (A) (A) (A) (A) (A)
                 (A) (A) (A) (A) (A) (A) (A) (A) (A) (A) (A) (A)
                 (A) (A) (A) (A) (A) (A) (A) (A) (A) (A) (A) (A)
                 (A) (A) (A) (A) (A) (A) (A) (A) (A) (A) (A) (A)
                 (A) (A) (A) (A) (A) (A) (A) (A) (A) (A) (A) (A)
                 (A) (A) (A) (A) (A) (A) (A) (A) (A) (A) (A) (A)
                 (A) (A) (A) (A) (A) (A) (A) (A) (A) (A) (A) (A)
                 (A) (A) (A) (A) (A) (A) (A) (A) (A) (A) (A) (A)
                 (A) (A) (A) (A) (A) (A) (A) (A) (A) (A) (A) (A)
                 (A) (A) (A) (A) (A) (A) (A) (A) (A) (A) (A) (A)
                 (A) (A) (A) (A) (A) (A) (A) (A) (A) (A) (A) (A)
                 (A) (A) (A) (A) (A) (A) (A) (A) (A) (A) (A) (A)
                 (A) (A) (A) (A) (A) (A) (A) (A) (A) (A) (A) (A)
                 (A) (A) (A) (A) (A) (A)
 The electronic state is 1-A.
 Alpha  occ. eigenvalues --  -19.16793 -19.15873 -19.15122 -19.14955 -19.02292
 Alpha  occ. eigenvalues --  -19.01095 -14.31078 -14.18414 -10.21100 -10.21039
 Alpha  occ. eigenvalues --  -10.21037 -10.20770 -10.19688 -10.18592 -10.15447
 Alpha  occ. eigenvalues --  -10.15236 -10.09239  -1.01999  -0.99827  -0.98496
 Alpha  occ. eigenvalues --   -0.97606  -0.92568  -0.88658  -0.85088  -0.73201
 Alpha  occ. eigenvalues --   -0.72003  -0.68738  -0.65958  -0.60820  -0.56152
 Alpha  occ. eigenvalues --   -0.53759  -0.52461  -0.48637  -0.48009  -0.45552
 Alpha  occ. eigenvalues --   -0.45357  -0.42664  -0.42285  -0.39045  -0.38766
 Alpha  occ. eigenvalues --   -0.37890  -0.37289  -0.34979  -0.33046  -0.32933
 Alpha  occ. eigenvalues --   -0.32512  -0.30770  -0.30421  -0.28698  -0.28401
 Alpha  occ. eigenvalues --   -0.27327  -0.26007  -0.25285  -0.24782  -0.23589
 Alpha  occ. eigenvalues --   -0.23006  -0.21423  -0.20728  -0.18389  -0.13199
 Alpha  occ. eigenvalues --   -0.10169  -0.09818  -0.07734  -0.07659
 Alpha virt. eigenvalues --    0.05860   0.06994   0.07858   0.08871   0.10345
 Alpha virt. eigenvalues --    0.10810   0.10972   0.11464   0.12164   0.12508
 Alpha virt. eigenvalues --    0.13903   0.14039   0.14294   0.15441   0.15542
 Alpha virt. eigenvalues --    0.15880   0.16228   0.16870   0.17296   0.17526
 Alpha virt. eigenvalues --    0.17724   0.18051   0.18896   0.19197   0.19333
 Alpha virt. eigenvalues --    0.19549   0.19990   0.20075   0.20484   0.20658
 Alpha virt. eigenvalues --    0.21315   0.21759   0.22331   0.22690   0.22730
 Alpha virt. eigenvalues --    0.23162   0.23798   0.24431   0.24615   0.24776
 Alpha virt. eigenvalues --    0.25303   0.25460   0.26517   0.26629   0.27007
 Alpha virt. eigenvalues --    0.27113   0.27546   0.28046   0.28406   0.28958
 Alpha virt. eigenvalues --    0.29385   0.30169   0.30683   0.31087   0.31245
 Alpha virt. eigenvalues --    0.31740   0.31976   0.32251   0.32614   0.33283
 Alpha virt. eigenvalues --    0.33802   0.34411   0.34538   0.35062   0.35256
 Alpha virt. eigenvalues --    0.35644   0.36004   0.36396   0.36529   0.36710
 Alpha virt. eigenvalues --    0.37440   0.37778   0.38352   0.38356   0.38480
 Alpha virt. eigenvalues --    0.38904   0.39570   0.39941   0.40144   0.40286
 Alpha virt. eigenvalues --    0.40891   0.41217   0.41326   0.41728   0.42434
 Alpha virt. eigenvalues --    0.42971   0.43227   0.43759   0.44056   0.44222
 Alpha virt. eigenvalues --    0.44599   0.45371   0.45699   0.46136   0.46398
 Alpha virt. eigenvalues --    0.46851   0.47298   0.47664   0.47960   0.48494
 Alpha virt. eigenvalues --    0.49074   0.49383   0.50005   0.51202   0.51402
 Alpha virt. eigenvalues --    0.51885   0.52044   0.52580   0.52704   0.52987
 Alpha virt. eigenvalues --    0.53890   0.54695   0.54826   0.55214   0.56271
 Alpha virt. eigenvalues --    0.57436   0.57672   0.58035   0.58738   0.59001
 Alpha virt. eigenvalues --    0.59820   0.60241   0.60610   0.61081   0.61672
 Alpha virt. eigenvalues --    0.61902   0.62661   0.62955   0.64114   0.64631
 Alpha virt. eigenvalues --    0.65234   0.65852   0.65915   0.66291   0.67071
 Alpha virt. eigenvalues --    0.67337   0.67956   0.68989   0.69547   0.70077
 Alpha virt. eigenvalues --    0.70675   0.70983   0.71861   0.71944   0.72588
 Alpha virt. eigenvalues --    0.73028   0.73663   0.74214   0.74604   0.75143
 Alpha virt. eigenvalues --    0.75646   0.76258   0.76820   0.77190   0.78086
 Alpha virt. eigenvalues --    0.78519   0.79600   0.79734   0.80214   0.81000
 Alpha virt. eigenvalues --    0.81063   0.82169   0.82529   0.83273   0.83495
 Alpha virt. eigenvalues --    0.84503   0.84907   0.85159   0.86202   0.86746
 Alpha virt. eigenvalues --    0.87164   0.87816   0.88482   0.88628   0.89701
 Alpha virt. eigenvalues --    0.90105   0.90443   0.90771   0.91755   0.92302
 Alpha virt. eigenvalues --    0.92920   0.94438   0.94605   0.95837   0.95947
 Alpha virt. eigenvalues --    0.96011   0.96444   0.96916   0.98514   0.99255
 Alpha virt. eigenvalues --    0.99609   1.00442   1.00636   1.02122   1.02332
 Alpha virt. eigenvalues --    1.02789   1.03594   1.05831   1.06654   1.07299
 Alpha virt. eigenvalues --    1.08651   1.08968   1.11143   1.12078   1.12849
 Alpha virt. eigenvalues --    1.13002   1.13351   1.13956   1.15874   1.16480
 Alpha virt. eigenvalues --    1.16762   1.18046   1.18903   1.19227   1.19720
 Alpha virt. eigenvalues --    1.21152   1.21926   1.22740   1.23411   1.25062
 Alpha virt. eigenvalues --    1.25324   1.25598   1.27210   1.27703   1.28620
 Alpha virt. eigenvalues --    1.29309   1.29989   1.30844   1.31265   1.31728
 Alpha virt. eigenvalues --    1.32765   1.33801   1.35638   1.36327   1.36648
 Alpha virt. eigenvalues --    1.37458   1.37891   1.40059   1.41020   1.41661
 Alpha virt. eigenvalues --    1.42482   1.43475   1.45338   1.46467   1.47172
 Alpha virt. eigenvalues --    1.47871   1.48542   1.49696   1.51457   1.52432
 Alpha virt. eigenvalues --    1.52760   1.53736   1.54557   1.54855   1.56248
 Alpha virt. eigenvalues --    1.57096   1.57909   1.58054   1.61143   1.61523
 Alpha virt. eigenvalues --    1.62536   1.63265   1.64754   1.66357   1.66747
 Alpha virt. eigenvalues --    1.67052   1.67746   1.68501   1.70316   1.71012
 Alpha virt. eigenvalues --    1.71875   1.72115   1.74073   1.74535   1.75992
 Alpha virt. eigenvalues --    1.76886   1.77140   1.78939   1.79926   1.80467
 Alpha virt. eigenvalues --    1.81232   1.83099   1.83614   1.84429   1.84785
 Alpha virt. eigenvalues --    1.85582   1.87019   1.88683   1.89300   1.90372
 Alpha virt. eigenvalues --    1.91117   1.92318   1.93205   1.94160   1.94679
 Alpha virt. eigenvalues --    1.95494   1.96440   1.97003   1.98514   1.99088
 Alpha virt. eigenvalues --    1.99648   2.00621   2.01546   2.02054   2.04693
 Alpha virt. eigenvalues --    2.04957   2.05771   2.06756   2.07287   2.08217
 Alpha virt. eigenvalues --    2.10177   2.11199   2.11625   2.12446   2.13328
 Alpha virt. eigenvalues --    2.15145   2.16071   2.16943   2.17415   2.20245
 Alpha virt. eigenvalues --    2.21325   2.22285   2.23985   2.24454   2.25326
 Alpha virt. eigenvalues --    2.27092   2.28768   2.29740   2.31032   2.32565
 Alpha virt. eigenvalues --    2.33861   2.35077   2.35376   2.37301   2.38098
 Alpha virt. eigenvalues --    2.39077   2.40369   2.40671   2.41811   2.43679
 Alpha virt. eigenvalues --    2.45608   2.46462   2.47475   2.47699   2.49302
 Alpha virt. eigenvalues --    2.50186   2.52125   2.52696   2.56005   2.57814
 Alpha virt. eigenvalues --    2.58044   2.61037   2.61892   2.63097   2.63905
 Alpha virt. eigenvalues --    2.64952   2.66695   2.69739   2.71065   2.72384
 Alpha virt. eigenvalues --    2.73609   2.74197   2.77463   2.78485   2.80093
 Alpha virt. eigenvalues --    2.80558   2.82850   2.83022   2.85222   2.85504
 Alpha virt. eigenvalues --    2.87629   2.89865   2.91349   2.93680   2.95910
 Alpha virt. eigenvalues --    2.96537   2.96961   3.04444   3.06551   3.08127
 Alpha virt. eigenvalues --    3.09631   3.14884   3.20773   3.25790   3.26840
 Alpha virt. eigenvalues --    3.29821   3.34950   3.39261   3.41014   3.46014
 Alpha virt. eigenvalues --    3.49751   3.52718   3.53433   3.55440   3.57855
 Alpha virt. eigenvalues --    3.58306   3.58590   3.59894   3.60615   3.61041
 Alpha virt. eigenvalues --    3.61896   3.61990   3.62978   3.64085   3.64900
 Alpha virt. eigenvalues --    3.67358   3.67746   3.72381   3.73300   3.74457
 Alpha virt. eigenvalues --    3.76900   3.78148   3.82611   3.83851   3.85778
 Alpha virt. eigenvalues --    3.88413   3.91406   3.98057   4.01904   4.03883
 Alpha virt. eigenvalues --    4.07721   4.10877   4.13490   4.16461   4.36428
 Alpha virt. eigenvalues --    5.12126
          Condensed to atoms (all electrons):
               1          2          3          4          5          6
     1  C    9.237664  -1.881354  -0.034809  -0.013356   0.106948  -0.057452
     2  C   -1.881354   7.660036  -1.062618  -0.241916  -0.294180   0.107016
     3  C   -0.034809  -1.062618  12.263695   0.134561  -0.387162  -0.315328
     4  O   -0.013356  -0.241916   0.134561   8.557267  -0.167636  -0.018106
     5  H    0.106948  -0.294180  -0.387162  -0.167636   2.153608   0.119885
     6  O   -0.057452   0.107016  -0.315328  -0.018106   0.119885   9.556071
     7  H   -0.060904   0.215783  -0.953799  -0.055228   0.051028  -0.139783
     8  N    0.470430  -0.192815  -0.784713  -0.007640  -0.124348  -0.145265
     9  C   -1.809298   0.531701  -2.817357   0.100928  -0.016851  -0.367506
    10  H   -0.942440   0.503347   0.458108   0.028208  -0.187567   0.011618
    11  O   -0.640237   0.130125   0.056042  -0.029088   0.003126   0.018632
    12  C   -0.091737   0.052710   0.102068  -0.012489  -0.018379  -0.023899
    13  H    0.420202   0.034345   0.306516  -0.000522  -0.002935  -0.119107
    14  O   -0.017456  -0.025699  -0.043875  -0.001036   0.013480  -0.059657
    15  H    0.131098   0.001724  -0.010348  -0.002279   0.004866   0.125774
    16  H   -0.079029  -0.011360   0.109810   0.000438  -0.005176  -0.081256
    17  H    0.227211  -0.111675  -0.046939  -0.010748   0.011067   0.001646
    18  H   -0.034033  -0.121398  -0.003351   0.329265   0.045745   0.015623
    19  H    0.000885   0.032058   0.005104   0.001223   0.001205   0.031336
    20  C   -0.016249   0.040438  -1.465257  -0.033632   0.295793   0.271644
    21  C    0.044499  -0.021180  -0.165693  -0.003420   0.012290  -0.012867
    22  C   -0.023100   0.029281  -0.237168   0.001617   0.041568   0.025269
    23  N    0.025454  -0.021415   0.092520  -0.001809  -0.014527  -0.015908
    24  C   -0.043929  -0.043916  -0.111975   0.030738  -0.060851  -0.054557
    25  H    0.114053  -0.178390  -0.068500  -0.013633  -0.075232  -0.049103
    26  H    0.001390  -0.000460   0.050347   0.000578   0.000211   0.001537
    27  O   -0.000161   0.001001  -0.001355  -0.000122  -0.000096   0.000254
    28  O   -0.009178   0.005288   0.197605  -0.000441  -0.004215   0.012141
               7          8          9         10         11         12
     1  C   -0.060904   0.470430  -1.809298  -0.942440  -0.640237  -0.091737
     2  C    0.215783  -0.192815   0.531701   0.503347   0.130125   0.052710
     3  C   -0.953799  -0.784713  -2.817357   0.458108   0.056042   0.102068
     4  O   -0.055228  -0.007640   0.100928   0.028208  -0.029088  -0.012489
     5  H    0.051028  -0.124348  -0.016851  -0.187567   0.003126  -0.018379
     6  O   -0.139783  -0.145265  -0.367506   0.011618   0.018632  -0.023899
     7  H    2.750378  -0.296005   0.119076   0.002870   0.009089   0.009296
     8  N   -0.296005   8.477236   0.035658  -0.075042  -0.015087   0.022311
     9  C    0.119076   0.035658  10.833747  -0.378861   0.264409  -0.437671
    10  H    0.002870  -0.075042  -0.378861   2.141890  -0.056564  -0.025058
    11  O    0.009089  -0.015087   0.264409  -0.056564   8.679646  -0.006855
    12  C    0.009296   0.022311  -0.437671  -0.025058  -0.006855   5.145875
    13  H    0.016115  -0.013322  -0.986563   0.072241  -0.072846  -0.059504
    14  O    0.001922   0.012725   0.112912   0.014737   0.003009   0.071394
    15  H    0.000990   0.002499  -0.374837  -0.026441   0.009482   0.218138
    16  H    0.006025  -0.008316   0.291993   0.014478  -0.000630   0.026287
    17  H    0.002159   0.006480  -0.032191  -0.108735   0.289487   0.006680
    18  H   -0.030410   0.011172   0.001818   0.001032   0.000142  -0.003154
    19  H    0.003556  -0.008972  -0.060503   0.001855   0.000703  -0.010518
    20  C   -0.010208   0.137764   0.271193  -0.052894  -0.000303  -0.083683
    21  C    0.064716  -0.426065  -0.029275  -0.003003   0.001116  -0.000598
    22  C   -0.027126  -0.009455   0.038089  -0.002084  -0.000373  -0.008340
    23  N   -0.013748   0.017004   0.006066   0.000668   0.000029   0.002093
    24  C   -0.018100  -0.020531  -0.171025   0.009221  -0.006050  -0.006837
    25  H    0.021379   0.130262  -0.071460  -0.001747  -0.000284   0.011920
    26  H   -0.000201   0.040306  -0.003574   0.000286  -0.000068  -0.000119
    27  O    0.000387  -0.017088   0.000520   0.000011   0.000002  -0.000023
    28  O    0.009969  -0.158178   0.025204   0.000348   0.001432   0.002170
              13         14         15         16         17         18
     1  C    0.420202  -0.017456   0.131098  -0.079029   0.227211  -0.034033
     2  C    0.034345  -0.025699   0.001724  -0.011360  -0.111675  -0.121398
     3  C    0.306516  -0.043875  -0.010348   0.109810  -0.046939  -0.003351
     4  O   -0.000522  -0.001036  -0.002279   0.000438  -0.010748   0.329265
     5  H   -0.002935   0.013480   0.004866  -0.005176   0.011067   0.045745
     6  O   -0.119107  -0.059657   0.125774  -0.081256   0.001646   0.015623
     7  H    0.016115   0.001922   0.000990   0.006025   0.002159  -0.030410
     8  N   -0.013322   0.012725   0.002499  -0.008316   0.006480   0.011172
     9  C   -0.986563   0.112912  -0.374837   0.291993  -0.032191   0.001818
    10  H    0.072241   0.014737  -0.026441   0.014478  -0.108735   0.001032
    11  O   -0.072846   0.003009   0.009482  -0.000630   0.289487   0.000142
    12  C   -0.059504   0.071394   0.218138   0.026287   0.006680  -0.003154
    13  H    1.932254   0.024076  -0.052466  -0.046069  -0.009955  -0.005163
    14  O    0.024076   8.327806  -0.171195  -0.053018  -0.001012  -0.000380
    15  H   -0.052466  -0.171195   1.732646  -0.343782   0.003773  -0.000388
    16  H   -0.046069  -0.053018  -0.343782   1.480420  -0.000668  -0.000455
    17  H   -0.009955  -0.001012   0.003773  -0.000668   0.656932   0.017593
    18  H   -0.005163  -0.000380  -0.000388  -0.000455   0.017593   0.687620
    19  H    0.011089   0.295805   0.027994  -0.062061  -0.000321  -0.000720
    20  C   -0.019584  -0.000840   0.009476  -0.013443   0.003980   0.030563
    21  C   -0.005227  -0.000012   0.001499  -0.000233   0.001212  -0.006310
    22  C    0.002323   0.000291  -0.000183  -0.000926  -0.000111   0.001176
    23  N   -0.000707  -0.000025   0.000088   0.000349   0.000088   0.001041
    24  C    0.008151   0.002234  -0.002534   0.002414  -0.001564  -0.012869
    25  H   -0.008323   0.010075   0.002421   0.007522   0.000960   0.004963
    26  H    0.000126   0.000304  -0.000019  -0.000118  -0.000002  -0.000130
    27  O    0.000051  -0.000006  -0.000000   0.000001  -0.000000   0.000036
    28  O   -0.001096   0.000063  -0.000014   0.000363  -0.000061  -0.001051
              19         20         21         22         23         24
     1  C    0.000885  -0.016249   0.044499  -0.023100   0.025454  -0.043929
     2  C    0.032058   0.040438  -0.021180   0.029281  -0.021415  -0.043916
     3  C    0.005104  -1.465257  -0.165693  -0.237168   0.092520  -0.111975
     4  O    0.001223  -0.033632  -0.003420   0.001617  -0.001809   0.030738
     5  H    0.001205   0.295793   0.012290   0.041568  -0.014527  -0.060851
     6  O    0.031336   0.271644  -0.012867   0.025269  -0.015908  -0.054557
     7  H    0.003556  -0.010208   0.064716  -0.027126  -0.013748  -0.018100
     8  N   -0.008972   0.137764  -0.426065  -0.009455   0.017004  -0.020531
     9  C   -0.060503   0.271193  -0.029275   0.038089   0.006066  -0.171025
    10  H    0.001855  -0.052894  -0.003003  -0.002084   0.000668   0.009221
    11  O    0.000703  -0.000303   0.001116  -0.000373   0.000029  -0.006050
    12  C   -0.010518  -0.083683  -0.000598  -0.008340   0.002093  -0.006837
    13  H    0.011089  -0.019584  -0.005227   0.002323  -0.000707   0.008151
    14  O    0.295805  -0.000840  -0.000012   0.000291  -0.000025   0.002234
    15  H    0.027994   0.009476   0.001499  -0.000183   0.000088  -0.002534
    16  H   -0.062061  -0.013443  -0.000233  -0.000926   0.000349   0.002414
    17  H   -0.000321   0.003980   0.001212  -0.000111   0.000088  -0.001564
    18  H   -0.000720   0.030563  -0.006310   0.001176   0.001041  -0.012869
    19  H    0.576979   0.010066   0.002802   0.006030  -0.002279   0.001153
    20  C    0.010066   9.222107  -1.831762   0.070997  -0.078313  -0.886655
    21  C    0.002802  -1.831762   9.831343  -2.639943   0.542036   0.608410
    22  C    0.006030   0.070997  -2.639943   9.600318  -0.642825  -0.604368
    23  N   -0.002279  -0.078313   0.542036  -0.642825   8.249227  -0.190577
    24  C    0.001153  -0.886655   0.608410  -0.604368  -0.190577   6.814595
    25  H   -0.040467  -1.024418  -0.101265  -0.338037   0.093070   0.125904
    26  H    0.000808   0.488507  -0.858001   0.199351  -0.089258  -0.090338
    27  O   -0.000142   0.081292  -0.056564   0.042257  -0.109286   0.039926
    28  O   -0.000221  -0.066718   0.009252   0.019273  -0.201073   0.073985
              25         26         27         28
     1  C    0.114053   0.001390  -0.000161  -0.009178
     2  C   -0.178390  -0.000460   0.001001   0.005288
     3  C   -0.068500   0.050347  -0.001355   0.197605
     4  O   -0.013633   0.000578  -0.000122  -0.000441
     5  H   -0.075232   0.000211  -0.000096  -0.004215
     6  O   -0.049103   0.001537   0.000254   0.012141
     7  H    0.021379  -0.000201   0.000387   0.009969
     8  N    0.130262   0.040306  -0.017088  -0.158178
     9  C   -0.071460  -0.003574   0.000520   0.025204
    10  H   -0.001747   0.000286   0.000011   0.000348
    11  O   -0.000284  -0.000068   0.000002   0.001432
    12  C    0.011920  -0.000119  -0.000023   0.002170
    13  H   -0.008323   0.000126   0.000051  -0.001096
    14  O    0.010075   0.000304  -0.000006   0.000063
    15  H    0.002421  -0.000019  -0.000000  -0.000014
    16  H    0.007522  -0.000118   0.000001   0.000363
    17  H    0.000960  -0.000002  -0.000000  -0.000061
    18  H    0.004963  -0.000130   0.000036  -0.001051
    19  H   -0.040467   0.000808  -0.000142  -0.000221
    20  C   -1.024418   0.488507   0.081292  -0.066718
    21  C   -0.101265  -0.858001  -0.056564   0.009252
    22  C   -0.338037   0.199351   0.042257   0.019273
    23  N    0.093070  -0.089258  -0.109286  -0.201073
    24  C    0.125904  -0.090338   0.039926   0.073985
    25  H    3.490999  -0.229602   0.007674  -0.000225
    26  H   -0.229602   2.099821  -0.014666   0.002430
    27  O    0.007674  -0.014666   8.800837  -0.005386
    28  O   -0.000225   0.002430  -0.005386   8.812622
 Mulliken charges:
               1
     1  C    0.974891
     2  C    0.863526
     3  C    0.733874
     4  O   -0.571721
     5  H   -0.501667
     6  O   -0.838656
     7  H   -0.679225
     8  N   -0.061005
     9  C    0.923659
    10  H   -0.400483
    11  O   -0.638089
    12  C    1.117925
    13  H   -0.424101
    14  O   -0.516622
    15  H   -0.287980
    16  H   -0.233561
    17  H    0.094716
    18  H    0.072022
    19  H    0.175553
    20  C    0.650144
    21  C    1.042242
    22  C    0.456201
    23  N   -0.647982
    24  C    0.609946
    25  H   -0.820518
    26  H   -0.599447
    27  O   -0.769354
    28  O   -0.724288
 Sum of Mulliken charges =  -1.00000
 Mulliken charges with hydrogens summed into heavy atoms:
               1
     1  C    0.574408
     2  C    0.361859
     3  C    0.054649
     4  O   -0.499699
     6  O   -0.838656
     8  N   -0.061005
     9  C    0.499558
    11  O   -0.543373
    12  C    0.596384
    14  O   -0.341069
    20  C   -0.170374
    21  C    0.442795
    22  C    0.456201
    23  N   -0.647982
    24  C    0.609946
    27  O   -0.769354
    28  O   -0.724288
 Electronic spatial extent (au):  <R**2>=           4384.9620
 Charge=             -1.0000 electrons
 Dipole moment (field-independent basis, Debye):
    X=            -17.1611    Y=              2.3626    Z=              2.2296  Tot=             17.4658
 Quadrupole moment (field-independent basis, Debye-Ang):
   XX=           -177.2124   YY=           -112.7291   ZZ=           -109.0155
   XY=              7.9734   XZ=              4.6975   YZ=             -8.2663
 Traceless Quadrupole moment (field-independent basis, Debye-Ang):
   XX=            -44.2267   YY=             20.2565   ZZ=             23.9702
   XY=              7.9734   XZ=              4.6975   YZ=             -8.2663
 Octapole moment (field-independent basis, Debye-Ang**2):
  XXX=           -377.9800  YYY=             -9.6971  ZZZ=             -1.2503  XYY=            -30.2501
  XXY=            -33.5287  XXZ=              9.1984  XZZ=            -25.5318  YZZ=             12.7143
  YYZ=             10.9169  XYZ=             -0.1893
 Hexadecapole moment (field-independent basis, Debye-Ang**3):
 XXXX=          -5763.7637 YYYY=          -1158.7621 ZZZZ=           -517.0910 XXXY=            -97.7645
 XXXZ=            -60.7501 YYYX=            118.4924 YYYZ=            -64.0159 ZZZX=              7.5096
 ZZZY=             -8.2443 XXYY=          -1002.6655 XXZZ=           -777.4429 YYZZ=           -304.5597
 XXYZ=           -118.5197 YYXZ=             25.0574 ZZXY=             20.0573
 N-N= 1.291521482917D+03 E-N=-4.731830130598D+03  KE= 9.048993004819D+02
 Calling FoFJK, ICntrl=      2127 FMM=F ISym2X=0 I1Cent= 0 IOpClX= 0 NMat=1 NMatS=1 NMatT=0.
 ***** Axes restored to original set *****
 -------------------------------------------------------------------
 Center     Atomic                   Forces (Hartrees/Bohr)
 Number     Number              X              Y              Z
 -------------------------------------------------------------------
      1        6           0.002383902    0.001421676    0.001859060
      2        6          -0.001018337    0.003601034   -0.003579074
      3        6           0.017652139    0.002750560    0.008396657
      4        8          -0.004097555   -0.002777885    0.002413850
      5        1           0.000492519   -0.000179665   -0.000410027
      6        8          -0.015406553    0.004386492   -0.002376454
      7        1           0.001706664   -0.000966214   -0.000810416
      8        7          -0.032549467    0.000507973    0.002131513
      9        6           0.007881114    0.001262643   -0.000766363
     10        1          -0.001545769    0.000104244    0.000175699
     11        8          -0.004994266   -0.002928383   -0.000688957
     12        6           0.000292637   -0.001491774    0.000724055
     13        1          -0.001127759   -0.000525822   -0.000538081
     14        8          -0.002163959    0.002497382   -0.000401517
     15        1          -0.000853544    0.000303438    0.000332715
     16        1           0.000407426    0.000196728   -0.000347281
     17        1           0.001930768    0.000533039   -0.000139957
     18        1           0.002686671    0.001298767   -0.001043987
     19        1           0.001816339   -0.002273798    0.000319470
     20        6          -0.002483673   -0.000416991    0.000559060
     21        6          -0.000287542    0.008898704    0.005536654
     22        6          -0.043330835   -0.050410691   -0.029322511
     23        7           0.001461561   -0.004522858   -0.003209461
     24        6           0.073707167    0.038634239    0.021263162
     25        1          -0.001056218    0.001163019    0.000682015
     26        1          -0.003239087    0.004466716    0.002685455
     27        8           0.025890651    0.017530872    0.009884157
     28        8          -0.024154994   -0.023063442   -0.013329436
 -------------------------------------------------------------------
 Cartesian Forces:  Max     0.073707167 RMS     0.014286325

 GradGradGradGradGradGradGradGradGradGradGradGradGradGradGradGradGradGrad
 Berny optimization.
 FormGI is forming the generalized inverse of G from B-inverse, IUseBI=4.
 Internal  Forces:  Max     0.031127458 RMS     0.006843379
 Search for a local minimum.
 Step number   1 out of a maximum of  166
 All quantities printed in internal units (Hartrees-Bohrs-Radians)
 Mixed Optimization -- RFO/linear search
 Second derivative matrix not updated -- first step.
 ITU=  0
     Eigenvalues ---    0.00365   0.00591   0.01037   0.01139   0.01466
     Eigenvalues ---    0.01479   0.01504   0.01565   0.01712   0.01724
     Eigenvalues ---    0.01846   0.01870   0.02087   0.02271   0.02480
     Eigenvalues ---    0.03052   0.03716   0.04317   0.04907   0.05020
     Eigenvalues ---    0.05038   0.05334   0.05481   0.05993   0.06054
     Eigenvalues ---    0.06145   0.06531   0.07879   0.08581   0.10289
     Eigenvalues ---    0.11571   0.13279   0.13937   0.15693   0.15999
     Eigenvalues ---    0.16000   0.16000   0.16000   0.16000   0.17022
     Eigenvalues ---    0.18631   0.20137   0.22059   0.22442   0.24480
     Eigenvalues ---    0.24988   0.24999   0.25000   0.25000   0.26501
     Eigenvalues ---    0.27334   0.28775   0.31029   0.33402   0.33437
     Eigenvalues ---    0.33643   0.33836   0.33904   0.33920   0.35035
     Eigenvalues ---    0.35332   0.36927   0.38219   0.39344   0.40822
     Eigenvalues ---    0.42907   0.43342   0.43456   0.44954   0.45881
     Eigenvalues ---    0.48122   0.49747   0.54262   0.54387   0.54870
     Eigenvalues ---    0.54922   0.96558   0.96920
 RFO step:  Lambda=-1.96871115D-02 EMin= 3.64642920D-03
 Linear search not attempted -- first point.
 Iteration  1 RMS(Cart)=  0.03264263 RMS(Int)=  0.00120937
 Iteration  2 RMS(Cart)=  0.00137775 RMS(Int)=  0.00006376
 Iteration  3 RMS(Cart)=  0.00000207 RMS(Int)=  0.00006375
 Iteration  4 RMS(Cart)=  0.00000000 RMS(Int)=  0.00006375
 Variable       Old X    -DE/DX   Delta X   Delta X   Delta X     New X
                                 (Linear)    (Quad)   (Total)
    R1        2.91393   0.00082   0.00000   0.00232   0.00232   2.91626
    R2        2.90476  -0.00029   0.00000  -0.00280  -0.00290   2.90186
    R3        2.07608   0.00103   0.00000   0.00286   0.00286   2.07895
    R4        2.67785   0.00359   0.00000   0.00801   0.00801   2.68586
    R5        2.89409   0.00099   0.00000   0.00397   0.00405   2.89814
    R6        2.64266   0.00167   0.00000   0.00350   0.00350   2.64616
    R7        2.07492  -0.00029   0.00000  -0.00082  -0.00082   2.07410
    R8        2.67060   0.00938   0.00000   0.02210   0.02218   2.69278
    R9        2.07937   0.00126   0.00000   0.00354   0.00354   2.08291
   R10        2.72454  -0.00798   0.00000  -0.01932  -0.01932   2.70523
   R11        1.82380  -0.00080   0.00000  -0.00143  -0.00143   1.82238
   R12        2.71155  -0.00560   0.00000  -0.01371  -0.01377   2.69778
   R13        2.59552  -0.00868   0.00000  -0.01497  -0.01497   2.58055
   R14        2.63940   0.02453   0.00000   0.05148   0.05152   2.69092
   R15        2.85958  -0.00044   0.00000  -0.00133  -0.00133   2.85825
   R16        2.08351   0.00108   0.00000   0.00305   0.00305   2.08657
   R17        1.81948  -0.00090   0.00000  -0.00159  -0.00159   1.81789
   R18        2.67249  -0.00005   0.00000  -0.00010  -0.00010   2.67239
   R19        2.07466   0.00084   0.00000   0.00233   0.00233   2.07699
   R20        2.08290   0.00045   0.00000   0.00128   0.00128   2.08418
   R21        1.81902   0.00118   0.00000   0.00208   0.00208   1.82109
   R22        2.54768  -0.00556   0.00000  -0.00856  -0.00860   2.53908
   R23        2.05617   0.00167   0.00000   0.00451   0.00451   2.06068
   R24        2.74416   0.01650   0.00000   0.04082   0.04078   2.78494
   R25        2.05139   0.00438   0.00000   0.01175   0.01175   2.06313
   R26        2.64697  -0.01881   0.00000  -0.04144  -0.04144   2.60554
   R27        2.30050   0.02959   0.00000   0.03004   0.03004   2.33053
   R28        2.59853  -0.02239   0.00000  -0.04435  -0.04431   2.55423
   R29        2.29898   0.03113   0.00000   0.03148   0.03148   2.33046
    A1        1.80940  -0.00078   0.00000  -0.00344  -0.00349   1.80591
    A2        1.94231   0.00033   0.00000   0.00224   0.00225   1.94456
    A3        1.94041   0.00085   0.00000   0.00744   0.00747   1.94788
    A4        1.94437  -0.00012   0.00000   0.00078   0.00082   1.94519
    A5        1.88555   0.00077   0.00000   0.00328   0.00327   1.88882
    A6        1.93740  -0.00099   0.00000  -0.00961  -0.00962   1.92778
    A7        1.77540   0.00282   0.00000   0.01359   0.01371   1.78910
    A8        2.00694  -0.00172   0.00000  -0.01082  -0.01092   1.99602
    A9        1.90709  -0.00080   0.00000  -0.00279  -0.00281   1.90429
   A10        2.00022  -0.00070   0.00000   0.00105   0.00108   2.00130
   A11        1.91297  -0.00045   0.00000  -0.00211  -0.00215   1.91082
   A12        1.85955   0.00081   0.00000   0.00108   0.00107   1.86062
   A13        1.81592  -0.00502   0.00000  -0.01660  -0.01678   1.79914
   A14        1.92684   0.00102   0.00000  -0.00019  -0.00020   1.92664
   A15        2.01831   0.00277   0.00000   0.01593   0.01585   2.03415
   A16        1.94924  -0.00001   0.00000  -0.00494  -0.00488   1.94436
   A17        1.90722   0.00471   0.00000   0.02868   0.02863   1.93585
   A18        1.84862  -0.00326   0.00000  -0.02188  -0.02176   1.82686
   A19        1.88027  -0.00175   0.00000  -0.00972  -0.00972   1.87054
   A20        1.86852   0.00251   0.00000   0.01266   0.01276   1.88128
   A21        2.09855   0.00011   0.00000  -0.00206  -0.00207   2.09648
   A22        2.06586   0.00392   0.00000   0.01204   0.01202   2.07788
   A23        2.11837  -0.00402   0.00000  -0.00995  -0.00992   2.10845
   A24        1.86589   0.00113   0.00000   0.00256   0.00248   1.86836
   A25        2.00568   0.00018   0.00000   0.00078   0.00080   2.00648
   A26        1.88254  -0.00028   0.00000   0.00032   0.00032   1.88286
   A27        1.87797  -0.00173   0.00000  -0.00948  -0.00943   1.86854
   A28        1.91215   0.00059   0.00000   0.00642   0.00641   1.91856
   A29        1.91782   0.00016   0.00000  -0.00010  -0.00010   1.91771
   A30        1.88505  -0.00184   0.00000  -0.01021  -0.01021   1.87483
   A31        1.95255  -0.00070   0.00000  -0.00354  -0.00357   1.94898
   A32        1.90354   0.00164   0.00000   0.01245   0.01246   1.91600
   A33        1.90928  -0.00099   0.00000  -0.00847  -0.00849   1.90078
   A34        1.86860  -0.00030   0.00000   0.00014   0.00014   1.86874
   A35        1.94251   0.00043   0.00000  -0.00159  -0.00164   1.94087
   A36        1.88545   0.00001   0.00000   0.00184   0.00187   1.88731
   A37        1.86444  -0.00148   0.00000  -0.00821  -0.00821   1.85623
   A38        2.15300  -0.01020   0.00000  -0.03543  -0.03548   2.11753
   A39        2.00173   0.00550   0.00000   0.01993   0.01995   2.02168
   A40        2.12836   0.00470   0.00000   0.01547   0.01549   2.14385
   A41        2.08627  -0.00068   0.00000   0.00012   0.00003   2.08631
   A42        2.12627  -0.00406   0.00000  -0.02457  -0.02453   2.10174
   A43        2.07063   0.00474   0.00000   0.02445   0.02449   2.09513
   A44        1.97543   0.01821   0.00000   0.06437   0.06433   2.03976
   A45        2.20735  -0.02536   0.00000  -0.09245  -0.09242   2.11492
   A46        2.10041   0.00715   0.00000   0.02808   0.02810   2.12851
   A47        2.24497  -0.02308   0.00000  -0.09190  -0.09184   2.15313
   A48        1.98820   0.01978   0.00000   0.07284   0.07292   2.06113
   A49        2.15224  -0.03058   0.00000  -0.11315  -0.11319   2.03905
   A50        2.14272   0.01081   0.00000   0.04032   0.04028   2.18300
    D1       -0.38810  -0.00073   0.00000   0.00456   0.00458  -0.38352
    D2       -2.56035  -0.00088   0.00000  -0.00018  -0.00013  -2.56049
    D3        1.63335  -0.00019   0.00000   0.00770   0.00773   1.64108
    D4       -2.48002  -0.00030   0.00000   0.00453   0.00454  -2.47548
    D5        1.63091  -0.00044   0.00000  -0.00021  -0.00018   1.63073
    D6       -0.45857   0.00025   0.00000   0.00767   0.00769  -0.45088
    D7        1.63376   0.00013   0.00000   0.00991   0.00991   1.64366
    D8       -0.53849  -0.00002   0.00000   0.00517   0.00519  -0.53331
    D9       -2.62798   0.00067   0.00000   0.01306   0.01305  -2.61492
   D10       -0.00916  -0.00053   0.00000  -0.00446  -0.00443  -0.01359
   D11       -2.09166   0.00074   0.00000   0.00520   0.00521  -2.08645
   D12        2.04590   0.00062   0.00000   0.00455   0.00455   2.05045
   D13        2.08136  -0.00066   0.00000  -0.00344  -0.00342   2.07794
   D14       -0.00114   0.00061   0.00000   0.00623   0.00623   0.00509
   D15       -2.14677   0.00049   0.00000   0.00558   0.00557  -2.14120
   D16       -2.06946  -0.00146   0.00000  -0.01273  -0.01270  -2.08217
   D17        2.13122  -0.00019   0.00000  -0.00307  -0.00306   2.12817
   D18       -0.01440  -0.00031   0.00000  -0.00372  -0.00372  -0.01812
   D19        1.35294  -0.00073   0.00000  -0.02501  -0.02501   1.32793
   D20       -2.95589  -0.00079   0.00000  -0.02340  -0.02342  -2.97930
   D21       -0.81924  -0.00105   0.00000  -0.02631  -0.02629  -0.84553
   D22        0.67162  -0.00212   0.00000  -0.01514  -0.01501   0.65661
   D23       -1.42206   0.00025   0.00000   0.00030   0.00028  -1.42178
   D24        2.76317   0.00179   0.00000   0.01796   0.01793   2.78110
   D25        2.84838  -0.00267   0.00000  -0.01841  -0.01828   2.83010
   D26        0.75470  -0.00029   0.00000  -0.00298  -0.00299   0.75171
   D27       -1.34326   0.00125   0.00000   0.01468   0.01466  -1.32860
   D28       -1.34552  -0.00242   0.00000  -0.01785  -0.01775  -1.36327
   D29        2.84398  -0.00004   0.00000  -0.00242  -0.00246   2.84152
   D30        0.74602   0.00150   0.00000   0.01524   0.01519   0.76121
   D31        1.03714   0.00283   0.00000   0.05247   0.05250   1.08964
   D32       -1.01162   0.00089   0.00000   0.04167   0.04164  -0.96998
   D33       -3.13044   0.00132   0.00000   0.04291   0.04292  -3.08753
   D34       -0.70904   0.00137   0.00000   0.01143   0.01131  -0.69773
   D35        1.36942  -0.00040   0.00000  -0.00116  -0.00111   1.36831
   D36       -2.87426  -0.00149   0.00000  -0.01312  -0.01306  -2.88732
   D37       -1.06634   0.00084   0.00000   0.00194   0.00174  -1.06460
   D38        2.10548   0.00086   0.00000   0.00082   0.00060   2.10607
   D39        0.97463  -0.00044   0.00000   0.01139   0.01165   0.98627
   D40       -2.13674  -0.00043   0.00000   0.01027   0.01051  -2.12623
   D41        3.07685   0.00020   0.00000   0.00836   0.00834   3.08519
   D42       -0.03452   0.00021   0.00000   0.00724   0.00720  -0.02732
   D43        0.44942   0.00035   0.00000  -0.00007  -0.00007   0.44935
   D44        2.61265   0.00023   0.00000  -0.00313  -0.00311   2.60953
   D45       -1.58612  -0.00026   0.00000  -0.00519  -0.00519  -1.59130
   D46       -3.12260   0.00016   0.00000   0.00179   0.00167  -3.12092
   D47        0.00521   0.00001   0.00000  -0.00063  -0.00068   0.00453
   D48       -0.01215   0.00028   0.00000   0.00333   0.00322  -0.00893
   D49        3.11565   0.00014   0.00000   0.00092   0.00087   3.11652
   D50        3.12764   0.00004   0.00000  -0.00175  -0.00184   3.12580
   D51       -0.01989   0.00009   0.00000   0.00025   0.00014  -0.01975
   D52        0.01663  -0.00002   0.00000  -0.00303  -0.00313   0.01350
   D53       -3.13090   0.00003   0.00000  -0.00103  -0.00115  -3.13205
   D54        1.00873   0.00030   0.00000  -0.00139  -0.00142   1.00730
   D55       -1.05507   0.00005   0.00000  -0.00740  -0.00743  -1.06249
   D56       -3.11379  -0.00034   0.00000  -0.01197  -0.01197  -3.12576
   D57       -1.06704  -0.00002   0.00000   0.00158   0.00158  -1.06545
   D58       -3.13083  -0.00028   0.00000  -0.00443  -0.00442  -3.13525
   D59        1.09363  -0.00067   0.00000  -0.00900  -0.00896   1.08467
   D60        3.13534   0.00019   0.00000  -0.00049  -0.00051   3.13484
   D61        1.07155  -0.00007   0.00000  -0.00650  -0.00651   1.06504
   D62       -0.98718  -0.00045   0.00000  -0.01107  -0.01105  -0.99823
   D63        1.16739  -0.00244   0.00000  -0.05199  -0.05199   1.11540
   D64       -3.03130  -0.00103   0.00000  -0.03872  -0.03872  -3.07003
   D65       -0.97448  -0.00097   0.00000  -0.03730  -0.03730  -1.01178
   D66        0.00068   0.00002   0.00000  -0.00076  -0.00077  -0.00009
   D67        3.13960  -0.00009   0.00000  -0.00239  -0.00233   3.13727
   D68       -3.12615   0.00018   0.00000   0.00183   0.00175  -3.12440
   D69        0.01277   0.00007   0.00000   0.00020   0.00019   0.01296
   D70        0.00443  -0.00002   0.00000  -0.00011  -0.00005   0.00438
   D71       -3.13815  -0.00004   0.00000  -0.00069  -0.00065  -3.13880
   D72       -3.13457   0.00010   0.00000   0.00154   0.00158  -3.13300
   D73        0.00603   0.00007   0.00000   0.00096   0.00098   0.00701
   D74        0.00165  -0.00004   0.00000  -0.00110  -0.00110   0.00055
   D75       -3.13902   0.00001   0.00000  -0.00048  -0.00042  -3.13944
   D76       -0.01192   0.00011   0.00000   0.00274   0.00273  -0.00919
   D77        3.13557   0.00021   0.00000   0.00135   0.00115   3.13672
         Item               Value     Threshold  Converged?
 Maximum Force            0.031127     0.000450     NO 
 RMS     Force            0.006843     0.000300     NO 
 Maximum Displacement     0.166700     0.001800     NO 
 RMS     Displacement     0.032728     0.001200     NO 
 Predicted change in Energy=-1.060138D-02
 GradGradGradGradGradGradGradGradGradGradGradGradGradGradGradGradGradGrad

                          Input orientation:                          
 ---------------------------------------------------------------------
 Center     Atomic      Atomic             Coordinates (Angstroms)
 Number     Number       Type             X           Y           Z
 ---------------------------------------------------------------------
      1          6           0       -2.676430   -0.496006    0.455164
      2          6           0       -1.231063   -0.689595    0.960096
      3          6           0       -0.401179   -0.443278   -0.305857
      4          8           0       -0.996612   -1.922148    1.581909
      5          1           0       -1.003407    0.085105    1.703512
      6          8           0       -1.105091    0.613586   -0.952428
      7          1           0       -0.375512   -1.350852   -0.930803
      8          7           0        0.974390   -0.097541   -0.111968
      9          6           0       -2.502425    0.359094   -0.808396
     10          1           0       -3.298600    0.015458    1.204563
     11          8           0       -3.268763   -1.731573    0.077549
     12          6           0       -3.196519    1.702421   -0.770657
     13          1           0       -2.868498   -0.228591   -1.668507
     14          8           0       -2.761185    2.484517    0.324188
     15          1           0       -4.279805    1.558169   -0.653621
     16          1           0       -3.020820    2.222463   -1.727252
     17          1           0       -3.507362   -2.195492    0.885799
     18          1           0       -1.146744   -2.607823    0.920622
     19          1           0       -1.824993    2.659621    0.177342
     20          6           0        1.306013    1.034877    0.575366
     21          6           0        2.588498    1.394873    0.751332
     22          6           0        3.662305    0.553811    0.193274
     23          7           0        3.274659   -0.575467   -0.496309
     24          6           0        1.982768   -0.930213   -0.675468
     25          1           0        0.469422    1.624746    0.951244
     26          1           0        2.836766    2.305544    1.299955
     27          8           0        4.849526    0.854047    0.339250
     28          8           0        1.600731   -1.928921   -1.289859
 ---------------------------------------------------------------------
                    Distance matrix (angstroms):
                    1          2          3          4          5
     1  C    0.000000
     2  C    1.543217   0.000000
     3  C    2.399728   1.533628   0.000000
     4  O    2.474919   1.400288   2.470881   0.000000
     5  H    2.166811   1.097568   2.163199   2.010945   0.000000
     6  O    2.383614   2.317736   1.424959   3.586723   2.709917
     7  H    2.818845   2.178240   1.102228   2.650635   3.065263
     8  N    3.716032   2.522671   1.431544   3.175414   2.690912
     9  C    1.535596   2.417369   2.304687   3.631129   2.937993
    10  H    1.100132   2.198084   3.299523   3.032467   2.349832
    11  O    1.421294   2.452923   3.166976   2.731683   3.328050
    12  C    2.570255   3.546867   3.554432   4.848882   3.680620
    13  H    2.149041   3.131018   2.826760   4.115495   3.866198
    14  O    2.984603   3.580592   3.812948   4.910629   3.278643
    15  H    2.831934   4.117202   4.378410   5.281057   4.296601
    16  H    3.503087   4.348006   3.998632   5.676775   4.517566
    17  H    1.940141   2.730345   3.760142   2.619762   3.484188
    18  H    2.648841   1.920486   2.597185   0.964360   2.808082
    19  H    3.280261   3.490373   3.448001   4.863294   3.103600
    20  C    4.268244   3.091695   2.424047   3.880620   2.740110
    21  C    5.602017   4.356332   3.665326   4.954341   3.940040
    22  C    6.430417   5.106773   4.213695   5.455657   4.926396
    23  N    6.027194   4.736631   3.683142   4.937236   4.855658
    24  C    4.814040   3.614094   2.461081   3.867349   3.950653
    25  H    3.826234   2.871916   2.571959   3.889402   2.259563
    26  H    6.241609   5.062963   4.540809   5.713813   4.454227
    27  O    7.646966   6.304113   5.446937   6.590052   6.058820
    28  O    4.836574   3.823256   2.680119   3.872116   4.449506
                    6          7          8          9         10
     6  O    0.000000
     7  H    2.095655   0.000000
     8  N    2.352938   2.015816   0.000000
     9  C    1.427604   2.731787   3.575160   0.000000
    10  H    3.133983   3.869242   4.472635   2.191799   0.000000
    11  O    3.352924   3.087495   4.550860   2.396468   2.079223
    12  C    2.364883   4.160073   4.590230   1.512521   2.599569
    13  H    2.081258   2.831724   4.148226   1.104163   2.915318
    14  O    2.805847   4.687909   4.561993   2.422215   2.675842
    15  H    3.325708   4.876755   5.535461   2.149608   2.606831
    16  H    2.618942   4.516699   4.894207   2.141302   3.680160
    17  H    4.128063   3.717788   5.048073   3.225850   2.243544
    18  H    3.726597   2.366970   3.444847   3.691879   3.404806
    19  H    2.445588   4.406004   3.939820   2.592878   3.196607
    20  C    2.885319   3.284475   1.365567   4.108002   4.757895
    21  C    4.141956   4.376520   2.361764   5.424304   6.063507
    22  C    4.903496   4.603830   2.782503   6.248612   7.054554
    23  N    4.561151   3.756827   2.380624   5.860503   6.815416
    24  C    3.463364   2.409069   1.423974   4.668719   5.685213
    25  H    2.669364   3.620801   2.086069   3.678326   4.105115
    26  H    4.845017   5.353899   3.352132   6.061416   6.549527
    27  O    6.097845   5.811680   4.015694   7.457429   8.236744
    28  O    3.728226   2.090124   2.265763   4.722574   5.831483
                   11         12         13         14         15
    11  O    0.000000
    12  C    3.537935   0.000000
    13  H    2.338349   2.154656   0.000000
    14  O    4.253690   1.414169   3.367982   0.000000
    15  H    3.518411   1.099098   2.492848   2.029886   0.000000
    16  H    4.353525   1.102900   2.456485   2.084344   1.782980
    17  H    0.961987   4.246669   3.286537   4.772282   4.129946
    18  H    2.445721   5.063616   3.915197   5.375321   5.445163
    19  H    4.623528   1.922503   3.582992   0.963681   2.815991
    20  C    5.369325   4.746597   4.904882   4.325119   5.743310
    21  C    6.673541   5.989779   6.186280   5.476211   7.012428
    22  C    7.299047   7.020821   6.835918   6.708651   8.050036
    23  N    6.669503   6.865871   6.263605   6.816754   7.851566
    24  C    5.365425   5.810751   5.001318   5.929990   6.738868
    25  H    5.099240   4.050938   4.630299   3.401358   5.013501
    26  H    7.420922   6.407161   6.912572   5.685175   7.417589
    27  O    8.524115   8.166423   8.048048   7.783417   9.210118
    28  O    5.061692   6.039025   4.796718   6.411700   6.866244
                   16         17         18         19         20
    16  H    0.000000
    17  H    5.155879   0.000000
    18  H    5.818510   2.396611   0.000000
    19  H    2.290980   5.186945   5.362691   0.000000
    20  C    5.043203   5.805191   4.405053   3.549847   0.000000
    21  C    6.188112   7.075896   5.477432   4.626873   1.343624
    22  C    7.151012   7.709889   5.801028   5.877510   2.435063
    23  N    6.998335   7.108482   5.068232   6.076681   2.759939
[...]
 004184,0.00002975,-0.00001078,0.00003532,-0.00000778,0.00006151,-0.000
 04187,-0.00069494,0.00011939,0.00001146,-0.00005497,-0.00009381,-0.000
 32023,-0.08116691,0.00001776,-0.07422472,0.12946644,-0.05053161,0.1342
 2042,-0.00025341,-0.00010868,-0.00045901,0.00048376,-0.00027353,0.0010
 2976,-0.00611201,-0.00014173,-0.00175228,0.00289421,0.00021521,-0.0007
 8658,-0.00014163,0.00000774,0.00008906,0.00385604,-0.00129325,0.000590
 68,0.00105958,0.00029750,0.00037376,0.00968497,0.00868270,0.00206919,-
 0.00202762,-0.00022714,0.00012690,0.00042291,-0.00002869,-0.00002269,0
 .00112455,0.00046891,0.00034519,0.00004003,0.00036527,-0.00013316,0.00
 034463,0.00004894,0.00020170,0.00041364,-0.00057528,-0.00009478,0.0002
 0821,-0.00007716,-0.00008796,-0.00009209,-0.00010506,0.00009030,-0.000
 72922,-0.00027586,-0.00021727,-0.00386035,-0.00067412,0.00094283,-0.00
 049360,0.00052373,0.00022135,-0.03440778,0.01354028,-0.01010832,-0.126
 73322,0.06094083,-0.01835500,0.85897869,-0.00020187,0.00027595,0.00062
 665,-0.00129925,0.00392481,-0.00130343,0.00082350,-0.00089453,0.000871
 38,0.00713366,-0.00341557,-0.00045844,-0.00003856,-0.00038299,-0.00021
 320,0.00047227,-0.00229353,0.00024323,-0.00119615,-0.00074567,-0.00090
 303,0.01185692,-0.05339216,0.00981439,0.00074949,-0.00023268,0.0000909
 0,-0.00006023,-0.00001606,-0.00006683,0.00049503,-0.00093394,0.0002441
 2,0.00022533,0.00038179,0.00031584,-0.00005461,-0.00008600,0.00000397,
 -0.00029613,-0.00064154,-0.00018359,-0.00007431,-0.00004792,-0.0000567
 5,0.00004583,-0.00012792,0.00002422,-0.00085150,0.00018113,-0.00052469
 ,-0.01023627,0.00008426,0.00179352,0.00064087,0.00052043,-0.00015231,0
 .03419113,0.05696480,0.00040925,0.03917428,-0.18451595,0.02136273,0.07
 411326,0.56407910,0.00005182,-0.00004306,-0.00026003,0.00032445,-0.000
 94389,0.00078045,-0.00112511,0.00006148,-0.00115881,-0.00178812,0.0009
 4314,-0.00017751,0.00001372,0.00004302,-0.00000305,0.00077539,-0.00005
 403,0.00005756,0.00017259,-0.00009235,0.00009352,0.00231384,0.00832540
 ,-0.00821284,-0.00062271,0.00003850,0.00000532,0.00011890,-0.00000346,
 0.00001391,0.00007649,0.00028302,-0.00005124,-0.00000111,0.00004175,0.
 00002975,0.00007467,0.00001626,0.00002344,0.00005424,-0.00006726,-0.00
 009575,0.00004014,-0.00001016,-0.00003019,-0.00002847,0.00001310,-0.00
 000680,0.00004837,-0.00007531,0.00012908,0.00229051,-0.00011215,0.0001
 1398,-0.00002991,0.00003943,0.00010295,-0.01376759,-0.00416924,0.00194
 349,-0.01388501,0.02588429,-0.08791683,0.11966678,-0.03131177,0.244773
 76,0.00027474,0.00006315,-0.00019734,0.00079776,-0.00376613,0.00015770
 ,0.00575582,0.00403941,-0.00032661,-0.00992561,0.00306841,0.00191603,0
 .00006813,0.00052471,0.00021188,-0.00486659,0.00248283,-0.00078590,-0.
 00000753,0.00028364,0.00053485,-0.05296504,0.03920557,-0.02228527,0.00
 115450,0.00047591,-0.00036453,-0.00026563,0.00002066,0.00009327,-0.001
 20140,0.00043152,-0.00045580,-0.00029163,-0.00062155,-0.00019978,-0.00
 028925,0.00003349,-0.00014034,-0.00004919,0.00091004,0.00032036,-0.000
 11069,0.00013287,0.00013255,0.00003879,0.00017223,-0.00006785,0.001298
 63,0.00005560,0.00067614,0.01392278,0.00045399,-0.00393112,-0.00014072
 ,-0.00076160,-0.00020454,-0.02010252,-0.03130093,-0.00036090,0.0316624
 0,0.00624691,0.00350726,-0.10461829,-0.04821814,-0.00280711,0.60434457
 ,0.00020642,-0.00045311,-0.00039586,0.00070993,-0.00497840,0.00122827,
 -0.00017294,-0.00776201,0.00048161,-0.01128591,0.00455578,0.00171537,0
 .00004995,0.00063846,0.00017788,0.00248729,0.00241022,0.00012169,0.000
 50078,0.00062361,0.00087895,0.02175848,0.03198296,0.00420934,-0.000378
 08,-0.00041780,0.00042234,-0.00000520,0.00007229,0.00003626,-0.0007904
 5,0.00107376,-0.00038979,0.00009153,-0.00021879,-0.00019005,0.00020228
 ,0.00008593,-0.00005570,0.00012835,0.00059337,0.00010868,0.00006259,-0
 .00004715,0.00001546,-0.00003194,0.00014792,-0.00002495,0.00119111,-0.
 00016177,0.00072708,0.01501645,-0.00011193,-0.00471151,-0.00038145,-0.
 00043415,0.00006288,-0.01216297,-0.01704946,-0.00085710,0.00461112,-0.
 04076122,0.00948579,-0.02520907,-0.27173670,0.02189120,0.18647538,0.47
 364856,-0.00006979,0.00002906,0.00008212,-0.00072473,-0.00080384,-0.00
 028887,0.00046673,0.00296514,0.00412426,-0.00109991,0.00028309,0.00022
 929,-0.00001932,0.00010846,-0.00008624,-0.00094896,-0.00010170,-0.0000
 3616,0.00055409,-0.00018022,-0.00019817,-0.01984711,0.00716851,0.01505
 956,0.00021288,0.00003665,-0.00019840,-0.00008387,0.00000529,0.0000102
 9,-0.00009763,-0.00006719,-0.00000678,-0.00004556,-0.00007631,-0.00008
 609,-0.00011088,0.00001757,-0.00000610,-0.00000979,0.00010337,0.000131
 96,-0.00001597,0.00001990,0.00002903,0.00001045,-0.00000055,0.00001079
 ,0.00005775,0.00004988,0.00000401,0.00147353,0.00048667,-0.00014679,0.
 00002994,-0.00008865,-0.00010564,-0.00236987,-0.00419262,-0.00094222,0
 .00189248,0.00894896,0.01812549,-0.00628629,0.01854661,-0.06555251,0.0
 8668318,-0.02000211,0.08263982,-0.00043107,0.00069952,-0.00057577,-0.0
 0163584,0.00325283,0.00038612,-0.03279750,0.02333321,-0.00942392,0.004
 91977,-0.00078364,0.00038583,-0.00030591,-0.00014553,0.00012225,0.0002
 9332,-0.00557873,0.00069294,-0.00011501,0.00032767,-0.00153407,-0.1503
 5011,-0.00759725,-0.02061394,-0.00173907,0.00032989,-0.00072192,0.0005
 6530,-0.00011921,0.00001074,0.00179628,-0.00021140,0.00066822,-0.00004
 438,0.00057542,0.00009764,0.00002063,-0.00000158,0.00021492,0.00018722
 ,-0.00111310,-0.00029762,0.00013397,-0.00003489,-0.00011898,-0.0000457
 1,-0.00022652,0.00008212,-0.00150198,-0.00023591,-0.00060032,-0.010478
 20,-0.00839880,0.00065476,0.00014830,0.00092791,0.00028093,0.04464737,
 0.04423734,0.00481240,-0.02878571,0.00479914,-0.00816346,-0.04329290,-
 0.06985298,0.00553658,-0.35414525,-0.05320131,-0.05140250,0.70398546,-
 0.00049203,0.00078797,0.00220033,-0.00689204,0.01720193,-0.00573441,0.
 01952812,0.03068825,0.00444314,0.03625444,-0.01392296,-0.00419838,0.00
 028918,-0.00194426,-0.00107579,-0.01225760,-0.00599604,-0.00138685,-0.
 00568425,-0.00293508,-0.00401746,0.02005477,-0.13503795,0.01644709,0.0
 0277091,0.00151874,-0.00171899,-0.00072976,-0.00015226,-0.00015009,0.0
 0114393,-0.00404559,0.00084810,-0.00053083,-0.00016460,0.00033250,-0.0
 0102719,-0.00019835,-0.00003479,-0.00038165,-0.00050530,0.00006742,-0.
 00029967,0.00027947,0.00009721,0.00011982,-0.00025153,-0.00003151,-0.0
 0321367,0.00092221,-0.00233459,-0.04765444,-0.00383762,0.01335247,0.00
 084373,0.00010855,-0.00032368,0.00256858,-0.05204705,0.00797503,0.0117
 0384,0.00229741,0.00273314,-0.04702439,-0.00596244,-0.01072265,-0.0367
 9468,-0.11844388,-0.00074801,0.19958382,0.71620080,0.00037472,-0.00024
 511,0.00005189,0.00135104,-0.00047837,0.00163414,-0.00973216,0.0018396
 5,-0.00595623,0.00013692,0.00089876,-0.00001977,0.00000886,-0.00009373
 ,0.00009521,-0.00024755,0.00001026,-0.00026988,-0.00013512,0.00072113,
 0.00126536,-0.02394553,0.00568846,-0.07369043,-0.00044729,0.00053959,0
 .00029928,0.00016559,0.00000480,-0.00004310,0.00015864,0.00033169,-0.0
 0020245,-0.00011325,0.00003843,0.00002757,0.00021216,0.00001455,0.0000
 0516,0.00011164,-0.00011574,-0.00016307,0.00002856,-0.00000188,-0.0000
 2200,-0.00002909,0.00001117,-0.00000556,0.00012236,-0.00014040,0.00016
 964,0.00033119,0.00201948,-0.00201019,-0.00014891,0.00014894,0.0002008
 0,0.01008880,0.01795986,0.00109161,-0.00859917,0.00069966,-0.00211476,
 0.00240794,-0.01710827,-0.01604411,-0.05367751,-0.00423503,-0.08139030
 ,0.06962608,-0.04044785,0.24244743,-0.00010256,-0.00013099,0.00005698,
 -0.00009593,-0.00004860,0.00015572,-0.00030264,-0.00018691,0.00022177,
 -0.00021156,0.00032261,-0.00015977,0.00003067,0.00003515,-0.00000319,-
 0.00438116,-0.00338160,-0.00153000,0.00020389,0.00026892,-0.00004527,0
 .01164373,-0.00806002,0.00346286,-0.00111181,-0.00031457,0.00019088,-0
 .00000058,0.00001995,-0.00002337,0.00005175,0.00018952,-0.00001793,-0.
 00009148,0.00001010,-0.00007432,0.00019983,0.00004089,0.00004643,0.000
 11904,-0.00008631,-0.00019604,0.00005848,-0.00001429,-0.00004475,-0.00
 006165,0.00004935,-0.00001315,0.00002032,-0.00003752,0.00002040,0.0003
 2667,-0.00002198,-0.00005528,-0.00023589,0.00020879,0.00075261,-0.1865
 7585,0.13914296,-0.05718276,-0.01119928,0.02163055,-0.00778996,-0.0016
 8270,-0.00513395,-0.00285613,0.00005200,0.00019935,0.00061120,-0.00054
 430,-0.00176559,-0.00075150,0.19568529,0.00012322,-0.00024934,-0.00003
 151,-0.00001630,-0.00043769,0.00006406,0.00361727,-0.00161606,0.001068
 93,-0.00071711,0.00054654,-0.00003546,0.00003712,0.00002443,0.00006252
 ,0.00061766,0.00150432,-0.00032243,-0.00027968,0.00001362,-0.00004480,
 0.02291546,-0.02489047,0.00965202,-0.00106541,0.00059061,0.00014294,0.
 00001007,0.00007227,-0.00008168,-0.00005950,0.00027560,-0.00003937,-0.
 00007963,0.00010208,-0.00005125,0.00030697,0.00005363,0.00002720,0.000
 14773,-0.00020203,-0.00009640,0.00006276,-0.00004346,0.00000476,0.0000
 1614,0.00001443,0.00003767,0.00012396,-0.00003873,0.00005450,0.0010754
 9,0.00004758,-0.00032957,-0.00045172,0.00036769,0.00022958,0.13004935,
 -0.19229723,0.05513663,-0.00560237,0.00937718,-0.00134176,-0.00209602,
 0.00007155,0.00151860,0.00096831,0.00073442,-0.00029863,-0.00789630,0.
 00076402,-0.00149967,-0.14278104,0.20777321,0.00008448,0.00005052,-0.0
 0011139,0.00026138,0.00032471,0.00049025,0.00015118,0.00004369,-0.0015
 0597,0.00004799,-0.00008172,-0.00016256,0.00002624,-0.00003775,-0.0001
 3398,-0.00146347,-0.00158162,-0.00076192,-0.00022555,0.00002683,0.0000
 0529,-0.00136793,0.00229718,0.00206476,-0.00034148,-0.00003520,-0.0001
 1179,0.00005699,0.00001860,0.00000552,0.00000980,-0.00001000,-0.000047
 34,0.00023339,0.00012077,0.00059747,-0.00000580,-0.00004221,0.00000347
 ,-0.00034968,-0.00026551,-0.00040351,-0.00003852,-0.00003505,-0.000096
 81,-0.00003143,0.00005185,-0.00011008,-0.00000175,-0.00000384,0.000013
 31,-0.00009168,-0.00001992,0.00007707,0.00093833,0.00017638,-0.0000090
 8,-0.05774615,0.05874330,-0.06186550,-0.00264745,0.00465790,0.00708338
 ,-0.00254486,0.00062410,0.01122701,0.00006573,-0.00043627,-0.00219766,
 0.00038567,-0.00021172,0.00332913,0.06339532,-0.06340830,0.05018597,0.
 00000401,-0.00002721,0.00004867,-0.00003067,0.00010417,-0.00025158,0.0
 0081775,-0.00150786,-0.00002064,0.00009332,-0.00009734,0.00006527,0.00
 000499,-0.00000581,0.00002337,-0.00004889,0.00026079,0.00005688,-0.000
 44054,-0.00010884,-0.00011584,-0.00486046,-0.00017810,-0.00304305,0.00
 013898,-0.00000290,-0.00002451,-0.00004006,0.00000062,-0.00000019,-0.0
 0005407,-0.00001122,0.00001023,-0.00002927,-0.00006870,-0.00003103,-0.
 00002335,-0.00000180,-0.00000602,0.00003118,0.00010894,0.00004180,-0.0
 0000160,0.00001310,0.00000951,-0.00000615,0.00001020,-0.00000995,0.000
 02128,0.00002062,-0.00001432,-0.00015816,0.00003328,0.00000513,-0.0000
 0835,-0.00011121,-0.00002023,-0.00532513,-0.02849140,0.00326071,-0.085
 86127,-0.09472315,0.00050568,0.01037951,0.01593015,-0.00046413,-0.0012
 9845,0.00472895,-0.00122146,-0.00229331,0.00040900,-0.00054256,0.00048
 280,0.00049628,0.00131115,0.08700214,0.00001173,-0.00001620,0.00003016
 ,-0.00006080,-0.00013474,-0.00005913,0.00066266,0.00011176,0.00047860,
 -0.00032309,0.00010851,0.00005822,0.00001320,0.00001785,0.00000549,-0.
 00023883,0.00012906,-0.00005170,0.00003174,0.00005542,0.00005283,-0.00
 090998,0.00342168,0.00045700,0.00010696,-0.00000028,-0.00001135,-0.000
 02255,0.00000146,-0.00000018,-0.00005290,0.00001374,-0.00002770,-0.000
 01200,-0.00004620,-0.00001212,-0.00002468,0.00000048,-0.00000703,0.000
 00244,0.00006999,0.00002527,-0.00000502,0.00000801,0.00000779,0.000001
 09,0.00000975,-0.00000624,0.00005179,0.00000227,0.00002732,0.00041708,
 0.00001999,-0.00013576,0.00000443,-0.00006570,-0.00002819,0.00346558,-
 0.00240878,0.00094561,-0.09777358,-0.31359604,0.01887764,-0.01676144,-
 0.01434368,-0.00117450,0.00291110,-0.00457902,0.00136798,0.00366689,0.
 00052528,0.00070356,-0.00038640,0.00053741,-0.00099379,0.10504175,0.32
 731373,-0.00008138,0.00001510,0.00021031,-0.00060174,0.00009670,-0.000
 31870,-0.00032497,0.00022177,0.00238322,0.00021011,-0.00010981,-0.0000
 2957,0.00001758,-0.00000385,-0.00002931,0.00000576,0.00008326,-0.00014
 006,0.00049262,0.00015559,0.00020172,-0.00318512,0.00051860,0.00755215
 ,-0.00002191,-0.00002200,0.00005025,-0.00004609,0.00001331,-0.00003630
 ,0.00002166,-0.00004466,-0.00005616,0.00001431,-0.00000081,0.00004856,
 0.00000089,0.00000370,-0.00000875,-0.00001220,-0.00001519,-0.00006276,
 0.00000362,-0.00000274,-0.00000362,-0.00000285,0.00001123,-0.00001082,
 -0.00001101,0.00000523,0.00001032,-0.00020789,0.00002372,0.00003410,-0
 .00003857,0.00002070,0.00005760,-0.00145946,-0.00656141,-0.00073520,0.
 00091091,0.02028042,-0.02877642,0.00430031,0.00567444,0.00178733,-0.00
 108863,0.00180254,0.00118807,-0.00087007,-0.00013062,-0.00017919,0.001
 66334,-0.00092949,-0.00526558,-0.00058304,-0.01997047,0.02413479,0.000
 19912,0.00007755,0.00041002,-0.00049012,-0.00000318,-0.00099563,0.0046
 7215,-0.00038947,0.00162337,-0.00298179,0.00002415,0.00091293,0.000118
 36,0.00006801,-0.00005100,-0.00320779,0.00077721,-0.00046340,-0.000976
 30,-0.00021804,-0.00019999,-0.00852063,-0.00236360,-0.00066526,0.00184
 942,-0.00004798,-0.00011423,-0.00038307,0.00002563,0.00002603,-0.00100
 804,-0.00039970,-0.00031224,0.00003069,-0.00031231,0.00010425,-0.00033
 501,-0.00004243,-0.00017463,-0.00036868,0.00053813,0.00011933,-0.00017
 282,0.00005314,0.00007765,0.00008176,0.00009452,-0.00007524,0.00067162
 ,0.00024443,0.00021157,0.00403489,0.00052248,-0.00133149,0.00045088,-0
 .00048200,-0.00027834,0.00560297,0.01199128,-0.00112618,-0.06822135,0.
 00934250,-0.01951988,-0.57096730,-0.07338099,-0.08897576,-0.05320250,-
 0.05545069,-0.00536228,0.02277165,0.00309421,0.00201974,-0.00218681,-0
 .00005248,0.00006314,0.00085330,0.00120739,0.00027846,0.68042156,0.000
 07263,-0.00010651,-0.00010536,0.00027932,-0.00104487,0.00017275,0.0005
 2502,0.00014243,-0.00003630,-0.00227769,0.00094807,0.00028428,0.000021
 79,0.00011802,0.00006913,-0.00048256,0.00086184,-0.00016099,0.00012757
 ,0.00017196,0.00019904,-0.00526611,0.01177988,-0.00293225,-0.00003993,
 0.00007221,-0.00004371,-0.00003636,0.00001329,0.00001524,-0.00025013,0
 .00023596,-0.00009556,-0.00007879,-0.00017197,-0.00010207,-0.00001700,
 0.00002139,-0.00001922,0.00007279,0.00028256,0.00008556,0.00000672,0.0
 0002289,0.00002750,-0.00000781,0.00005319,-0.00001766,0.00030868,-0.00
 002695,0.00016194,0.00312935,0.00000215,-0.00079154,-0.00016527,-0.000
 22925,0.00001516,-0.00206287,-0.01280318,0.00151587,0.03162057,0.01538
 460,0.00755040,-0.07290183,-0.10748450,-0.01049193,-0.07317559,-0.0190
 6792,-0.00996014,0.01605000,-0.00566196,0.00577723,0.00129584,0.000337
 28,-0.00007390,-0.00181707,0.00317307,-0.00115686,0.11312212,0.1179117
 8,0.00002805,0.00001975,0.00008582,-0.00002204,0.00024774,-0.00032495,
 0.00098029,-0.00022388,-0.00025111,-0.00005478,-0.00023008,0.00023958,
 0.00000074,0.00001880,0.00002265,-0.00062733,0.00006576,-0.00006093,-0
 .00025918,0.00000563,-0.00003854,-0.00090187,-0.00233184,-0.00033636,0
 .00042181,-0.00001176,-0.00003277,-0.00007920,0.00000441,0.00000507,-0
 .00014730,-0.00010640,0.00000623,-0.00001038,-0.00006071,-0.00003877,-
 0.00005839,-0.00000752,-0.00002553,-0.00004535,0.00010741,0.00010243,-
 0.00003246,0.00001066,0.00002038,0.00002094,0.00000051,0.00000331,0.00
 007425,0.00004798,-0.00001794,0.00012048,0.00007925,-0.00024706,0.0000
 7108,-0.00008578,-0.00010334,0.00095573,0.00440821,0.00257086,-0.02265
 617,0.00326804,0.01890773,-0.08871415,-0.01120117,-0.09174719,-0.00383
 699,-0.00536007,0.01479324,0.00047759,0.00262284,0.00950396,0.00007572
 ,-0.00045480,-0.00248315,0.00077857,-0.00042414,-0.00146450,0.11373481
 ,0.01091176,0.05246951,0.00017398,0.00008767,-0.00142579,0.00315446,-0
 .01610035,0.00376846,-0.00427940,-0.00664629,-0.00130940,-0.05553327,0
 .00902427,0.01353552,-0.00000287,0.00185437,0.00048315,0.00107132,0.00
 479099,-0.00025605,0.00064744,0.00261266,0.00101081,0.02469338,0.02296
 852,-0.00358516,-0.00034441,-0.00041067,0.00067577,0.00008204,0.000032
 30,0.00015081,-0.00201378,0.00251190,-0.00142430,0.00002863,-0.0004473
 3,-0.00028742,0.00017803,0.00015576,-0.00020945,0.00003668,0.00104830,
 0.00019769,0.00002013,-0.00001704,0.00007163,-0.00000866,0.00030778,-0
 .00005340,0.00329312,-0.00017514,0.00277900,0.01606945,0.00962689,-0.0
 0745333,-0.00042993,-0.00073301,-0.00003383,-0.00865140,-0.00914471,-0
 .00230384,0.00717507,-0.00499717,0.00271218,0.00552142,0.02504322,-0.0
 0520733,-0.05588986,-0.07934993,-0.00227632,-0.15096302,-0.13361656,0.
 01122539,-0.00009024,0.00052980,-0.00017504,0.00065046,-0.00102458,0.0
 0061535,-0.00873615,-0.00805342,-0.00029447,0.22414738,0.00011646,0.00
 002244,-0.00182785,0.00145784,-0.01009455,0.00385275,-0.01325734,-0.00
 653559,-0.00397162,-0.02704361,0.01697983,0.00440516,-0.00015865,0.001
 61956,0.00063554,0.00337410,0.00273772,-0.00065718,0.00278227,0.000813
 90,0.00212285,0.00521548,-0.08431551,0.01653226,-0.00222967,-0.0004988
 9,0.00054399,0.00037102,0.00010197,0.00017313,-0.00085523,0.00272769,-
 0.00043115,0.00008576,-0.00020993,-0.00040660,0.00044065,0.00017734,-0
 .00002353,0.00038121,0.00069702,0.00011112,0.00017925,-0.00008778,-0.0
 0001704,-0.00008236,0.00024393,-0.00000529,0.00234958,-0.00069905,0.00
 153654,0.03597406,-0.01258054,-0.01022113,-0.00073795,-0.00037300,0.00
 024137,0.00676193,-0.00243457,0.00302457,0.00199746,-0.00514811,0.0008
 4866,0.00856887,0.02076994,0.00017258,-0.05431710,-0.03034397,-0.00361
 717,-0.14238649,-0.42018777,0.02695885,-0.00106421,-0.00343287,0.00010
 099,-0.00000523,-0.00032882,0.00002157,-0.00803987,-0.00493545,-0.0013
 2060,0.18012176,0.53531507,-0.00006080,-0.00019138,0.00054157,0.000114
 21,0.00686042,-0.00324856,0.00198932,-0.00208378,-0.00455463,0.0232061
 4,-0.00399931,0.00249429,-0.00027892,-0.00044662,0.00026760,-0.0019472
 2,0.00208716,0.00151930,0.00036110,0.00126537,0.00048772,-0.00060534,0
 .02245220,0.01484440,0.00156348,0.00038767,-0.00033755,-0.00015713,0.0
 0000621,0.00000412,0.00070215,-0.00115947,0.00111076,-0.00017775,-0.00
 006011,0.00002486,-0.00013002,-0.00016718,0.00006901,-0.00009888,-0.00
 012526,0.00020820,-0.00008048,0.00007555,0.00004981,0.00003584,-0.0001
 3137,0.00001638,-0.00127325,0.00009560,-0.00162904,-0.01352566,-0.0035
 9239,-0.00600407,0.00016426,0.00004598,-0.00026599,-0.00419028,-0.0007
 9050,0.00254956,0.00150813,-0.00005750,-0.00155493,-0.00289340,0.00283
 811,0.01017530,-0.00356874,-0.00670690,0.01481401,0.00988778,0.0221481
 0,-0.07801012,0.00009019,0.00096570,0.00018369,0.00023160,-0.00013517,
 -0.00054147,0.00006426,-0.00079837,-0.00155862,-0.01093060,-0.03878275
 ,0.04834439\\0.00000807,0.00000251,0.00001074,-0.00000754,0.00000837,-
 0.00001315,0.00001065,-0.00003746,0.00001969,-0.00004828,0.00000411,0.
 00001731,0.00000096,0.00000318,-0.00000016,-0.00001017,0.00002311,-0.0
 0001452,-0.00000188,0.00000663,-0.00000077,0.00000557,-0.00000358,0.00
 000369,-0.00000639,0.00000846,0.00000367,0.00000022,-0.00000277,0.0000
 0184,0.00000319,-0.00000210,-0.00000515,0.00000116,-0.00000885,-0.0000
 1611,-0.00000083,-0.00000454,0.00000058,-0.00000111,0.00000488,0.00000
 906,0.00000174,0.00000197,0.00000273,-0.00000021,-0.00000004,-0.000000
 68,-0.00000283,0.00000133,0.00000277,0.00004579,-0.00001137,-0.0000112
 7,-0.00000028,-0.00000115,-0.00000355,0.00000548,0.00000506,-0.0000038
 5,-0.00000936,-0.00001001,0.00000020,0.00002406,0.00003574,-0.00000161
 ,-0.00000588,-0.00002065,0.00000527,-0.00000450,0.00001543,-0.00000530
 ,-0.00000108,-0.00000268,0.00000037,0.00000451,-0.00000089,0.,-0.00001
 600,-0.00000839,-0.00000499,0.00000496,-0.00000632,0.00000317\\\@
 The archive entry for this job was punched.


 ON A TOMBSTONE, "HERE LIES LESTER MOORE,
 FOUR SLUGS FROM A 44, NO LES, NO MORE".
 Job cpu time:       0 days  9 hours 48 minutes 31.7 seconds.
 Elapsed time:       0 days  0 hours 14 minutes 50.7 seconds.
 File lengths (MBytes):  RWF=    600 Int=      0 D2E=      0 Chk=     20 Scr=      1
 Normal termination of Gaussian 16 at Mon Oct 21 17:35:09 2024.
