 Entering Gaussian System, Link 0=g16
 Input=UridineSsrrgPBE0aVDZ.gjf
 Output=UridineSsrrgPBE0aVDZ.log
 Initial command:
 /sw/contrib/chem-src/g16/c01/g16/l1.exe "/scr/Gau-74434.inp" -scrdir="/scr/"
 Entering Link 1 = /sw/contrib/chem-src/g16/c01/g16/l1.exe PID=     74435.
  
 Copyright (c) 1988-2019, Gaussian, Inc.  All Rights Reserved.
  
 This is part of the Gaussian(R) 16 program.  It is based on
 the Gaussian(R) 09 system (copyright 2009, Gaussian, Inc.),
 the Gaussian(R) 03 system (copyright 2003, Gaussian, Inc.),
 the Gaussian(R) 98 system (copyright 1998, Gaussian, Inc.),
 the Gaussian(R) 94 system (copyright 1995, Gaussian, Inc.),
 the Gaussian 92(TM) system (copyright 1992, Gaussian, Inc.),
 the Gaussian 90(TM) system (copyright 1990, Gaussian, Inc.),
 the Gaussian 88(TM) system (copyright 1988, Gaussian, Inc.),
 the Gaussian 86(TM) system (copyright 1986, Carnegie Mellon
 University), and the Gaussian 82(TM) system (copyright 1983,
 Carnegie Mellon University). Gaussian is a federally registered
 trademark of Gaussian, Inc.
  
 This software contains proprietary and confidential information,
 including trade secrets, belonging to Gaussian, Inc.
  
 This software is provided under written license and may be
 used, copied, transmitted, or stored only in accord with that
 written license.
  
 The following legend is applicable only to US Government
 contracts under FAR:
  
                    RESTRICTED RIGHTS LEGEND
  
 Use, reproduction and disclosure by the US Government is
 subject to restrictions as set forth in subparagraphs (a)
 and (c) of the Commercial Computer Software - Restricted
 Rights clause in FAR 52.227-19.
  
 Gaussian, Inc.
 340 Quinnipiac St., Bldg. 40, Wallingford CT 06492
  
  
 ---------------------------------------------------------------
 Warning -- This program may not be used in any manner that
 competes with the business of Gaussian, Inc. or will provide
 assistance to any competitor of Gaussian, Inc.  The licensee
 of this program is prohibited from giving any competitor of
 Gaussian, Inc. access to this program.  By using this program,
 the user acknowledges that Gaussian, Inc. is engaged in the
 business of creating and licensing software in the field of
 computational chemistry and represents and warrants to the
 licensee that it is not a competitor of Gaussian, Inc. and that
 it will not use this program in any manner prohibited above.
 ---------------------------------------------------------------
  

 Cite this work as:
 Gaussian 16, Revision C.01,
 M. J. Frisch, G. W. Trucks, H. B. Schlegel, G. E. Scuseria, 
 M. A. Robb, J. R. Cheeseman, G. Scalmani, V. Barone, 
 G. A. Petersson, H. Nakatsuji, X. Li, M. Caricato, A. V. Marenich, 
 J. Bloino, B. G. Janesko, R. Gomperts, B. Mennucci, H. P. Hratchian, 
 J. V. Ortiz, A. F. Izmaylov, J. L. Sonnenberg, D. Williams-Young, 
 F. Ding, F. Lipparini, F. Egidi, J. Goings, B. Peng, A. Petrone, 
 T. Henderson, D. Ranasinghe, V. G. Zakrzewski, J. Gao, N. Rega, 
 G. Zheng, W. Liang, M. Hada, M. Ehara, K. Toyota, R. Fukuda, 
 J. Hasegawa, M. Ishida, T. Nakajima, Y. Honda, O. Kitao, H. Nakai, 
 T. Vreven, K. Throssell, J. A. Montgomery, Jr., J. E. Peralta, 
 F. Ogliaro, M. J. Bearpark, J. J. Heyd, E. N. Brothers, K. N. Kudin, 
 V. N. Staroverov, T. A. Keith, R. Kobayashi, J. Normand, 
 K. Raghavachari, A. P. Rendell, J. C. Burant, S. S. Iyengar, 
 J. Tomasi, M. Cossi, J. M. Millam, M. Klene, C. Adamo, R. Cammi, 
 J. W. Ochterski, R. L. Martin, K. Morokuma, O. Farkas, 
 J. B. Foresman, and D. J. Fox, Gaussian, Inc., Wallingford CT, 2019.
 
 ******************************************
 Gaussian 16:  EM64L-G16RevC.01  3-Jul-2019
                17-Oct-2024 
 ******************************************
 %nprocshared=40
 Will use up to   40 processors via shared memory.
 %mem=50gb
 ------------------------------------------------------
 # PBE1PBE/aug-cc-pVDZ opt freq EmpiricalDispersion=GD3
 ------------------------------------------------------
 1/18=20,19=15,26=3,38=1/1,3;
 2/9=110,12=2,17=6,18=5,40=1/2;
 3/5=16,7=10,11=2,25=1,30=1,71=1,74=-13,124=31/1,2,3;
 4//1;
 5/5=2,38=5/2;
 6/7=2,8=2,9=2,10=2,28=1/1;
 7//1,2,3,16;
 1/18=20,19=15,26=3/3(2);
 2/9=110/2;
 99//99;
 2/9=110/2;
 3/5=16,7=10,11=2,25=1,30=1,71=1,74=-13,124=31/1,2,3;
 4/5=5,16=3,69=1/1;
 5/5=2,38=5/2;
 7//1,2,3,16;
 1/18=20,19=15,26=3/3(-5);
 2/9=110/2;
 6/7=2,8=2,9=2,10=2,19=2,28=1/1;
 99/9=1/99;
 ----
 blah
 ----
 Symbolic Z-matrix:
 Charge =  0 Multiplicity = 1
 C                    -3.68664  -1.69432   0.43995 
 C                    -2.2288   -1.86146   0.83706 
 C                    -1.58767  -0.74792  -0.00191 
 O                    -1.75229  -3.17282   0.55986 
 H                    -2.0975   -1.66459   1.90676 
 O                    -2.49141   0.37279   0.11818 
 H                    -1.55157  -1.0327   -1.06152 
 N                    -0.24157  -0.39005   0.43345 
 C                    -3.82852  -0.17619   0.26623 
 H                    -4.38294  -2.14586   1.15267 
 O                    -3.87752  -2.35562  -0.82666 
 C                    -4.50915   0.50666   1.45202 
 H                    -4.37894   0.06598  -0.65004 
 O                    -3.82972   0.22358   2.6704 
 H                    -5.54058   0.15544   1.55336 
 H                    -4.52464   1.59374   1.32055 
 H                    -4.83692  -2.39769  -0.99227 
 H                    -2.06513  -3.38398  -0.34338 
 H                    -3.0337    0.7841    2.67759 
 C                    -0.02753   0.53344   1.43686 
 C                     1.19642   0.82998   1.87837 
 C                     2.3525    0.14397   1.28261 
 N                     2.06325  -0.7622    0.30619 
 C                     0.81321  -1.07372  -0.16419 
 H                    -0.89686   1.02574   1.85676 
 H                     1.38944   1.55343   2.65863 
 H                     2.83716  -1.24885  -0.11734 
 O                     3.49322   0.38932   1.65553 
 O                     0.6864   -1.89691  -1.06804 
 

 GradGradGradGradGradGradGradGradGradGradGradGradGradGradGradGradGradGrad
 Berny optimization.
 Initialization pass.
                           ----------------------------
                           !    Initial Parameters    !
                           ! (Angstroms and Degrees)  !
 --------------------------                            --------------------------
 ! Name  Definition              Value          Derivative Info.                !
 --------------------------------------------------------------------------------
 ! R1    R(1,2)                  1.5202         estimate D2E/DX2                !
 ! R2    R(1,9)                  1.5346         estimate D2E/DX2                !
 ! R3    R(1,10)                 1.0939         estimate D2E/DX2                !
 ! R4    R(1,11)                 1.4415         estimate D2E/DX2                !
 ! R5    R(2,3)                  1.5346         estimate D2E/DX2                !
 ! R6    R(2,4)                  1.4225         estimate D2E/DX2                !
 ! R7    R(2,5)                  1.0956         estimate D2E/DX2                !
 ! R8    R(3,6)                  1.4447         estimate D2E/DX2                !
 ! R9    R(3,7)                  1.0978         estimate D2E/DX2                !
 ! R10   R(3,8)                  1.4593         estimate D2E/DX2                !
 ! R11   R(4,18)                 0.9789         estimate D2E/DX2                !
 ! R12   R(6,9)                  1.453          estimate D2E/DX2                !
 ! R13   R(8,20)                 1.3804         estimate D2E/DX2                !
 ! R14   R(8,24)                 1.3918         estimate D2E/DX2                !
 ! R15   R(9,12)                 1.5283         estimate D2E/DX2                !
 ! R16   R(9,13)                 1.096          estimate D2E/DX2                !
 ! R17   R(11,17)                0.9745         estimate D2E/DX2                !
 ! R18   R(12,14)                1.4234         estimate D2E/DX2                !
 ! R19   R(12,15)                1.0943         estimate D2E/DX2                !
 ! R20   R(12,16)                1.0951         estimate D2E/DX2                !
 ! R21   R(14,19)                0.9736         estimate D2E/DX2                !
 ! R22   R(20,21)                1.3345         estimate D2E/DX2                !
 ! R23   R(20,25)                1.0837         estimate D2E/DX2                !
 ! R24   R(21,22)                1.4704         estimate D2E/DX2                !
 ! R25   R(21,26)                1.0814         estimate D2E/DX2                !
 ! R26   R(22,23)                1.3632         estimate D2E/DX2                !
 ! R27   R(22,28)                1.2249         estimate D2E/DX2                !
 ! R28   R(23,24)                1.3715         estimate D2E/DX2                !
 ! R29   R(23,27)                1.0076         estimate D2E/DX2                !
 ! R30   R(24,29)                1.2291         estimate D2E/DX2                !
 ! A1    A(2,1,9)              103.1206         estimate D2E/DX2                !
 ! A2    A(2,1,10)             113.2554         estimate D2E/DX2                !
 ! A3    A(2,1,11)             107.8228         estimate D2E/DX2                !
 ! A4    A(9,1,10)             115.0393         estimate D2E/DX2                !
 ! A5    A(9,1,11)             110.0054         estimate D2E/DX2                !
 ! A6    A(10,1,11)            107.3867         estimate D2E/DX2                !
 ! A7    A(1,2,3)              100.2568         estimate D2E/DX2                !
 ! A8    A(1,2,4)              111.8201         estimate D2E/DX2                !
 ! A9    A(1,2,5)              110.5019         estimate D2E/DX2                !
 ! A10   A(3,2,4)              114.9894         estimate D2E/DX2                !
 ! A11   A(3,2,5)              110.6916         estimate D2E/DX2                !
 ! A12   A(4,2,5)              108.4075         estimate D2E/DX2                !
 ! A13   A(2,3,6)              104.839          estimate D2E/DX2                !
 ! A14   A(2,3,7)              110.6827         estimate D2E/DX2                !
 ! A15   A(2,3,8)              113.5923         estimate D2E/DX2                !
 ! A16   A(6,3,7)              107.5802         estimate D2E/DX2                !
 ! A17   A(6,3,8)              111.2225         estimate D2E/DX2                !
 ! A18   A(7,3,8)              108.7379         estimate D2E/DX2                !
 ! A19   A(2,4,18)             105.7592         estimate D2E/DX2                !
 ! A20   A(3,6,9)              106.9203         estimate D2E/DX2                !
 ! A21   A(3,8,20)             121.598          estimate D2E/DX2                !
 ! A22   A(3,8,24)             116.7747         estimate D2E/DX2                !
 ! A23   A(20,8,24)            121.5499         estimate D2E/DX2                !
 ! A24   A(1,9,6)              107.4714         estimate D2E/DX2                !
 ! A25   A(1,9,12)             113.2881         estimate D2E/DX2                !
 ! A26   A(1,9,13)             111.0799         estimate D2E/DX2                !
 ! A27   A(6,9,12)             108.6674         estimate D2E/DX2                !
 ! A28   A(6,9,13)             107.0675         estimate D2E/DX2                !
 ! A29   A(12,9,13)            109.0428         estimate D2E/DX2                !
 ! A30   A(1,11,17)            107.4269         estimate D2E/DX2                !
 ! A31   A(9,12,14)            111.2654         estimate D2E/DX2                !
 ! A32   A(9,12,15)            110.3783         estimate D2E/DX2                !
 ! A33   A(9,12,16)            110.8969         estimate D2E/DX2                !
 ! A34   A(14,12,15)           107.8665         estimate D2E/DX2                !
 ! A35   A(14,12,16)           107.8734         estimate D2E/DX2                !
 ! A36   A(15,12,16)           108.4448         estimate D2E/DX2                !
 ! A37   A(12,14,19)           106.3843         estimate D2E/DX2                !
 ! A38   A(8,20,21)            122.0979         estimate D2E/DX2                !
 ! A39   A(8,20,25)            117.463          estimate D2E/DX2                !
 ! A40   A(21,20,25)           120.4368         estimate D2E/DX2                !
 ! A41   A(20,21,22)           118.906          estimate D2E/DX2                !
 ! A42   A(20,21,26)           123.4409         estimate D2E/DX2                !
 ! A43   A(22,21,26)           117.6531         estimate D2E/DX2                !
 ! A44   A(21,22,23)           115.6915         estimate D2E/DX2                !
 ! A45   A(21,22,28)           121.0226         estimate D2E/DX2                !
 ! A46   A(23,22,28)           123.2858         estimate D2E/DX2                !
 ! A47   A(22,23,24)           126.1627         estimate D2E/DX2                !
 ! A48   A(22,23,27)           117.3349         estimate D2E/DX2                !
 ! A49   A(24,23,27)           116.5015         estimate D2E/DX2                !
 ! A50   A(8,24,23)            115.588          estimate D2E/DX2                !
 ! A51   A(8,24,29)            124.5117         estimate D2E/DX2                !
 ! A52   A(23,24,29)           119.8937         estimate D2E/DX2                !
 ! D1    D(9,1,2,3)            -35.362          estimate D2E/DX2                !
 ! D2    D(9,1,2,4)           -157.6986         estimate D2E/DX2                !
 ! D3    D(9,1,2,5)             81.4472         estimate D2E/DX2                !
 ! D4    D(10,1,2,3)          -160.3346         estimate D2E/DX2                !
 ! D5    D(10,1,2,4)            77.3288         estimate D2E/DX2                !
 ! D6    D(10,1,2,5)           -43.5254         estimate D2E/DX2                !
 ! D7    D(11,1,2,3)            80.9927         estimate D2E/DX2                !
 ! D8    D(11,1,2,4)           -41.3439         estimate D2E/DX2                !
 ! D9    D(11,1,2,5)          -162.1981         estimate D2E/DX2                !
 ! D10   D(2,1,9,6)             18.1964         estimate D2E/DX2                !
 ! D11   D(2,1,9,12)          -101.856          estimate D2E/DX2                !
 ! D12   D(2,1,9,13)           135.0098         estimate D2E/DX2                !
 ! D13   D(10,1,9,6)           142.0004         estimate D2E/DX2                !
 ! D14   D(10,1,9,12)           21.948          estimate D2E/DX2                !
 ! D15   D(10,1,9,13)         -101.1862         estimate D2E/DX2                !
 ! D16   D(11,1,9,6)           -96.5953         estimate D2E/DX2                !
 ! D17   D(11,1,9,12)          143.3522         estimate D2E/DX2                !
 ! D18   D(11,1,9,13)           20.218          estimate D2E/DX2                !
 ! D19   D(2,1,11,17)          169.1654         estimate D2E/DX2                !
 ! D20   D(9,1,11,17)          -79.069          estimate D2E/DX2                !
 ! D21   D(10,1,11,17)          46.8037         estimate D2E/DX2                !
 ! D22   D(1,2,3,6)             41.8011         estimate D2E/DX2                !
 ! D23   D(1,2,3,7)            -73.921          estimate D2E/DX2                !
 ! D24   D(1,2,3,8)            163.4251         estimate D2E/DX2                !
 ! D25   D(4,2,3,6)            161.8727         estimate D2E/DX2                !
 ! D26   D(4,2,3,7)             46.1506         estimate D2E/DX2                !
 ! D27   D(4,2,3,8)            -76.5033         estimate D2E/DX2                !
 ! D28   D(5,2,3,6)            -74.8666         estimate D2E/DX2                !
 ! D29   D(5,2,3,7)            169.4113         estimate D2E/DX2                !
 ! D30   D(5,2,3,8)             46.7574         estimate D2E/DX2                !
 ! D31   D(1,2,4,18)            45.6347         estimate D2E/DX2                !
 ! D32   D(3,2,4,18)           -67.8324         estimate D2E/DX2                !
 ! D33   D(5,2,4,18)           167.6982         estimate D2E/DX2                !
 ! D34   D(2,3,6,9)            -31.4571         estimate D2E/DX2                !
 ! D35   D(7,3,6,9)             86.3969         estimate D2E/DX2                !
 ! D36   D(8,3,6,9)           -154.6213         estimate D2E/DX2                !
 ! D37   D(2,3,8,20)           -85.8222         estimate D2E/DX2                !
 ! D38   D(2,3,8,24)            91.0255         estimate D2E/DX2                !
 ! D39   D(6,3,8,20)            32.1724         estimate D2E/DX2                !
 ! D40   D(6,3,8,24)          -150.9799         estimate D2E/DX2                !
 ! D41   D(7,3,8,20)           150.4587         estimate D2E/DX2                !
 ! D42   D(7,3,8,24)           -32.6936         estimate D2E/DX2                !
 ! D43   D(3,6,9,1)              8.2154         estimate D2E/DX2                !
 ! D44   D(3,6,9,12)           131.1601         estimate D2E/DX2                !
 ! D45   D(3,6,9,13)          -111.1955         estimate D2E/DX2                !
 ! D46   D(3,8,20,21)          177.3542         estimate D2E/DX2                !
 ! D47   D(3,8,20,25)           -3.1929         estimate D2E/DX2                !
 ! D48   D(24,8,20,21)           0.6569         estimate D2E/DX2                !
 ! D49   D(24,8,20,25)        -179.8902         estimate D2E/DX2                !
 ! D50   D(3,8,24,23)         -177.1365         estimate D2E/DX2                !
 ! D51   D(3,8,24,29)            3.812          estimate D2E/DX2                !
 ! D52   D(20,8,24,23)          -0.2872         estimate D2E/DX2                !
 ! D53   D(20,8,24,29)        -179.3387         estimate D2E/DX2                !
 ! D54   D(1,9,12,14)           55.7991         estimate D2E/DX2                !
 ! D55   D(1,9,12,15)          -63.9212         estimate D2E/DX2                !
 ! D56   D(1,9,12,16)          175.8732         estimate D2E/DX2                !
 ! D57   D(6,9,12,14)          -63.5695         estimate D2E/DX2                !
 ! D58   D(6,9,12,15)          176.7102         estimate D2E/DX2                !
 ! D59   D(6,9,12,16)           56.5046         estimate D2E/DX2                !
 ! D60   D(13,9,12,14)        -179.9508         estimate D2E/DX2                !
 ! D61   D(13,9,12,15)          60.3289         estimate D2E/DX2                !
 ! D62   D(13,9,12,16)         -59.8766         estimate D2E/DX2                !
 ! D63   D(9,12,14,19)          76.8454         estimate D2E/DX2                !
 ! D64   D(15,12,14,19)       -161.9533         estimate D2E/DX2                !
 ! D65   D(16,12,14,19)        -45.0023         estimate D2E/DX2                !
 ! D66   D(8,20,21,22)          -0.42           estimate D2E/DX2                !
 ! D67   D(8,20,21,26)         179.6348         estimate D2E/DX2                !
 ! D68   D(25,20,21,22)       -179.8569         estimate D2E/DX2                !
 ! D69   D(25,20,21,26)          0.1979         estimate D2E/DX2                !
 ! D70   D(20,21,22,23)         -0.1411         estimate D2E/DX2                !
 ! D71   D(20,21,22,28)        179.7728         estimate D2E/DX2                !
 ! D72   D(26,21,22,23)        179.8073         estimate D2E/DX2                !
 ! D73   D(26,21,22,28)         -0.2789         estimate D2E/DX2                !
 ! D74   D(21,22,23,24)          0.5237         estimate D2E/DX2                !
 ! D75   D(21,22,23,27)       -179.827          estimate D2E/DX2                !
 ! D76   D(28,22,23,24)       -179.388          estimate D2E/DX2                !
 ! D77   D(28,22,23,27)          0.2613         estimate D2E/DX2                !
 ! D78   D(22,23,24,8)          -0.3151         estimate D2E/DX2                !
 ! D79   D(22,23,24,29)        178.7834         estimate D2E/DX2                !
 ! D80   D(27,23,24,8)        -179.967          estimate D2E/DX2                !
 ! D81   D(27,23,24,29)         -0.8686         estimate D2E/DX2                !
 --------------------------------------------------------------------------------
 Trust Radius=3.00D-01 FncErr=1.00D-07 GrdErr=1.00D-06 EigMax=2.50D+02 EigMin=1.00D-04
 Number of steps in this run=    173 maximum allowed number of steps=    174.
 GradGradGradGradGradGradGradGradGradGradGradGradGradGradGradGradGradGrad

                          Input orientation:                          
 ---------------------------------------------------------------------
 Center     Atomic      Atomic             Coordinates (Angstroms)
 Number     Number       Type             X           Y           Z
 ---------------------------------------------------------------------
      1          6           0       -3.686639   -1.694321    0.439947
      2          6           0       -2.228799   -1.861463    0.837060
      3          6           0       -1.587666   -0.747917   -0.001910
      4          8           0       -1.752289   -3.172822    0.559862
      5          1           0       -2.097496   -1.664591    1.906760
      6          8           0       -2.491413    0.372792    0.118185
      7          1           0       -1.551566   -1.032698   -1.061517
      8          7           0       -0.241573   -0.390047    0.433454
      9          6           0       -3.828519   -0.176194    0.266227
     10          1           0       -4.382940   -2.145862    1.152668
     11          8           0       -3.877520   -2.355620   -0.826665
     12          6           0       -4.509150    0.506660    1.452020
     13          1           0       -4.378939    0.065983   -0.650036
     14          8           0       -3.829723    0.223580    2.670400
     15          1           0       -5.540580    0.155439    1.553356
     16          1           0       -4.524638    1.593744    1.320553
     17          1           0       -4.836919   -2.397694   -0.992274
     18          1           0       -2.065131   -3.383981   -0.343383
     19          1           0       -3.033704    0.784097    2.677585
     20          6           0       -0.027527    0.533440    1.436858
     21          6           0        1.196419    0.829985    1.878373
     22          6           0        2.352504    0.143965    1.282609
     23          7           0        2.063247   -0.762196    0.306187
     24          6           0        0.813209   -1.073722   -0.164193
     25          1           0       -0.896858    1.025738    1.856759
     26          1           0        1.389444    1.553429    2.658626
     27          1           0        2.837162   -1.248853   -0.117345
     28          8           0        3.493222    0.389317    1.655526
     29          8           0        0.686400   -1.896912   -1.068044
 ---------------------------------------------------------------------
                    Distance matrix (angstroms):
                    1          2          3          4          5
     1  C    0.000000
     2  C    1.520175   0.000000
     3  C    2.344484   1.534570   0.000000
     4  O    2.437633   1.422520   2.494564   0.000000
     5  H    2.162822   1.095563   2.177898   2.051356   0.000000
     6  O    2.409368   2.361703   1.444704   3.648665   2.739544
     7  H    2.692708   2.179470   1.097802   2.692450   3.083504
     8  N    3.683702   2.505400   1.459309   3.168924   2.690640
     9  C    1.534607   2.392715   2.328129   3.657421   2.811248
    10  H    1.093935   2.195635   3.331795   2.885548   2.454288
    11  O    1.441547   2.393836   2.916909   2.665873   3.334309
    12  C    2.558346   3.344575   3.496133   4.683462   3.276766
    13  H    2.183121   3.248016   2.978877   4.342004   3.838890
    14  O    2.945121   3.204918   3.621032   4.506179   2.673752
    15  H    2.845767   3.943206   4.342860   5.139601   3.910529
    16  H    3.505579   4.176493   3.982221   5.566392   4.105046
    17  H    1.967012   3.230526   3.776272   3.539053   4.055401
    18  H    2.469382   1.933467   2.700631   0.978933   2.832048
    19  H    3.402339   3.321806   3.408488   4.667332   2.732532
    20  C    4.398392   3.307706   2.479105   4.180945   3.055638
    21  C    5.682028   4.478877   3.711653   5.143521   4.132020
    22  C    6.368722   5.020816   4.239149   5.326609   4.843856
    23  N    5.826486   4.462272   3.663919   4.520374   4.548399
    24  C    4.582440   3.298007   2.428309   3.392971   3.620797
    25  H    4.145957   3.339129   2.660399   4.476786   2.946507
    26  H    6.421608   5.298234   4.608453   6.050847   4.804135
    27  H    6.562697   5.191352   4.454589   5.022282   5.349830
    28  O    7.574271   6.203017   5.464048   6.434648   5.961358
    29  O    4.630178   3.482680   2.761920   3.197690   4.080870
                    6          7          8          9         10
     6  O    0.000000
     7  H    2.061652   0.000000
     8  N    2.396477   2.089024   0.000000
     9  C    1.452981   2.771465   3.597205   0.000000
    10  H    3.315365   3.762768   4.555335   2.229967   0.000000
    11  O    3.202852   2.686138   4.321052   2.438587   2.053584
    12  C    2.422457   4.175499   4.478144   1.528284   2.672343
    13  H    2.060837   3.061120   4.301130   1.095970   2.853422
    14  O    2.885679   4.549224   4.272621   2.437185   2.867720
    15  H    3.377036   4.915431   5.443456   2.167449   2.607042
    16  H    2.659025   4.627268   4.802813   2.174596   3.746054
    17  H    3.796065   3.558308   5.213498   2.745133   2.206874
    18  H    3.808951   2.511572   3.590611   3.710938   3.023797
    19  H    2.648354   4.413430   3.769713   2.714505   3.567979
    20  C    2.799186   3.319241   1.380385   4.039987   5.121430
    21  C    4.111860   4.434407   2.375728   5.372282   6.364869
    22  C    4.987161   4.703321   2.781271   6.272207   7.115223
    23  N    4.697710   3.874360   2.338138   5.920972   6.647134
    24  C    3.618379   2.529631   1.391818   4.747257   5.466586
    25  H    2.447772   3.630721   2.111786   3.545289   4.765245
    26  H    4.786314   5.401580   3.374716   5.995191   7.019479
    27  H    5.574847   4.494343   3.243383   6.762324   7.385623
    28  O    6.178960   5.903756   4.006190   7.473811   8.289386
    29  O    4.081322   2.399041   2.320834   5.012548   5.540013
                   11         12         13         14         15
    11  O    0.000000
    12  C    3.712682   0.000000
    13  H    2.479270   2.151695   0.000000
    14  O    4.345575   1.423448   3.369239   0.000000
    15  H    3.838709   1.094291   2.492458   2.044373   0.000000
    16  H    4.541672   1.095114   2.497700   2.045077   1.776248
    17  H    0.974497   3.810155   2.529146   4.615269   3.673399
    18  H    2.139122   4.932929   4.165333   5.021073   5.310731
    19  H    4.780127   1.938020   3.660384   0.973590   2.818427
    20  C    5.319083   4.481729   4.848549   4.009281   5.527225
    21  C    6.573443   5.730605   6.169373   5.124172   6.778481
    22  C    7.036346   6.873321   7.003822   6.336579   7.897735
    23  N    6.254204   6.791122   6.565212   6.425602   7.759876
    24  C    4.907654   5.782495   5.337918   5.592381   6.695629
    25  H    5.245826   3.671772   4.396595   3.147566   4.734304
    26  H    7.427572   6.111059   6.814249   5.385940   7.155504
    27  H    6.842150   7.714469   7.354228   7.374750   8.657358
    28  O    8.247653   8.005819   8.209207   7.394793   9.037407
    29  O    4.593260   6.254727   5.448426   6.234406   7.061102
                   16         17         18         19         20
    16  H    0.000000
    17  H    4.623664   0.000000
    18  H    5.796172   3.012745   0.000000
    19  H    2.172544   5.181047   5.238059   0.000000
    20  C    4.621880   6.133717   4.761016   3.261799   0.000000
    21  C    5.798705   7.420222   5.773337   4.305204   1.334510
    22  C    7.028398   7.957571   5.882666   5.600622   2.416616
    23  N    7.069627   7.209241   4.933478   5.830391   2.707107
    24  C    6.149183   5.861959   3.695165   5.130880   2.419332
    25  H    3.710921   5.946508   5.064693   2.301794   1.083702
    26  H    6.063698   8.228490   6.732323   4.489596   2.130940
    27  H    8.021471   7.808768   5.351854   6.812605   3.714641
    28  O    8.114735   9.174395   7.009187   6.618249   3.530476
    29  O    6.711556   5.546492   3.210519   5.920871   3.562419
                   21         22         23         24         25
    21  C    0.000000
    22  C    1.470405   0.000000
    23  N    2.399625   1.363157   0.000000
    24  C    2.818337   2.438325   1.371460   0.000000
    25  H    2.102521   3.415483   3.789882   3.378802   0.000000
    26  H    1.081400   2.192600   3.368991   3.899010   2.479642
    27  H    3.316096   2.033398   1.007551   2.032056   4.797265
    28  O    2.349288   1.224950   2.278492   3.554481   4.440532
    29  O    4.046907   3.530814   2.252066   1.229092   4.427534
                   26         27         28         29
    26  H    0.000000
    27  H    4.201748   0.000000
    28  O    2.605235   2.501417   0.000000
    29  O    5.127104   2.439177   4.530223   0.000000
 Stoichiometry    C9H12N2O6
 Framework group  C1[X(C9H12N2O6)]
 Deg. of freedom    81
 Full point group                 C1      NOp   1
 Largest Abelian subgroup         C1      NOp   1
 Largest concise Abelian subgroup C1      NOp   1
                         Standard orientation:                         
 ---------------------------------------------------------------------
 Center     Atomic      Atomic             Coordinates (Angstroms)
 Number     Number       Type             X           Y           Z
 ---------------------------------------------------------------------
      1          6           0       -2.649875   -0.595818    0.338210
      2          6           0       -1.208259   -0.673268    0.814316
      3          6           0       -0.470361   -0.398088   -0.502759
      4          8           0       -0.916705   -1.929133    1.415450
      5          1           0       -1.002694    0.116291    1.545478
      6          8           0       -1.216918    0.668339   -1.129303
      7          1           0       -0.520833   -1.271912   -1.165370
      8          7           0        0.929399   -0.027373   -0.321584
      9          6           0       -2.604726    0.503084   -0.732021
     10          1           0       -3.363822   -0.423485    1.148934
     11          8           0       -2.983042   -1.860778   -0.267541
     12          6           0       -3.136010    1.848643   -0.239211
     13          1           0       -3.162215    0.204668   -1.627177
     14          8           0       -2.441722    2.282706    0.925159
     15          1           0       -4.197928    1.769795    0.012951
     16          1           0       -3.018707    2.620047   -1.007619
     17          1           0       -3.946681   -1.870245   -0.412300
     18          1           0       -1.296110   -2.604736    0.817184
     19          1           0       -1.581187    2.621892    0.621332
     20          6           0        1.306614    1.278886   -0.083138
     21          6           0        2.577820    1.621272    0.135322
     22          6           0        3.607497    0.571589    0.130634
     23          7           0        3.159253   -0.694908   -0.100147
     24          6           0        1.858925   -1.063230   -0.333361
     25          1           0        0.528006    2.032652   -0.087440
     26          1           0        2.898161    2.637749    0.318576
     27          1           0        3.843882   -1.434101   -0.106087
     28          8           0        4.786484    0.842904    0.322678
     29          8           0        1.585629   -2.241673   -0.550730
 ---------------------------------------------------------------------
 Rotational constants (GHZ):           0.8751894           0.3092283           0.2529330
 Standard basis: Aug-CC-pVDZ (5D, 7F)
 There are   533 symmetry adapted cartesian basis functions of A   symmetry.
 There are   499 symmetry adapted basis functions of A   symmetry.
   499 basis functions,   863 primitive gaussians,   533 cartesian basis functions
    64 alpha electrons       64 beta electrons
       nuclear repulsion energy      1320.3342449370 Hartrees.
 NAtoms=   29 NActive=   29 NUniq=   29 SFac= 1.00D+00 NAtFMM=   60 NAOKFM=F Big=F
 Integral buffers will be    131072 words long.
 Raffenetti 2 integral format.
 Two-electron integral symmetry is turned on.
 Nuclear repulsion after empirical dispersion term =     1320.3139674556 Hartrees.
 One-electron integrals computed using PRISM.
 NBasis=   499 RedAO= T EigKep=  2.76D-06  NBF=   499
 NBsUse=   499 1.00D-06 EigRej= -1.00D+00 NBFU=   499
 ExpMin= 2.97D-02 ExpMax= 1.17D+04 ExpMxC= 4.01D+02 IAcc=3 IRadAn=         5 AccDes= 0.00D+00
 Harris functional with IExCor= 1009 and IRadAn=       5 diagonalized for initial guess.
 HarFok:  IExCor= 1009 AccDes= 0.00D+00 IRadAn=         5 IDoV= 1 UseB2=F ITyADJ=14
 ICtDFT=  3500011 ScaDFX=  1.000000  1.000000  1.000000  1.000000
 FoFCou: FMM=F IPFlag=           0 FMFlag=      100000 FMFlg1=           0
         NFxFlg=           0 DoJE=T BraDBF=F KetDBF=T FulRan=T
         wScrn=  0.000000 ICntrl=       500 IOpCl=  0 I1Cent=   200000004 NGrid=           0
         NMat0=    1 NMatS0=      1 NMatT0=    0 NMatD0=    1 NMtDS0=    0 NMtDT0=    0
 Petite list used in FoFCou.
 Requested convergence on RMS density matrix=1.00D-08 within 128 cycles.
 Requested convergence on MAX density matrix=1.00D-06.
 Requested convergence on             energy=1.00D-06.
 No special actions if energy rises.
 SCF Done:  E(RPBE1PBE) =  -910.200939605     A.U. after   14 cycles
            NFock= 14  Conv=0.45D-08     -V/T= 2.0056

 **********************************************************************

            Population analysis using the SCF Density.

 **********************************************************************

 Orbital symmetries:
       Occupied  (A) (A) (A) (A) (A) (A) (A) (A) (A) (A) (A) (A)
                 (A) (A) (A) (A) (A) (A) (A) (A) (A) (A) (A) (A)
                 (A) (A) (A) (A) (A) (A) (A) (A) (A) (A) (A) (A)
                 (A) (A) (A) (A) (A) (A) (A) (A) (A) (A) (A) (A)
                 (A) (A) (A) (A) (A) (A) (A) (A) (A) (A) (A) (A)
                 (A) (A) (A) (A)
       Virtual   (A) (A) (A) (A) (A) (A) (A) (A) (A) (A) (A) (A)
                 (A) (A) (A) (A) (A) (A) (A) (A) (A) (A) (A) (A)
                 (A) (A) (A) (A) (A) (A) (A) (A) (A) (A) (A) (A)
                 (A) (A) (A) (A) (A) (A) (A) (A) (A) (A) (A) (A)
                 (A) (A) (A) (A) (A) (A) (A) (A) (A) (A) (A) (A)
                 (A) (A) (A) (A) (A) (A) (A) (A) (A) (A) (A) (A)
                 (A) (A) (A) (A) (A) (A) (A) (A) (A) (A) (A) (A)
                 (A) (A) (A) (A) (A) (A) (A) (A) (A) (A) (A) (A)
                 (A) (A) (A) (A) (A) (A) (A) (A) (A) (A) (A) (A)
                 (A) (A) (A) (A) (A) (A) (A) (A) (A) (A) (A) (A)
                 (A) (A) (A) (A) (A) (A) (A) (A) (A) (A) (A) (A)
                 (A) (A) (A) (A) (A) (A) (A) (A) (A) (A) (A) (A)
                 (A) (A) (A) (A) (A) (A) (A) (A) (A) (A) (A) (A)
                 (A) (A) (A) (A) (A) (A) (A) (A) (A) (A) (A) (A)
                 (A) (A) (A) (A) (A) (A) (A) (A) (A) (A) (A) (A)
                 (A) (A) (A) (A) (A) (A) (A) (A) (A) (A) (A) (A)
                 (A) (A) (A) (A) (A) (A) (A) (A) (A) (A) (A) (A)
                 (A) (A) (A) (A) (A) (A) (A) (A) (A) (A) (A) (A)
                 (A) (A) (A) (A) (A) (A) (A) (A) (A) (A) (A) (A)
                 (A) (A) (A) (A) (A) (A) (A) (A) (A) (A) (A) (A)
                 (A) (A) (A) (A) (A) (A) (A) (A) (A) (A) (A) (A)
                 (A) (A) (A) (A) (A) (A) (A) (A) (A) (A) (A) (A)
                 (A) (A) (A) (A) (A) (A) (A) (A) (A) (A) (A) (A)
                 (A) (A) (A) (A) (A) (A) (A) (A) (A) (A) (A) (A)
                 (A) (A) (A) (A) (A) (A) (A) (A) (A) (A) (A) (A)
                 (A) (A) (A) (A) (A) (A) (A) (A) (A) (A) (A) (A)
                 (A) (A) (A) (A) (A) (A) (A) (A) (A) (A) (A) (A)
                 (A) (A) (A) (A) (A) (A) (A) (A) (A) (A) (A) (A)
                 (A) (A) (A) (A) (A) (A) (A) (A) (A) (A) (A) (A)
                 (A) (A) (A) (A) (A) (A) (A) (A) (A) (A) (A) (A)
                 (A) (A) (A) (A) (A) (A) (A) (A) (A) (A) (A) (A)
                 (A) (A) (A) (A) (A) (A) (A) (A) (A) (A) (A) (A)
                 (A) (A) (A) (A) (A) (A) (A) (A) (A) (A) (A) (A)
                 (A) (A) (A) (A) (A) (A) (A) (A) (A) (A) (A) (A)
                 (A) (A) (A) (A) (A) (A) (A) (A) (A) (A) (A) (A)
                 (A) (A) (A) (A) (A) (A) (A) (A) (A) (A) (A) (A)
                 (A) (A) (A)
 The electronic state is 1-A.
 Alpha  occ. eigenvalues --  -19.27160 -19.26364 -19.25540 -19.23924 -19.21086
 Alpha  occ. eigenvalues --  -19.19996 -14.48379 -14.46119 -10.39302 -10.35208
 Alpha  occ. eigenvalues --  -10.34864 -10.31583 -10.31582 -10.31558 -10.30921
 Alpha  occ. eigenvalues --  -10.30754 -10.25497  -1.12852  -1.11320  -1.08924
 Alpha  occ. eigenvalues --   -1.08002  -1.07697  -1.06003  -1.01950  -0.97628
 Alpha  occ. eigenvalues --   -0.84297  -0.82881  -0.80197  -0.73319  -0.72094
 Alpha  occ. eigenvalues --   -0.68429  -0.65547  -0.64457  -0.60357  -0.59971
 Alpha  occ. eigenvalues --   -0.57691  -0.56391  -0.55243  -0.53676  -0.51712
 Alpha  occ. eigenvalues --   -0.51165  -0.49405  -0.48905  -0.48373  -0.47422
 Alpha  occ. eigenvalues --   -0.46781  -0.45119  -0.44403  -0.43623  -0.43343
 Alpha  occ. eigenvalues --   -0.42125  -0.41389  -0.39585  -0.38678  -0.38122
 Alpha  occ. eigenvalues --   -0.36511  -0.33956  -0.33162  -0.31544  -0.30736
 Alpha  occ. eigenvalues --   -0.30425  -0.29943  -0.27983  -0.25995
 Alpha virt. eigenvalues --   -0.04522  -0.02395  -0.01924  -0.00161  -0.00125
 Alpha virt. eigenvalues --    0.00692   0.01448   0.02238   0.02644   0.02828
 Alpha virt. eigenvalues --    0.03157   0.03718   0.04553   0.05040   0.05745
 Alpha virt. eigenvalues --    0.06168   0.06697   0.07176   0.07459   0.07580
 Alpha virt. eigenvalues --    0.08013   0.08058   0.08857   0.09134   0.09690
 Alpha virt. eigenvalues --    0.09778   0.10171   0.10361   0.10570   0.11117
 Alpha virt. eigenvalues --    0.11341   0.11701   0.11775   0.11980   0.12129
 Alpha virt. eigenvalues --    0.12353   0.12476   0.12637   0.13389   0.13783
 Alpha virt. eigenvalues --    0.14266   0.15131   0.15457   0.15585   0.15842
 Alpha virt. eigenvalues --    0.15962   0.16251   0.16974   0.17529   0.18104
 Alpha virt. eigenvalues --    0.18628   0.18725   0.19173   0.19540   0.19764
 Alpha virt. eigenvalues --    0.20206   0.20808   0.20939   0.21530   0.21840
 Alpha virt. eigenvalues --    0.22272   0.22613   0.23028   0.23112   0.23734
 Alpha virt. eigenvalues --    0.24417   0.24564   0.24809   0.24895   0.25333
 Alpha virt. eigenvalues --    0.25519   0.25925   0.26371   0.26986   0.27164
 Alpha virt. eigenvalues --    0.27421   0.27516   0.27635   0.28246   0.28649
 Alpha virt. eigenvalues --    0.29147   0.29247   0.29667   0.30076   0.30203
 Alpha virt. eigenvalues --    0.30517   0.30946   0.31175   0.31537   0.32324
 Alpha virt. eigenvalues --    0.32689   0.32973   0.33400   0.33587   0.33864
 Alpha virt. eigenvalues --    0.34314   0.35044   0.35283   0.35514   0.35939
 Alpha virt. eigenvalues --    0.36643   0.36847   0.37495   0.37638   0.37908
 Alpha virt. eigenvalues --    0.38080   0.39075   0.39395   0.40062   0.40455
 Alpha virt. eigenvalues --    0.40742   0.41473   0.42434   0.42731   0.42804
 Alpha virt. eigenvalues --    0.43313   0.44075   0.44466   0.44992   0.45513
 Alpha virt. eigenvalues --    0.46015   0.46908   0.48052   0.48224   0.48724
 Alpha virt. eigenvalues --    0.49438   0.49924   0.50512   0.51070   0.51493
 Alpha virt. eigenvalues --    0.51598   0.52677   0.52901   0.53244   0.53934
 Alpha virt. eigenvalues --    0.54374   0.54567   0.54824   0.55414   0.55962
 Alpha virt. eigenvalues --    0.56642   0.57157   0.57592   0.58189   0.58649
 Alpha virt. eigenvalues --    0.59329   0.60070   0.60281   0.60656   0.61401
 Alpha virt. eigenvalues --    0.61895   0.62347   0.63236   0.64128   0.64208
 Alpha virt. eigenvalues --    0.64725   0.64911   0.65716   0.66359   0.66780
 Alpha virt. eigenvalues --    0.67182   0.67626   0.68288   0.68603   0.68963
 Alpha virt. eigenvalues --    0.69644   0.70430   0.70591   0.70895   0.71330
 Alpha virt. eigenvalues --    0.71806   0.72400   0.72545   0.73059   0.74238
 Alpha virt. eigenvalues --    0.74493   0.75148   0.75499   0.75688   0.76593
 Alpha virt. eigenvalues --    0.77749   0.78052   0.78293   0.79053   0.80010
 Alpha virt. eigenvalues --    0.80539   0.81395   0.81857   0.82809   0.82971
 Alpha virt. eigenvalues --    0.83542   0.84402   0.84910   0.86008   0.86239
 Alpha virt. eigenvalues --    0.86909   0.87795   0.88442   0.88536   0.90056
 Alpha virt. eigenvalues --    0.91226   0.92060   0.93035   0.94304   0.95425
 Alpha virt. eigenvalues --    0.95921   0.96283   0.97611   0.97700   0.99766
 Alpha virt. eigenvalues --    1.00187   1.00359   1.01289   1.02210   1.03219
 Alpha virt. eigenvalues --    1.04090   1.04395   1.06065   1.07402   1.07664
 Alpha virt. eigenvalues --    1.08406   1.08796   1.09391   1.09769   1.11668
 Alpha virt. eigenvalues --    1.12332   1.12645   1.13889   1.14366   1.14847
 Alpha virt. eigenvalues --    1.16130   1.16893   1.17272   1.18289   1.19054
 Alpha virt. eigenvalues --    1.20172   1.21260   1.21776   1.22098   1.23284
 Alpha virt. eigenvalues --    1.24469   1.26266   1.27145   1.27723   1.29227
 Alpha virt. eigenvalues --    1.30373   1.31149   1.32388   1.33766   1.34010
 Alpha virt. eigenvalues --    1.35107   1.36847   1.38293   1.38314   1.40021
 Alpha virt. eigenvalues --    1.40401   1.41321   1.41821   1.43346   1.44240
 Alpha virt. eigenvalues --    1.44910   1.45723   1.46566   1.47760   1.48453
 Alpha virt. eigenvalues --    1.50231   1.51132   1.51518   1.52699   1.52908
 Alpha virt. eigenvalues --    1.53318   1.54623   1.55618   1.56329   1.57350
 Alpha virt. eigenvalues --    1.57575   1.58122   1.59885   1.60915   1.61630
 Alpha virt. eigenvalues --    1.62530   1.63888   1.64214   1.65471   1.66696
 Alpha virt. eigenvalues --    1.67547   1.68106   1.69791   1.70872   1.71828
 Alpha virt. eigenvalues --    1.72690   1.73148   1.74172   1.75021   1.76486
 Alpha virt. eigenvalues --    1.77049   1.77906   1.79064   1.80216   1.80416
 Alpha virt. eigenvalues --    1.81156   1.82706   1.83767   1.84449   1.85435
 Alpha virt. eigenvalues --    1.86277   1.87183   1.87820   1.88821   1.89607
 Alpha virt. eigenvalues --    1.90437   1.91343   1.92239   1.93774   1.94405
 Alpha virt. eigenvalues --    1.96890   1.96925   1.98016   1.98669   2.00209
 Alpha virt. eigenvalues --    2.01002   2.02141   2.03735   2.04281   2.06188
 Alpha virt. eigenvalues --    2.06899   2.07308   2.08827   2.09661   2.10457
 Alpha virt. eigenvalues --    2.11263   2.13323   2.13589   2.15123   2.15904
 Alpha virt. eigenvalues --    2.18797   2.20439   2.20750   2.21173   2.22433
 Alpha virt. eigenvalues --    2.22903   2.23940   2.24900   2.25453   2.27568
 Alpha virt. eigenvalues --    2.29360   2.30463   2.31645   2.32715   2.33114
 Alpha virt. eigenvalues --    2.35236   2.36252   2.36989   2.39084   2.39851
 Alpha virt. eigenvalues --    2.41585   2.43383   2.45671   2.46921   2.48206
 Alpha virt. eigenvalues --    2.49185   2.49543   2.50811   2.52628   2.55193
 Alpha virt. eigenvalues --    2.57252   2.57598   2.59991   2.60867   2.62098
 Alpha virt. eigenvalues --    2.62291   2.63387   2.65558   2.66876   2.68742
 Alpha virt. eigenvalues --    2.70496   2.70939   2.73802   2.74944   2.77093
 Alpha virt. eigenvalues --    2.78895   2.79972   2.81859   2.84640   2.88362
 Alpha virt. eigenvalues --    2.89417   2.89677   2.93685   2.96643   3.00700
 Alpha virt. eigenvalues --    3.01221   3.12690   3.15010   3.16102   3.19014
 Alpha virt. eigenvalues --    3.22486   3.25572   3.30488   3.37017   3.39254
 Alpha virt. eigenvalues --    3.40132   3.42308   3.42952   3.44257   3.45287
 Alpha virt. eigenvalues --    3.45781   3.46530   3.47480   3.49363   3.51188
 Alpha virt. eigenvalues --    3.52133   3.53232   3.54919   3.55326   3.57914
 Alpha virt. eigenvalues --    3.60067   3.60325   3.62106   3.63359   3.65675
 Alpha virt. eigenvalues --    3.66640   3.68694   3.71217   3.74169   3.77167
 Alpha virt. eigenvalues --    3.78139   3.79567   3.84608   3.88138   3.96566
 Alpha virt. eigenvalues --    4.00829   4.01685   4.07113   4.27910   4.59084
          Condensed to atoms (all electrons):
               1          2          3          4          5          6
     1  C    9.300090  -1.230647  -0.136246  -0.008884   0.144649   0.044887
     2  C   -1.230647   7.621234  -1.842180  -0.042149  -0.651829  -0.044956
     3  C   -0.136246  -1.842180  13.090395   0.078730  -0.226719  -0.293903
     4  O   -0.008884  -0.042149   0.078730   8.493731  -0.205217  -0.005285
     5  H    0.144649  -0.651829  -0.226719  -0.205217   2.319680   0.032402
     6  O    0.044887  -0.044956  -0.293903  -0.005285   0.032402   9.489134
     7  H   -0.028074   0.202157  -0.766910   0.003852   0.084932  -0.253601
     8  N    0.204185   0.435048  -1.144747  -0.009571  -0.101928   0.025018
     9  C   -1.978477   0.832806  -3.282094   0.015584  -0.075991  -0.024179
    10  H   -1.264148   0.344435   0.278327   0.040853  -0.137805   0.013360
    11  O   -0.573310  -0.024747   0.089379  -0.017859   0.028112   0.018332
    12  C   -0.144672   0.043809   0.097030  -0.014422   0.026668  -0.070698
    13  H    0.165530   0.046552   0.536487   0.003469  -0.010691  -0.219219
    14  O   -0.063748  -0.038593   0.004328   0.005154  -0.002792  -0.035929
    15  H    0.160971  -0.017801   0.077971  -0.002301   0.010175   0.114429
    16  H    0.001994  -0.043482  -0.006494  -0.000035  -0.004504  -0.058121
    17  H    0.086255  -0.017428  -0.018949   0.001158   0.003830   0.002338
    18  H    0.041003  -0.210790   0.036240   0.324313   0.050122   0.010248
    19  H    0.011112   0.002078   0.049753  -0.000029   0.003573   0.020806
    20  C    0.071586  -0.096853  -1.492650  -0.011849   0.200618   0.237787
    21  C   -0.022810   0.081854  -0.102424  -0.007659  -0.017167   0.009738
    22  C    0.010923  -0.015427  -0.232507   0.004009   0.014551  -0.003235
    23  N    0.024687   0.016968  -0.073675   0.003433  -0.001958  -0.001016
    24  C    0.004013  -0.245744   0.314070  -0.010548   0.011299  -0.106644
    25  H    0.049117  -0.040847  -0.087244  -0.003217   0.011534  -0.069322
    26  H   -0.000438  -0.002662   0.025294  -0.000044  -0.001068  -0.004300
    27  H    0.000435  -0.005413  -0.013555  -0.000251   0.000996   0.000613
    28  O   -0.000063  -0.000211   0.005199   0.000033   0.000318   0.000379
    29  O   -0.007022  -0.006946   0.211037   0.004849  -0.012081   0.005262
               7          8          9         10         11         12
     1  C   -0.028074   0.204185  -1.978477  -1.264148  -0.573310  -0.144672
     2  C    0.202157   0.435048   0.832806   0.344435  -0.024747   0.043809
     3  C   -0.766910  -1.144747  -3.282094   0.278327   0.089379   0.097030
     4  O    0.003852  -0.009571   0.015584   0.040853  -0.017859  -0.014422
     5  H    0.084932  -0.101928  -0.075991  -0.137805   0.028112   0.026668
     6  O   -0.253601   0.025018  -0.024179   0.013360   0.018332  -0.070698
     7  H    2.658320  -0.321518  -0.061473   0.013435  -0.012533   0.013002
     8  N   -0.321518   8.452617   0.169176  -0.033722  -0.020836  -0.024985
     9  C   -0.061473   0.169176  10.511542   0.019504   0.262742  -0.092370
    10  H    0.013435  -0.033722   0.019504   2.311054  -0.033892  -0.080803
    11  O   -0.012533  -0.020836   0.262742  -0.033892   8.685966  -0.013572
    12  C    0.013002  -0.024985  -0.092370  -0.080803  -0.013572   4.880073
    13  H    0.005464  -0.042558  -1.131253   0.100864  -0.036339  -0.031258
    14  O    0.003717   0.014021   0.044522   0.038074   0.003726   0.128086
    15  H   -0.001577   0.005833  -0.362439  -0.058851  -0.006171   0.181544
    16  H    0.005032  -0.008782   0.159496   0.021193   0.002589   0.061434
    17  H    0.000514   0.006762  -0.038016  -0.097234   0.358124  -0.002560
    18  H   -0.013119  -0.004636   0.007385  -0.011882   0.021709   0.000361
    19  H   -0.000093   0.004030  -0.080340  -0.003385  -0.000866   0.024111
    20  C   -0.020263   0.194116   0.199600  -0.019068   0.009267  -0.007878
    21  C    0.007378  -0.216359   0.158629   0.001220   0.000354  -0.031169
    22  C   -0.002287  -0.147783  -0.014858   0.000107   0.000305  -0.001431
    23  N   -0.009076  -0.004207   0.002229   0.000263  -0.000691   0.000897
    24  C    0.118725  -0.357727  -0.372426   0.007812  -0.001142  -0.002999
    25  H    0.024952  -0.034412   0.029589  -0.000906  -0.000883  -0.010007
    26  H   -0.000627   0.045049  -0.004260   0.000110   0.000004  -0.000049
    27  H    0.002883   0.085546  -0.002474   0.000032  -0.000034  -0.000106
    28  O    0.000300  -0.004203  -0.000062  -0.000019   0.000001   0.000094
    29  O    0.015015  -0.148934   0.018006   0.000344   0.001383   0.001285
              13         14         15         16         17         18
     1  C    0.165530  -0.063748   0.160971   0.001994   0.086255   0.041003
     2  C    0.046552  -0.038593  -0.017801  -0.043482  -0.017428  -0.210790
     3  C    0.536487   0.004328   0.077971  -0.006494  -0.018949   0.036240
     4  O    0.003469   0.005154  -0.002301  -0.000035   0.001158   0.324313
     5  H   -0.010691  -0.002792   0.010175  -0.004504   0.003830   0.050122
     6  O   -0.219219  -0.035929   0.114429  -0.058121   0.002338   0.010248
     7  H    0.005464   0.003717  -0.001577   0.005032   0.000514  -0.013119
     8  N   -0.042558   0.014021   0.005833  -0.008782   0.006762  -0.004636
     9  C   -1.131253   0.044522  -0.362439   0.159496  -0.038016   0.007385
    10  H    0.100864   0.038074  -0.058851   0.021193  -0.097234  -0.011882
    11  O   -0.036339   0.003726  -0.006171   0.002589   0.358124   0.021709
    12  C   -0.031258   0.128086   0.181544   0.061434  -0.002560   0.000361
    13  H    2.275846   0.031991  -0.090656  -0.024833  -0.018511  -0.003638
    14  O    0.031991   8.306956  -0.175728  -0.067778  -0.001269  -0.001314
    15  H   -0.090656  -0.175728   1.853296  -0.394335   0.010091   0.000384
    16  H   -0.024833  -0.067778  -0.394335   1.663307  -0.002371  -0.000328
    17  H   -0.018511  -0.001269   0.010091  -0.002371   0.585115  -0.001253
    18  H   -0.003638  -0.001314   0.000384  -0.000328  -0.001253   0.604387
    19  H    0.009044   0.280712   0.023287  -0.046051   0.000076   0.000092
    20  C   -0.042480  -0.012309  -0.007627   0.028884   0.002250   0.007427
    21  C   -0.001330   0.001900   0.000454  -0.001803  -0.000170   0.000531
    22  C   -0.000098   0.000264  -0.000302   0.001181   0.000072  -0.000299
    23  N   -0.000423  -0.000194   0.000212  -0.000472   0.000185   0.000488
    24  C    0.005333   0.007416  -0.001156   0.004088  -0.000167  -0.008039
    25  H   -0.007464   0.003733   0.005533   0.002070   0.000375  -0.000058
    26  H    0.000086   0.000458  -0.000353   0.000819  -0.000019  -0.000032
    27  H   -0.000064   0.000075  -0.000013   0.000038   0.000002  -0.000052
    28  O   -0.000026   0.000002   0.000009  -0.000014   0.000002   0.000026
    29  O    0.000405  -0.000103   0.000180  -0.000131  -0.000193  -0.000279
              19         20         21         22         23         24
     1  C    0.011112   0.071586  -0.022810   0.010923   0.024687   0.004013
     2  C    0.002078  -0.096853   0.081854  -0.015427   0.016968  -0.245744
     3  C    0.049753  -1.492650  -0.102424  -0.232507  -0.073675   0.314070
     4  O   -0.000029  -0.011849  -0.007659   0.004009   0.003433  -0.010548
     5  H    0.003573   0.200618  -0.017167   0.014551  -0.001958   0.011299
     6  O    0.020806   0.237787   0.009738  -0.003235  -0.001016  -0.106644
     7  H   -0.000093  -0.020263   0.007378  -0.002287  -0.009076   0.118725
     8  N    0.004030   0.194116  -0.216359  -0.147783  -0.004207  -0.357727
     9  C   -0.080340   0.199600   0.158629  -0.014858   0.002229  -0.372426
    10  H   -0.003385  -0.019068   0.001220   0.000107   0.000263   0.007812
    11  O   -0.000866   0.009267   0.000354   0.000305  -0.000691  -0.001142
    12  C    0.024111  -0.007878  -0.031169  -0.001431   0.000897  -0.002999
    13  H    0.009044  -0.042480  -0.001330  -0.000098  -0.000423   0.005333
    14  O    0.280712  -0.012309   0.001900   0.000264  -0.000194   0.007416
    15  H    0.023287  -0.007627   0.000454  -0.000302   0.000212  -0.001156
    16  H   -0.046051   0.028884  -0.001803   0.001181  -0.000472   0.004088
    17  H    0.000076   0.002250  -0.000170   0.000072   0.000185  -0.000167
    18  H    0.000092   0.007427   0.000531  -0.000299   0.000488  -0.008039
    19  H    0.581659  -0.013219   0.009958  -0.000721  -0.000193   0.000766
    20  C   -0.013219   9.247852  -2.010476   0.114909   0.133379  -0.986123
    21  C    0.009958  -2.010476   9.203528  -1.714397  -0.046238   0.383582
    22  C   -0.000721   0.114909  -1.714397   7.772896   0.200843  -0.330924
    23  N   -0.000193   0.133379  -0.046238   0.200843   7.106963  -0.176991
    24  C    0.000766  -0.986123   0.383582  -0.330924  -0.176991   7.113522
    25  H   -0.018538  -0.742538  -0.021130  -0.150084   0.003745  -0.011898
    26  H   -0.000671   0.465540  -0.859485   0.198428  -0.059022  -0.016480
    27  H   -0.000047  -0.018569   0.020021  -0.154640   0.406805  -0.292697
    28  O   -0.000085   0.088823  -0.122666   0.149773  -0.116602   0.037357
    29  O    0.000067  -0.085503   0.036827  -0.028862  -0.263958   0.249048
              25         26         27         28         29
     1  C    0.049117  -0.000438   0.000435  -0.000063  -0.007022
     2  C   -0.040847  -0.002662  -0.005413  -0.000211  -0.006946
     3  C   -0.087244   0.025294  -0.013555   0.005199   0.211037
     4  O   -0.003217  -0.000044  -0.000251   0.000033   0.004849
     5  H    0.011534  -0.001068   0.000996   0.000318  -0.012081
     6  O   -0.069322  -0.004300   0.000613   0.000379   0.005262
     7  H    0.024952  -0.000627   0.002883   0.000300   0.015015
     8  N   -0.034412   0.045049   0.085546  -0.004203  -0.148934
     9  C    0.029589  -0.004260  -0.002474  -0.000062   0.018006
    10  H   -0.000906   0.000110   0.000032  -0.000019   0.000344
    11  O   -0.000883   0.000004  -0.000034   0.000001   0.001383
    12  C   -0.010007  -0.000049  -0.000106   0.000094   0.001285
    13  H   -0.007464   0.000086  -0.000064  -0.000026   0.000405
    14  O    0.003733   0.000458   0.000075   0.000002  -0.000103
    15  H    0.005533  -0.000353  -0.000013   0.000009   0.000180
    16  H    0.002070   0.000819   0.000038  -0.000014  -0.000131
    17  H    0.000375  -0.000019   0.000002   0.000002  -0.000193
    18  H   -0.000058  -0.000032  -0.000052   0.000026  -0.000279
    19  H   -0.018538  -0.000671  -0.000047  -0.000085   0.000067
    20  C   -0.742538   0.465540  -0.018569   0.088823  -0.085503
    21  C   -0.021130  -0.859485   0.020021  -0.122666   0.036827
    22  C   -0.150084   0.198428  -0.154640   0.149773  -0.028862
    23  N    0.003745  -0.059022   0.406805  -0.116602  -0.263958
    24  C   -0.011898  -0.016480  -0.292697   0.037357   0.249048
    25  H    2.979525  -0.197661  -0.000304   0.003085  -0.001717
    26  H   -0.197661   2.026200   0.011209  -0.021863   0.001199
    27  H   -0.000304   0.011209   1.131168  -0.051140  -0.008139
    28  O    0.003085  -0.021863  -0.051140   8.698507  -0.002007
    29  O   -0.001717   0.001199  -0.008139  -0.002007   8.653842
 Mulliken charges:
               1
     1  C    1.137102
     2  C    0.951766
     3  C    0.826055
     4  O   -0.639846
     5  H   -0.493709
     6  O   -0.834324
     7  H   -0.668526
     8  N   -0.014492
     9  C    1.089903
    10  H   -0.449270
    11  O   -0.739118
    12  C    1.070586
    13  H   -0.520228
    14  O   -0.475379
    15  H   -0.325058
    16  H   -0.292592
    17  H    0.140991
    18  H    0.151002
    19  H    0.143113
    20  C    0.565367
    21  C    1.259309
    22  C    0.329596
    23  N   -0.146381
    24  C    0.664672
    25  H   -0.715027
    26  H   -0.605361
    27  H   -0.112330
    28  O   -0.664947
    29  O   -0.632873
 Sum of Mulliken charges =  -0.00000
 Mulliken charges with hydrogens summed into heavy atoms:
               1
     1  C    0.687832
     2  C    0.458057
     3  C    0.157529
     4  O   -0.488844
     6  O   -0.834324
     8  N   -0.014492
     9  C    0.569675
    11  O   -0.598127
    12  C    0.452936
    14  O   -0.332267
    20  C   -0.149661
    21  C    0.653948
    22  C    0.329596
    23  N   -0.258711
    24  C    0.664672
    28  O   -0.664947
    29  O   -0.632873
 Electronic spatial extent (au):  <R**2>=           4245.9239
 Charge=             -0.0000 electrons
 Dipole moment (field-independent basis, Debye):
    X=             -6.7766    Y=              1.9919    Z=             -1.6432  Tot=              7.2519
 Quadrupole moment (field-independent basis, Debye-Ang):
   XX=           -101.9980   YY=           -101.2130   ZZ=           -104.5292
   XY=             -1.2285   XZ=              2.9098   YZ=             -1.0087
 Traceless Quadrupole moment (field-independent basis, Debye-Ang):
   XX=              0.5820   YY=              1.3671   ZZ=             -1.9491
   XY=             -1.2285   XZ=              2.9098   YZ=             -1.0087
 Octapole moment (field-independent basis, Debye-Ang**2):
  XXX=           -225.6199  YYY=             18.8999  ZZZ=             -4.6727  XYY=             -7.0227
  XXY=            -63.6149  XXZ=            -28.4980  XZZ=             -0.8447  YZZ=             -2.3951
  YYZ=             -5.5764  XYZ=              3.3799
 Hexadecapole moment (field-independent basis, Debye-Ang**3):
 XXXX=          -4136.6779 YYYY=          -1192.7570 ZZZZ=           -366.3760 XXXY=           -161.3685
 XXXZ=            -26.0343 YYYX=             62.6781 YYYZ=            -24.2574 ZZZX=              8.5728
 ZZZY=             12.7227 XXYY=           -817.7887 XXZZ=           -701.8430 YYZZ=           -293.5644
 XXYZ=            -32.6356 YYXZ=             40.6655 ZZXY=              4.4396
 N-N= 1.320313967456D+03 E-N=-4.771986042277D+03  KE= 9.051604332612D+02
 Calling FoFJK, ICntrl=      2127 FMM=F ISym2X=0 I1Cent= 0 IOpClX= 0 NMat=1 NMatS=1 NMatT=0.
 ***** Axes restored to original set *****
 -------------------------------------------------------------------
 Center     Atomic                   Forces (Hartrees/Bohr)
 Number     Number              X              Y              Z
 -------------------------------------------------------------------
      1        6          -0.009821951    0.001562156   -0.013013586
      2        6          -0.000439869   -0.021648475   -0.015564789
      3        6          -0.007270754    0.008859081    0.000102644
      4        8          -0.004521781    0.015246183   -0.003876824
      5        1           0.000216790    0.000455283   -0.000132854
      6        8           0.008283651   -0.017116102    0.007923278
      7        1           0.006557625   -0.003963468    0.001830304
      8        7          -0.007045622    0.002747561   -0.003724253
      9        6          -0.000288553    0.009770200    0.010581344
     10        1           0.000293998    0.004589269    0.006782543
     11        8          -0.006865815    0.002151316    0.004365275
     12        6           0.013563320    0.000417596    0.003135844
     13        1          -0.002586796   -0.002147573   -0.002831008
     14        8           0.006179448    0.004569449   -0.000690385
     15        1          -0.001648009   -0.002269256    0.000252504
     16        1          -0.002979758    0.003183902   -0.006704069
     17        1           0.014176624   -0.000604862    0.000990755
     18        1           0.004740303    0.001274369    0.011503321
     19        1          -0.009778415   -0.008263236    0.000731501
     20        6          -0.007181185   -0.003567164   -0.001119381
     21        6           0.014631477   -0.009674905   -0.007896855
     22        6           0.007431562    0.029676096    0.031505879
     23        7          -0.005448706    0.000370087    0.000438847
     24        6          -0.001374339   -0.017049514   -0.022955287
     25        1          -0.005475787   -0.001774838   -0.004148806
     26        1           0.000039751    0.001729789    0.001514809
     27        1           0.002102841   -0.003314585   -0.003269340
     28        8           0.000951871   -0.008283537   -0.008264771
     29        8          -0.006441922    0.013075176    0.012533360
 -------------------------------------------------------------------
 Cartesian Forces:  Max     0.031505879 RMS     0.008939478

 GradGradGradGradGradGradGradGradGradGradGradGradGradGradGradGradGradGrad
 Berny optimization.
 FormGI is forming the generalized inverse of G from B-inverse, IUseBI=4.
 Internal  Forces:  Max     0.019123271 RMS     0.004973059
 Search for a local minimum.
 Step number   1 out of a maximum of  173
 All quantities printed in internal units (Hartrees-Bohrs-Radians)
 Mixed Optimization -- RFO/linear search
 Second derivative matrix not updated -- first step.
 ITU=  0
     Eigenvalues ---    0.00392   0.00526   0.00806   0.00907   0.01142
     Eigenvalues ---    0.01382   0.01394   0.01486   0.01595   0.01786
     Eigenvalues ---    0.01930   0.01969   0.02093   0.02128   0.02344
     Eigenvalues ---    0.02545   0.03113   0.03625   0.04269   0.04865
     Eigenvalues ---    0.04978   0.05006   0.05413   0.05544   0.05692
     Eigenvalues ---    0.05899   0.06443   0.06931   0.07699   0.08410
     Eigenvalues ---    0.09727   0.11634   0.13035   0.13879   0.15728
     Eigenvalues ---    0.15999   0.16000   0.16000   0.16000   0.16000
     Eigenvalues ---    0.16000   0.16740   0.18161   0.20049   0.22043
     Eigenvalues ---    0.22358   0.23437   0.24595   0.24961   0.24996
     Eigenvalues ---    0.25000   0.26207   0.28471   0.29053   0.29582
     Eigenvalues ---    0.33926   0.34132   0.34178   0.34228   0.34321
     Eigenvalues ---    0.34362   0.34845   0.35551   0.35826   0.36235
     Eigenvalues ---    0.37051   0.37085   0.39374   0.41945   0.42083
     Eigenvalues ---    0.45202   0.46052   0.46385   0.49500   0.51504
     Eigenvalues ---    0.51593   0.52469   0.52650   0.57003   0.91466
     Eigenvalues ---    0.93223
 RFO step:  Lambda=-1.55517422D-02 EMin= 3.91799024D-03
 Linear search not attempted -- first point.
 Iteration  1 RMS(Cart)=  0.06126310 RMS(Int)=  0.00163739
 Iteration  2 RMS(Cart)=  0.00219074 RMS(Int)=  0.00029177
 Iteration  3 RMS(Cart)=  0.00000289 RMS(Int)=  0.00029176
 Iteration  4 RMS(Cart)=  0.00000000 RMS(Int)=  0.00029176
 Variable       Old X    -DE/DX   Delta X   Delta X   Delta X     New X
                                 (Linear)    (Quad)   (Total)
    R1        2.87271   0.00188   0.00000   0.00774   0.00775   2.88046
    R2        2.89999  -0.00248   0.00000  -0.00315  -0.00308   2.89690
    R3        2.06724   0.00234   0.00000   0.00651   0.00651   2.07375
    R4        2.72413  -0.00638   0.00000  -0.01560  -0.01560   2.70853
    R5        2.89992  -0.00140   0.00000  -0.00602  -0.00611   2.89381
    R6        2.68817  -0.01664   0.00000  -0.03814  -0.03814   2.65003
    R7        2.07031  -0.00002   0.00000  -0.00006  -0.00006   2.07025
    R8        2.73009  -0.01419   0.00000  -0.03919  -0.03922   2.69087
    R9        2.07455  -0.00052   0.00000  -0.00147  -0.00147   2.07307
   R10        2.75769  -0.00785   0.00000  -0.02033  -0.02033   2.73737
   R11        1.84992  -0.01240   0.00000  -0.02334  -0.02334   1.82658
   R12        2.74574  -0.00551   0.00000  -0.01420  -0.01416   2.73158
   R13        2.60855  -0.00342   0.00000  -0.00782  -0.00784   2.60071
   R14        2.63015  -0.00516   0.00000  -0.01152  -0.01158   2.61857
   R15        2.88804  -0.00597   0.00000  -0.01918  -0.01918   2.86886
   R16        2.07108   0.00319   0.00000   0.00894   0.00894   2.08003
   R17        1.84153  -0.01410   0.00000  -0.02610  -0.02610   1.81543
   R18        2.68993  -0.00095   0.00000  -0.00218  -0.00218   2.68775
   R19        2.06791   0.00230   0.00000   0.00642   0.00642   2.07433
   R20        2.06947   0.00401   0.00000   0.01120   0.01120   2.08067
   R21        1.83982  -0.01275   0.00000  -0.02351  -0.02351   1.81630
   R22        2.52186   0.01562   0.00000   0.02581   0.02585   2.54771
   R23        2.04790   0.00198   0.00000   0.00533   0.00533   2.05323
   R24        2.77866  -0.00785   0.00000  -0.01995  -0.01988   2.75878
   R25        2.04355   0.00226   0.00000   0.00604   0.00604   2.04959
   R26        2.57599   0.01912   0.00000   0.03647   0.03648   2.61247
   R27        2.31482  -0.00329   0.00000  -0.00347  -0.00347   2.31135
   R28        2.59168   0.00958   0.00000   0.01859   0.01856   2.61024
   R29        1.90399   0.00459   0.00000   0.00958   0.00958   1.91357
   R30        2.32265  -0.01731   0.00000  -0.01861  -0.01861   2.30404
    A1        1.79979  -0.00082   0.00000  -0.00771  -0.00768   1.79211
    A2        1.97668   0.00039   0.00000  -0.00805  -0.00853   1.96815
    A3        1.88186  -0.00489   0.00000  -0.04251  -0.04190   1.83996
    A4        2.00782  -0.00286   0.00000  -0.02991  -0.03067   1.97714
    A5        1.91996   0.00437   0.00000   0.03179   0.03141   1.95136
    A6        1.87425   0.00354   0.00000   0.05279   0.05284   1.92709
    A7        1.74981  -0.00129   0.00000   0.00129   0.00095   1.75076
    A8        1.95163   0.00715   0.00000   0.05963   0.05954   2.01117
    A9        1.92862  -0.00240   0.00000  -0.01887  -0.01898   1.90964
   A10        2.00694  -0.00045   0.00000   0.00413   0.00296   2.00990
   A11        1.93193  -0.00073   0.00000  -0.01995  -0.02029   1.91164
   A12        1.89207  -0.00220   0.00000  -0.02463  -0.02438   1.86769
   A13        1.82979  -0.00149   0.00000  -0.01679  -0.01659   1.81320
   A14        1.93178  -0.00031   0.00000   0.00992   0.01012   1.94190
   A15        1.98256   0.00661   0.00000   0.02689   0.02639   2.00895
   A16        1.87763   0.00533   0.00000   0.05589   0.05543   1.93306
   A17        1.94120  -0.00614   0.00000  -0.04309  -0.04277   1.89843
   A18        1.89783  -0.00388   0.00000  -0.02977  -0.02955   1.86828
   A19        1.84585   0.00296   0.00000   0.01686   0.01686   1.86270
   A20        1.86611   0.00688   0.00000   0.02310   0.02291   1.88902
   A21        2.12228  -0.00078   0.00000  -0.00051  -0.00048   2.12180
   A22        2.03810  -0.00089   0.00000  -0.00093  -0.00089   2.03721
   A23        2.12145   0.00168   0.00000   0.00200   0.00187   2.12332
   A24        1.87573  -0.00369   0.00000  -0.01331  -0.01328   1.86245
   A25        1.97725   0.00313   0.00000   0.01276   0.01263   1.98988
   A26        1.93871  -0.00126   0.00000  -0.01513  -0.01506   1.92365
   A27        1.89660   0.00131   0.00000  -0.00144  -0.00117   1.89543
   A28        1.86868   0.00106   0.00000   0.01419   0.01387   1.88255
   A29        1.90316  -0.00062   0.00000   0.00321   0.00327   1.90643
   A30        1.87495   0.00338   0.00000   0.01926   0.01926   1.89421
   A31        1.94195   0.00309   0.00000   0.01694   0.01671   1.95866
   A32        1.92646  -0.00142   0.00000  -0.02288  -0.02319   1.90328
   A33        1.93552  -0.00483   0.00000  -0.02234  -0.02324   1.91227
   A34        1.88263  -0.00275   0.00000  -0.02510  -0.02495   1.85768
   A35        1.88275   0.00517   0.00000   0.05969   0.05970   1.94245
   A36        1.89272   0.00089   0.00000  -0.00518  -0.00560   1.88712
   A37        1.85676   0.00230   0.00000   0.01308   0.01308   1.86984
   A38        2.13101   0.00282   0.00000   0.00821   0.00821   2.13922
   A39        2.05012  -0.00829   0.00000  -0.04332  -0.04333   2.00678
   A40        2.10202   0.00547   0.00000   0.03505   0.03504   2.13706
   A41        2.07530   0.00264   0.00000   0.01138   0.01146   2.08676
   A42        2.15445  -0.00171   0.00000  -0.00793  -0.00797   2.14648
   A43        2.05343  -0.00093   0.00000  -0.00345  -0.00349   2.04994
   A44        2.01920  -0.00973   0.00000  -0.03386  -0.03380   1.98540
   A45        2.11224   0.01791   0.00000   0.06604   0.06601   2.17825
   A46        2.15174  -0.00818   0.00000  -0.03220  -0.03223   2.11951
   A47        2.20195   0.00674   0.00000   0.03019   0.03014   2.23210
   A48        2.04788  -0.00124   0.00000  -0.00295  -0.00292   2.04496
   A49        2.03333  -0.00550   0.00000  -0.02725  -0.02723   2.00610
   A50        2.01739  -0.00415   0.00000  -0.01778  -0.01791   1.99948
   A51        2.17314  -0.00762   0.00000  -0.02760  -0.02753   2.14561
   A52        2.09254   0.01177   0.00000   0.04541   0.04547   2.13801
    D1       -0.61718  -0.00022   0.00000  -0.00618  -0.00603  -0.62322
    D2       -2.75236  -0.00228   0.00000  -0.03967  -0.04017  -2.79253
    D3        1.42152  -0.00265   0.00000  -0.03559  -0.03567   1.38585
    D4       -2.79837   0.00365   0.00000   0.04080   0.04127  -2.75710
    D5        1.34964   0.00160   0.00000   0.00730   0.00713   1.35677
    D6       -0.75966   0.00123   0.00000   0.01139   0.01163  -0.74803
    D7        1.41359   0.00228   0.00000   0.00829   0.00864   1.42223
    D8       -0.72159   0.00022   0.00000  -0.02521  -0.02550  -0.74709
    D9       -2.83089  -0.00015   0.00000  -0.02112  -0.02100  -2.85189
   D10        0.31759   0.00089   0.00000  -0.00807  -0.00788   0.30970
   D11       -1.77772  -0.00016   0.00000  -0.00504  -0.00502  -1.78275
   D12        2.35636  -0.00070   0.00000  -0.00714  -0.00704   2.34932
   D13        2.47838  -0.00091   0.00000  -0.04145  -0.04089   2.43749
   D14        0.38306  -0.00196   0.00000  -0.03841  -0.03803   0.34504
   D15       -1.76603  -0.00250   0.00000  -0.04052  -0.04004  -1.80608
   D16       -1.68591   0.00506   0.00000   0.03106   0.03113  -1.65478
   D17        2.50197   0.00401   0.00000   0.03409   0.03399   2.53595
   D18        0.35287   0.00347   0.00000   0.03199   0.03197   0.38484
   D19        2.95249   0.00012   0.00000  -0.00469  -0.00496   2.94754
   D20       -1.38001  -0.00124   0.00000  -0.02023  -0.02125  -1.40127
   D21        0.81688   0.00042   0.00000  -0.00120   0.00008   0.81696
   D22        0.72957  -0.00043   0.00000   0.01432   0.01416   0.74372
   D23       -1.29016  -0.00570   0.00000  -0.04662  -0.04665  -1.33681
   D24        2.85231  -0.00519   0.00000  -0.03469  -0.03493   2.81738
   D25        2.82521   0.00713   0.00000   0.08885   0.08870   2.91391
   D26        0.80548   0.00185   0.00000   0.02792   0.02789   0.83337
   D27       -1.33523   0.00237   0.00000   0.03984   0.03961  -1.29562
   D28       -1.30667   0.00325   0.00000   0.04296   0.04283  -1.26383
   D29        2.95679  -0.00202   0.00000  -0.01798  -0.01797   2.93882
   D30        0.81607  -0.00151   0.00000  -0.00605  -0.00625   0.80982
   D31        0.79647   0.00100   0.00000   0.01746   0.01806   0.81453
   D32       -1.18390  -0.00194   0.00000  -0.02750  -0.02791  -1.21181
   D33        2.92689   0.00109   0.00000   0.01539   0.01520   2.94208
   D34       -0.54903  -0.00091   0.00000  -0.02367  -0.02388  -0.57291
   D35        1.50791   0.00048   0.00000   0.00546   0.00574   1.51365
   D36       -2.69865  -0.00449   0.00000  -0.02106  -0.02221  -2.72086
   D37       -1.49788   0.00247   0.00000   0.07513   0.07507  -1.42281
   D38        1.58870   0.00286   0.00000   0.08652   0.08646   1.67516
   D39        0.56151   0.00070   0.00000   0.04146   0.04120   0.60271
   D40       -2.63510   0.00108   0.00000   0.05285   0.05259  -2.58251
   D41        2.62600   0.00116   0.00000   0.06583   0.06615   2.69215
   D42       -0.57061   0.00155   0.00000   0.07722   0.07755  -0.49307
   D43        0.14339   0.00007   0.00000   0.02054   0.02069   0.16408
   D44        2.28918   0.00240   0.00000   0.02706   0.02724   2.31642
   D45       -1.94073   0.00294   0.00000   0.03777   0.03810  -1.90263
   D46        3.09542  -0.00025   0.00000  -0.00541  -0.00553   3.08989
   D47       -0.05573  -0.00049   0.00000  -0.01272  -0.01269  -0.06842
   D48        0.01146  -0.00057   0.00000  -0.01725  -0.01739  -0.00592
   D49       -3.13968  -0.00081   0.00000  -0.02456  -0.02455   3.11895
   D50       -3.09161   0.00031   0.00000   0.00785   0.00778  -3.08384
   D51        0.06653   0.00015   0.00000   0.00531   0.00529   0.07183
   D52       -0.00501   0.00062   0.00000   0.01915   0.01910   0.01409
   D53       -3.13005   0.00045   0.00000   0.01661   0.01662  -3.11343
   D54        0.97388  -0.00343   0.00000  -0.04761  -0.04751   0.92637
   D55       -1.11563  -0.00105   0.00000  -0.01202  -0.01181  -1.12744
   D56        3.06957   0.00192   0.00000   0.02409   0.02384   3.09340
   D57       -1.10950  -0.00165   0.00000  -0.03792  -0.03792  -1.14741
   D58        3.08417   0.00073   0.00000  -0.00233  -0.00221   3.08196
   D59        0.98619   0.00369   0.00000   0.03379   0.03343   1.01962
   D60       -3.14073  -0.00331   0.00000  -0.05579  -0.05565   3.08680
   D61        1.05294  -0.00093   0.00000  -0.02020  -0.01995   1.03299
   D62       -1.04504   0.00204   0.00000   0.01592   0.01570  -1.02935
   D63        1.34121  -0.00004   0.00000   0.00624   0.00683   1.34804
   D64       -2.82662  -0.00169   0.00000  -0.02798  -0.02778  -2.85440
   D65       -0.78544   0.00063   0.00000  -0.01589  -0.01669  -0.80213
   D66       -0.00733   0.00014   0.00000   0.00279   0.00262  -0.00471
   D67        3.13522  -0.00004   0.00000  -0.00214  -0.00230   3.13292
   D68       -3.13910   0.00046   0.00000   0.01074   0.01074  -3.12835
   D69        0.00345   0.00028   0.00000   0.00580   0.00583   0.00928
   D70       -0.00246   0.00026   0.00000   0.00823   0.00823   0.00577
   D71        3.13763   0.00005   0.00000   0.00293   0.00279   3.14041
   D72        3.13823   0.00042   0.00000   0.01288   0.01287  -3.13208
   D73       -0.00487   0.00022   0.00000   0.00757   0.00743   0.00257
   D74        0.00914  -0.00018   0.00000  -0.00550  -0.00544   0.00370
   D75       -3.13857  -0.00029   0.00000  -0.00770  -0.00763   3.13698
   D76       -3.13091   0.00000   0.00000  -0.00015  -0.00030  -3.13121
   D77        0.00456  -0.00011   0.00000  -0.00235  -0.00249   0.00207
   D78       -0.00550  -0.00026   0.00000  -0.00787  -0.00789  -0.01339
   D79        3.12036  -0.00030   0.00000  -0.00617  -0.00616   3.11420
   D80       -3.14102  -0.00017   0.00000  -0.00576  -0.00581   3.13635
   D81       -0.01516  -0.00021   0.00000  -0.00406  -0.00408  -0.01924
         Item               Value     Threshold  Converged?
 Maximum Force            0.019123     0.000450     NO 
 RMS     Force            0.004973     0.000300     NO 
 Maximum Displacement     0.225281     0.001800     NO 
 RMS     Displacement     0.061052     0.001200     NO 
 Predicted change in Energy=-8.777503D-03
 GradGradGradGradGradGradGradGradGradGradGradGradGradGradGradGradGradGrad

                          Input orientation:                          
 ---------------------------------------------------------------------
 Center     Atomic      Atomic             Coordinates (Angstroms)
 Number     Number       Type             X           Y           Z
 ---------------------------------------------------------------------
      1          6           0       -3.712576   -1.680136    0.441230
      2          6           0       -2.255373   -1.884626    0.838921
      3          6           0       -1.585440   -0.797446   -0.006201
      4          8           0       -1.758947   -3.181623    0.644218
      5          1           0       -2.131695   -1.650334    1.901934
      6          8           0       -2.449229    0.325786    0.134683
      7          1           0       -1.510462   -1.100749   -1.057792
      8          7           0       -0.254587   -0.418705    0.422392
      9          6           0       -3.804149   -0.159643    0.268807
     10          1           0       -4.415394   -2.075359    1.185600
     11          8           0       -3.867150   -2.367738   -0.806823
     12          6           0       -4.461633    0.555868    1.435211
     13          1           0       -4.344188    0.086199   -0.658267
     14          8           0       -3.856274    0.225633    2.679160
     15          1           0       -5.509865    0.237817    1.505757
     16          1           0       -4.444568    1.642452    1.258187
     17          1           0       -4.803948   -2.418098   -1.013685
     18          1           0       -2.032341   -3.453984   -0.241987
     19          1           0       -3.034032    0.720308    2.734101
     20          6           0       -0.055545    0.470471    1.453790
     21          6           0        1.172470    0.792583    1.907486
     22          6           0        2.349132    0.180455    1.297546
     23          7           0        2.051779   -0.696071    0.270665
     24          6           0        0.806392   -1.035698   -0.220861
     25          1           0       -0.961793    0.906524    1.865013
     26          1           0        1.337485    1.498209    2.714461
     27          1           0        2.831156   -1.147409   -0.192218
     28          8           0        3.504429    0.403335    1.631641
     29          8           0        0.658365   -1.804745   -1.155321
 ---------------------------------------------------------------------
                    Distance matrix (angstroms):
                    1          2          3          4          5
     1  C    0.000000
     2  C    1.524275   0.000000
     3  C    2.346070   1.531340   0.000000
     4  O    2.472314   1.402337   2.477387   0.000000
     5  H    2.152610   1.095530   2.160276   2.016342   0.000000
     6  O    2.390343   2.327972   1.423949   3.610821   2.670029
     7  H    2.726181   2.183317   1.097022   2.699744   3.073752
     8  N    3.680931   2.515068   1.448553   3.153731   2.688771
     9  C    1.532975   2.387321   2.324886   3.668262   2.772430
    10  H    1.097379   2.195963   3.325972   2.928075   2.430856
    11  O    1.433293   2.353656   2.883230   2.685600   3.296034
    12  C    2.559061   3.343524   3.490217   4.679638   3.242494
    13  H    2.174343   3.238653   2.969295   4.365615   3.803328
    14  O    2.942947   3.225299   3.662586   4.488782   2.664114
    15  H    2.835843   3.942227   4.331155   5.148223   3.890258
    16  H    3.498974   4.172365   3.965651   5.555287   4.075074
    17  H    1.962768   3.195618   3.741702   3.550161   4.028800
    18  H    2.537028   1.918591   2.704166   0.966584   2.803466
    19  H    3.388187   3.314166   3.451268   4.606356   2.669580
    20  C    4.361681   3.280821   2.465718   4.110325   3.001507
    21  C    5.668150   4.478771   3.714358   5.097388   4.109183
    22  C    6.398389   5.067185   4.258744   5.348525   4.878000
    23  N    5.850236   4.504124   3.649149   4.564991   4.590546
    24  C    4.612455   3.349362   2.413235   3.454609   3.676465
    25  H    4.035440   3.242951   2.606509   4.340362   2.812038
    26  H    6.385340   5.279190   4.606031   5.981189   4.754864
    27  H    6.595869   5.242091   4.434343   5.089863   5.410019
    28  O    7.605465   6.248079   5.480070   6.444382   6.004707
    29  O    4.655065   3.531749   2.714735   3.313236   4.141870
                    6          7          8          9         10
     6  O    0.000000
     7  H    2.082854   0.000000
     8  N    2.335272   2.057511   0.000000
     9  C    1.445490   2.811858   3.562315   0.000000
    10  H    3.276542   3.797538   4.543050   2.209999   0.000000
[...]
 20,0.00039242,-0.00008117,0.00000259,-0.00020358,-0.00027546,-0.012694
 48,-0.00959881,-0.02173044,0.02702296,0.01114974,0.02436406,-0.1329664
 8,0.00077413,0.03473270,0.78935815,0.00012326,0.00008331,-0.00024931,0
 .00088830,-0.00021044,0.00048357,0.00127267,0.00258730,-0.00157423,-0.
 00042621,0.00019173,0.00023490,-0.00012399,-0.00014452,0.00017117,-0.0
 0154104,0.00033268,0.00008070,0.00085644,0.00015209,-0.00014604,-0.004
 20104,0.01140330,0.01119090,0.00032798,0.00038197,-0.00016545,0.000011
 18,-0.00003255,0.00004784,-0.00011526,0.00006799,0.00014260,-0.0000772
 2,-0.00014012,-0.00022248,-0.00004723,-0.00003449,0.00002273,0.0000327
 0,0.00010832,0.00024661,-0.00001394,0.00001323,0.00004651,0.00000128,0
 .00001418,0.00001396,0.00007575,-0.00000220,-0.00001023,0.00028548,0.0
 0009778,-0.00007267,-0.00007074,-0.00006137,-0.00010386,-0.00464814,-0
 .00387209,-0.00924023,0.00823620,0.00713810,-0.01241679,-0.01156799,-0
 .07392811,-0.05528523,0.07052116,0.14541752,0.00014311,-0.00025008,-0.
 00008663,0.00047639,-0.00006736,-0.00047461,0.00103581,-0.00287711,-0.
 00387704,-0.00056270,0.00031241,0.00064571,-0.00015999,-0.00014559,0.0
 0044026,0.00020345,0.00138459,0.00123104,0.00220596,-0.00003174,-0.000
 40320,0.01784860,0.00989666,0.03116275,0.00044993,-0.00002309,-0.00016
 713,-0.00005753,0.00000452,0.00003883,-0.00017456,0.00015271,0.0002703
 9,0.00001270,-0.00007682,-0.00038219,0.00010958,-0.00000838,0.00003274
 ,0.00011960,0.00010483,0.00048639,0.00002413,-0.00001712,0.00003841,0.
 00000922,-0.00000816,0.00003916,0.00010963,0.00000567,-0.00003888,0.00
 060049,0.00026442,-0.00024761,-0.00019361,-0.00001006,-0.00020903,-0.0
 0774169,-0.00717647,-0.01705861,0.01632212,-0.01350218,-0.03458482,-0.
 00022951,-0.06034955,-0.22332469,-0.09545919,0.20424001,0.68160911,-0.
 00086896,0.00064703,-0.00059593,0.00079030,-0.00074656,0.00003765,-0.0
 4102456,0.00106570,0.01563803,0.00077561,0.00101119,-0.00027185,-0.000
 13656,-0.00008294,0.00001679,0.00492742,-0.00342069,-0.00080412,-0.001
 98343,0.00052760,0.00121544,-0.20017672,-0.00775098,0.02864405,-0.0027
 9589,-0.00066789,0.00010013,0.00042971,0.00003443,-0.00005440,0.001114
 81,0.00059310,0.00059476,-0.00002906,0.00052032,0.00036019,0.00029553,
 0.00011669,0.00016819,0.00040186,-0.00052196,-0.00060133,0.00014502,-0
 .00000240,-0.00015865,-0.00005722,-0.00008593,-0.00000696,-0.00031497,
 -0.00021462,-0.00007528,-0.00043589,-0.00084729,-0.00012029,-0.0002429
 4,0.00046129,0.00043994,0.03948285,0.02355899,0.04924065,-0.03546416,-
 0.00431295,0.00286443,0.01298513,-0.02727145,-0.08810904,-0.27532962,-
 0.03118561,-0.00061012,0.62926795,-0.00035465,-0.00087130,0.00138744,-
 0.00612315,0.00209113,-0.00153247,-0.00159150,0.00044703,0.01204275,0.
 00199548,-0.00116848,-0.00114177,0.00055793,0.00043883,-0.00051552,0.0
 0173247,-0.00207166,-0.00135100,-0.00296395,-0.00020642,-0.00084900,-0
 .00252712,-0.06903777,-0.02728108,0.00032084,-0.00039862,0.00043963,-0
 .00045067,0.00009068,-0.00009413,-0.00012778,-0.00055920,-0.00076811,0
 .00003018,0.00005710,0.00017232,-0.00005046,0.00004214,-0.00008033,-0.
 00010870,-0.00005700,-0.00021322,-0.00000958,-0.00000167,-0.00001184,0
 .00002464,-0.00000243,-0.00000334,-0.00013458,0.00010038,0.00003256,-0
 .00111523,-0.00027539,0.00021846,0.00015290,0.00002305,0.00003629,0.01
 178074,-0.00382223,-0.00859946,-0.00094162,0.00071961,0.00127515,-0.00
 801460,-0.01793583,-0.00558401,-0.04709717,-0.07497467,-0.03041223,0.0
 8301445,0.30936826,0.00011277,-0.00081456,0.00277249,-0.00653308,0.003
 38030,-0.00333961,0.02432878,0.01132770,0.02922153,0.00140289,-0.00270
 008,-0.00206222,0.00103947,0.00079986,-0.00137451,-0.01256851,-0.00182
 688,-0.00511144,-0.00861095,-0.00226643,-0.00147942,0.04229939,-0.0296
 5562,-0.15703292,0.00134202,0.00213891,0.00038781,-0.00086142,0.000017
 91,-0.00022584,-0.00074549,-0.00127079,-0.00189151,-0.00065222,-0.0006
 4059,0.00000292,-0.00101110,-0.00006364,-0.00024435,-0.00041171,0.0002
 9541,-0.00026039,-0.00026130,0.00015458,0.00025273,0.00006344,0.000118
 09,-0.00003619,0.00007366,0.00024650,0.00017462,-0.00177201,-0.0001573
 3,0.00108138,0.00048747,-0.00036162,-0.00008669,0.01669258,-0.01270131
 ,-0.04510385,0.01042526,0.00248477,0.00315086,-0.03308787,0.00205396,0
 .00452764,-0.04458465,-0.03747295,-0.14512218,0.06785055,0.25186067,0.
 90312139,-0.00002402,-0.00006406,-0.00016666,-0.00049824,-0.00070449,-
 0.00064118,-0.00061509,-0.00028878,-0.00060760,-0.00007850,0.00021464,
 0.00002251,-0.00008501,-0.00064956,-0.00033216,-0.00052999,-0.00036677
 ,-0.00062743,0.00022988,0.00014730,0.00008355,0.00856556,-0.00064561,-
 0.00418163,-0.00034883,-0.00015215,-0.00002723,-0.00001432,-0.00002428
 ,-0.00001016,-0.00002929,0.00009385,0.00003617,-0.00010012,0.00005882,
 -0.00045944,0.00003569,0.00002259,0.00005944,0.00035185,-0.00033203,0.
 00028018,0.00003133,0.00000529,0.00004468,0.00000215,-0.00001626,0.000
 08007,0.00001374,-0.00000987,-0.00000006,0.00003416,-0.00004002,-0.000
 02890,-0.00046466,0.00079228,0.00005686,-0.25058941,0.02270928,0.14083
 904,-0.01481248,0.00328098,0.01748203,-0.00222260,-0.00309810,-0.00351
 323,0.00032777,0.00007442,-0.00025468,0.00040126,-0.00103350,-0.001469
 47,0.26113482,-0.00033645,0.00011812,0.00019972,-0.00032117,-0.0003987
 8,-0.00151510,0.00077375,-0.00076782,0.00031550,0.00008330,0.00018307,
 0.00046747,-0.00097159,-0.00122753,0.00019943,0.00001587,-0.00014561,0
 .00040503,0.00008798,-0.00024521,0.00002699,0.01055131,0.00131269,-0.0
 0935716,0.00009815,0.00011601,-0.00023750,-0.00002809,0.00000851,-0.00
 002063,0.00029651,0.00001123,0.00022162,0.00003505,0.00004469,0.000316
 00,-0.00001276,-0.00005426,-0.00000145,-0.00004818,-0.00023395,-0.0002
 4254,-0.00002863,-0.00001252,-0.00005837,0.00003366,-0.00003508,-0.000
 01376,-0.00005949,-0.00003306,-0.00000875,0.00004627,0.00008845,-0.000
 01396,0.00065213,0.00015511,0.00008002,0.02052504,-0.04598374,-0.02160
 928,-0.00673087,0.00867093,0.00362667,-0.00272530,0.01007685,-0.004791
 62,0.00026194,-0.00057734,0.00045345,-0.00252546,0.00235586,-0.0015661
 5,-0.02097563,0.03439729,-0.00019137,-0.00017131,0.00005592,-0.0002737
 5,-0.00041908,-0.00043891,0.00307936,-0.00014697,-0.00095926,-0.000040
 42,0.00044711,0.00037170,-0.00012267,-0.00036139,0.00074740,-0.0000539
 7,0.00068758,0.00089562,0.00004766,0.00005591,0.00004694,0.02679695,-0
 .00488129,-0.02117725,-0.00080821,-0.00003468,0.00012788,0.00000732,0.
 00004006,-0.00000366,0.00016727,0.00017461,0.00013180,-0.00013616,0.00
 006242,0.00004205,0.00023466,0.00007229,0.00004956,0.00018642,-0.00012
 367,-0.00033993,0.00003345,0.00000134,-0.00000817,-0.00002127,0.000003
 46,-0.00001671,-0.00003276,-0.00002179,0.00000781,0.00005888,0.0000613
 2,-0.00004028,-0.00031486,0.00018582,0.00054971,0.13375261,-0.02206293
 ,-0.14963590,-0.00913609,-0.00037431,0.01083249,-0.00133584,-0.0046878
 6,0.00001060,0.00043819,0.00062749,0.00079605,-0.00620362,-0.00248851,
 -0.00063571,-0.14666340,0.03068374,0.16063931,0.00000066,-0.00003035,0
 .00002963,0.00000931,0.00015007,-0.00016299,0.00091981,-0.00072314,-0.
 00118848,-0.00002217,-0.00005594,0.00004130,0.00001196,-0.00003389,0.0
 0004241,-0.00018204,0.00016490,0.00016743,-0.00049482,-0.00009166,-0.0
 0011720,-0.00492142,-0.00215950,-0.00040126,0.00012948,0.00003362,-0.0
 0000991,-0.00003448,-0.00000641,-0.00000204,-0.00003028,-0.00000836,0.
 00000599,-0.00002678,-0.00003708,-0.00012062,-0.00001269,-0.00000410,-
 0.00000039,0.00004677,0.00003014,0.00014308,-0.00000019,0.00000771,0.0
 0002037,0.00000197,-0.00000091,0.00001237,0.00001031,0.00000322,0.0000
 0078,0.00000895,0.00004338,0.00000270,-0.00004471,-0.00001517,-0.00009
 407,0.00014998,-0.00964994,-0.02721162,-0.05970930,-0.01933533,-0.0405
 1896,0.00987803,0.00935164,0.02234538,-0.00434263,0.00040191,0.0039530
 7,-0.00251730,-0.00024986,0.00031219,0.00074513,0.00087453,-0.00015257
 ,0.05828647,0.00005274,0.00002315,-0.00003614,0.00010108,0.00004218,0.
 00037539,-0.00018601,0.00141672,-0.00079961,0.00001608,-0.00003768,-0.
 00002632,-0.00008971,-0.00005956,-0.00007208,-0.00000970,-0.00017357,-
 0.00006328,-0.00010432,-0.00012756,-0.00001215,-0.00185060,0.00773528,
 -0.00157729,-0.00007503,0.00003583,-0.00000354,0.00000782,0.00000636,-
 0.00000143,-0.00001106,-0.00000866,-0.00000002,-0.00001093,0.00001363,
 -0.00000111,0.00001482,0.00000578,0.00000914,0.00001589,-0.00004391,0.
 00000162,0.00000297,0.,0.00000153,0.00000568,-0.00000840,0.00000833,-0
 .00000283,0.00000411,-0.00000360,0.00000824,0.00000292,-0.00002148,-0.
 00001833,0.00005672,0.00001074,0.00107181,-0.00283260,-0.00525003,-0.0
 1967120,-0.06913322,-0.10904904,-0.00206377,0.00043796,-0.00137631,0.0
 0019988,0.00225296,-0.00081177,0.00024139,-0.00001582,0.00011362,0.000
 61861,-0.00478723,0.00199299,0.02139485,0.06688621,-0.00001588,-0.0000
 1484,0.00000887,-0.00003078,-0.00000304,-0.00017447,0.00030280,-0.0006
 1431,-0.00002098,-0.00000385,0.00001899,0.00003441,0.00003538,0.000037
 93,0.00003110,0.00001361,0.00009863,0.00009754,-0.00010747,0.00003610,
 0.00004992,-0.00062294,-0.00180945,0.00381649,0.00002663,-0.00001377,-
 0.00001622,-0.00000190,0.00000128,0.00000340,0.00001215,0.00001205,0.0
 0001408,0.00000150,-0.00000908,-0.00001742,-0.00000283,-0.00000521,-0.
 00000123,0.00001544,0.00001349,0.00001375,0.00000232,0.00000220,0.0000
 0128,-0.00000457,0.00000343,-0.00000154,-0.00000336,-0.00000301,-0.000
 00068,0.00000054,0.00000291,0.00000147,-0.00001275,-0.00002529,-0.0000
 0308,0.00241149,-0.00067142,-0.00391269,-0.04145809,-0.10909429,-0.312
 55624,-0.00891678,-0.00598980,-0.01175161,0.00326893,-0.00091577,-0.00
 139046,0.00173806,0.00028948,0.00006904,-0.00041747,0.00190832,-0.0001
 2433,0.04468284,0.11554151,0.32424489,-0.00006515,-0.00001811,0.000055
 90,-0.00022053,0.00006094,-0.00020524,0.00006053,0.00014047,0.00116711
 ,0.00009691,-0.00001092,-0.00002297,0.00002134,0.00000984,0.00000696,0
 .00000872,-0.00015005,-0.00006069,-0.00015554,0.00000563,0.00001875,-0
 .00364861,-0.00230721,-0.00392132,-0.00011749,0.00000193,0.00001903,-0
 .00001439,0.00000447,-0.00000814,0.00005402,0.00001074,-0.00000049,-0.
 00003240,0.00000287,-0.00001929,-0.00000341,0.00000518,0.00000674,0.00
 003927,-0.00001795,-0.00000197,0.00000770,0.00000903,0.00000226,-0.000
 00539,0.00000005,0.00000364,-0.00002327,-0.00000876,-0.00000257,-0.000
 06454,-0.00003701,0.00001662,-0.00003427,0.00001971,0.00001052,0.00013
 810,-0.00013131,-0.00084595,0.00020771,-0.00146962,-0.00249197,0.01580
 062,0.00103825,-0.00296297,-0.28252677,0.02716879,0.18506909,-0.021560
 66,0.00562525,0.02482519,-0.00003340,0.00007308,0.00003500,0.00058517,
 -0.00011787,-0.00046938,0.29024302,0.00000006,0.00005462,0.00000973,0.
 00012214,0.00016351,0.00003699,0.00012071,0.00109802,0.00020011,0.0000
 7503,-0.00015962,-0.00003449,-0.00002537,-0.00001525,0.00000307,-0.000
 55818,-0.00012660,-0.00001805,-0.00004663,0.00001704,-0.00001108,-0.00
 275562,0.00304762,-0.00223151,0.00007058,0.00012765,-0.00002809,0.0000
 0309,-0.00000873,-0.00000305,0.00001404,-0.00005125,-0.00001275,-0.000
 03388,-0.00000839,-0.00002806,-0.00002744,-0.00000350,-0.00000067,0.00
 000440,-0.00001563,0.00002457,-0.00001138,0.00000568,0.00001276,0.0000
 0875,-0.00001065,-0.00000108,-0.00001348,0.00000785,0.00000427,-0.0000
 4533,0.00003974,0.00001085,-0.00000109,0.00001272,-0.00001526,-0.00013
 387,-0.00086126,-0.00005359,-0.00173851,0.00266409,-0.00312247,0.01215
 784,0.00065369,-0.00671726,0.02892465,-0.03027250,-0.04710333,-0.00592
 960,0.00180102,0.00983011,0.00005243,-0.00032970,0.00014784,0.00045792
 ,0.00025012,-0.00033040,-0.03142558,0.02875480,0.00001661,-0.00003504,
 0.00010639,-0.00026479,0.00015379,-0.00014644,0.00000191,-0.00026982,0
 .00091969,-0.00005620,-0.00011403,-0.00002006,0.00000903,0.00000731,-0
 .00001721,-0.00034961,0.00000899,-0.00002289,-0.00003964,0.00001896,0.
 00004841,-0.00412464,-0.00203476,0.00003193,0.00012247,0.00004663,0.00
 003772,-0.00005149,0.00000086,-0.00000696,-0.00008726,-0.00005830,-0.0
 0007891,-0.00001106,-0.00004089,-0.00002028,-0.00002911,-0.00000257,-0
 .00001243,-0.00002993,0.00003873,0.00002236,-0.00001097,0.00000497,0.0
 0001351,0.00000397,0.00001283,0.00000166,0.00002793,0.00001783,0.00000
 985,0.00002058,0.00004002,0.00002750,0.00002074,-0.00003164,-0.0000254
 3,-0.00101062,-0.00013722,-0.00081158,-0.00320424,-0.00325894,-0.00393
 828,0.02827730,-0.00210759,-0.01617067,0.19021959,-0.04638481,-0.22698
 543,-0.00850871,0.00491502,0.01677567,0.00001024,0.00012553,-0.0000124
 2,0.00120103,-0.00009595,-0.00043508,-0.20062786,0.04620182,0.22974857
 ,0.00047034,-0.00011204,0.00071871,-0.00059144,0.00177431,-0.00006515,
 0.00559531,-0.00016675,0.00173733,-0.00033314,-0.00118132,-0.00023184,
 0.00005546,0.00004090,-0.00023252,-0.00333888,0.00053249,-0.00036093,-
 0.00011765,-0.00014026,-0.00016946,-0.00428483,-0.00443218,-0.00975934
 ,0.00169091,0.00061741,0.00013645,-0.00033196,-0.00001399,-0.00004389,
 -0.00080517,-0.00053784,-0.00055663,-0.00000468,-0.00040992,-0.0000932
 7,-0.00024560,-0.00005991,-0.00012585,-0.00043737,0.00044167,0.0002534
 7,-0.00013563,0.00001856,0.00009122,0.00005555,0.00007902,-0.00002777,
 0.00027249,0.00017152,0.00004762,0.00030069,0.00041081,0.00008507,0.00
 042765,-0.00045912,-0.00025779,0.00672388,0.00619740,0.01648021,-0.069
 70388,-0.01317562,0.00049731,-0.64668335,-0.11858964,-0.10302540,-0.03
 642311,-0.02603780,-0.05114674,0.00851941,0.00167328,0.00371507,-0.001
 61156,-0.00017612,-0.00082731,0.00087740,0.00046124,-0.00000748,-0.003
 05109,-0.00062893,-0.00208972,0.74674297,0.00007745,-0.00005877,0.0001
 2811,-0.00009721,0.00018815,-0.00011565,0.00102669,-0.00035091,0.00059
 518,-0.00019310,-0.00007489,0.00003555,-0.00002006,-0.00003865,-0.0000
 1155,-0.00070793,0.00032723,0.00012192,0.00017790,-0.00002799,-0.00004
 964,-0.00280713,0.00007233,0.00152678,0.00027284,0.00009804,-0.0000069
 7,-0.00007245,-0.00000167,-0.00000576,-0.00017411,-0.00003796,-0.00006
 711,-0.00001450,-0.00009975,-0.00009451,-0.00003967,-0.00000791,-0.000
 01578,-0.00004655,0.00012126,0.00012250,-0.00001247,0.00000619,0.00002
 879,0.00000284,0.00002338,0.00000320,0.00007382,0.00002343,0.00000548,
 0.00013913,0.00007677,-0.00000723,0.00001303,-0.00009811,-0.00006991,0
 .00121778,0.00265069,-0.00254917,-0.00546314,0.02184375,0.00015081,-0.
 11988746,-0.10343976,-0.03115951,-0.03501371,0.00642621,-0.02175713,0.
 00807807,0.00722105,-0.00352130,0.00043781,-0.00231482,0.00101279,-0.0
 0065240,-0.00156631,0.00140469,0.00055730,-0.00313102,0.00271975,0.155
 88362,0.07482770,-0.00002217,-0.00009810,0.00006962,-0.00013241,0.0001
 5052,-0.00051428,0.00038550,-0.00005579,0.00080029,-0.00019295,-0.0000
 3732,0.00023976,-0.00004905,-0.00005631,0.00017056,-0.00074069,0.00025
 496,0.00033162,0.00050644,0.00005394,-0.00004551,-0.00635198,0.0018844
 3,0.00821979,0.00019179,0.00013894,-0.00006020,-0.00007465,-0.00000499
 ,0.00000876,-0.00008759,0.00000305,0.00005128,-0.00007188,-0.00007808,
 -0.00024674,-0.00001314,-0.00000213,0.00001144,0.00008396,0.00004749,0
 .00026902,0.00000029,0.00001076,0.00004117,0.00000919,-0.00000366,0.00
 002306,0.00004554,0.00000802,-0.00001439,0.00017235,0.00010001,-0.0000
 4307,-0.00010087,0.00000849,-0.00012173,0.00224205,-0.00451474,-0.0101
 7092,0.02186308,0.00329778,0.02282921,-0.10667765,-0.03172648,-0.12132
 240,-0.07627455,-0.02528399,-0.02140326,0.02212129,-0.00095968,-0.0043
 3204,0.00094473,0.00123481,0.00035399,-0.00292008,0.00098640,0.0019138
 7,0.00106388,0.00318893,0.00434430,0.15092129,0.05311692,0.12238088,0.
 00047189,0.00020260,-0.00026992,0.00161408,0.00155865,0.00143670,-0.00
 518380,-0.00275854,-0.00166075,-0.00035535,-0.00083895,0.00025801,-0.0
 0047488,-0.00056632,0.00064277,-0.00150131,0.00281349,0.00260776,-0.00
 054317,0.00190274,0.00485812,0.01549129,0.01465007,0.04393218,0.001493
 95,0.00018507,-0.00011888,-0.00005432,-0.00005713,0.00003385,-0.000420
 54,-0.00022833,-0.00000271,0.00007607,-0.00021416,-0.00022762,-0.00000
 715,-0.00010048,-0.00005295,-0.00018296,0.00025236,0.00040918,-0.00005
 010,0.00000757,0.00006652,0.00002321,0.00002937,0.00000876,0.00013362,
 0.00008609,0.00003005,0.00039318,0.00059123,-0.00007605,0.00003344,-0.
 00020900,-0.00027079,-0.01081130,-0.00495928,-0.00823552,0.00793452,0.
 00056268,-0.00214994,-0.00478266,0.00609628,0.02195619,-0.01491956,-0.
 03022132,-0.07210255,-0.11659893,-0.03401405,-0.08240096,0.00018420,0.
 00053117,0.00147649,0.00067743,-0.00000176,-0.00043616,0.00429380,0.00
 136325,0.00056447,-0.00363273,-0.00275638,-0.00684171,0.12669806,-0.00
 009381,0.00017113,-0.00055999,0.00150055,-0.00176372,-0.00054936,-0.00
 472417,-0.00240752,-0.00324825,-0.00141321,0.00081612,0.00110774,-0.00
 012617,-0.00002214,0.00032262,0.00096855,0.00129729,0.00156508,0.00142
 976,-0.00049223,0.00087437,0.00993914,0.01243305,-0.02347928,-0.000327
 01,-0.00032348,0.00000327,0.00012080,-0.00000980,0.00005431,-0.0000320
 0,0.00042630,0.00045407,0.00004723,0.00001058,-0.00012867,0.00010997,-
 0.00000240,0.00002297,0.00009227,0.00004828,0.00015272,0.00004273,-0.0
 0001358,-0.00001681,-0.00002318,0.00002315,0.00002976,0.00014294,-0.00
 005921,-0.00005206,0.00120209,0.00020380,-0.00030746,-0.00014385,0.000
 01614,-0.00004584,-0.00013859,0.00424087,-0.00144517,0.00114229,-0.001
 32093,-0.00120231,-0.00078829,0.00918396,0.00437658,-0.01953024,0.0075
 8171,-0.03219111,-0.03430391,-0.15335763,-0.18980313,-0.00010716,-0.00
 039218,-0.00048300,0.00014013,-0.00037543,0.00012867,0.00096086,-0.003
 70407,0.00025851,-0.00218078,-0.00265765,-0.00166420,0.04609307,0.1304
 4959,-0.00035556,0.00036051,-0.00137439,0.00256817,-0.00206304,0.00102
 986,-0.01347663,-0.00323836,-0.00841221,-0.00071690,0.00150510,0.00113
 650,-0.00054331,-0.00041928,0.00074691,0.00429616,0.00018218,0.0020549
 7,0.00467839,0.00081031,-0.00094047,0.03019155,-0.02389790,-0.06775013
 ,-0.00110642,-0.00072043,-0.00027764,0.00036326,-0.00002929,0.00014117
 ,0.00041885,0.00071005,0.00111042,0.00011875,0.00021692,-0.00035885,0.
 00047784,0.00005118,0.00017400,0.00040887,-0.00014790,0.00045194,0.000
 13294,-0.00003710,-0.00006049,-0.00002712,-0.00007619,0.00004610,-0.00
 002921,-0.00013925,-0.00012062,0.00083951,0.00002399,-0.00064907,-0.00
 043791,0.00026009,-0.00006076,0.00633829,0.00097007,0.00396343,-0.0004
 7252,-0.00097262,-0.00348008,0.00297125,0.00178329,0.01142390,-0.04137
 214,-0.02800495,-0.04103507,-0.08490987,-0.19078406,-0.59319923,-0.000
 53877,-0.00082802,-0.00226631,-0.00006038,0.00015988,0.00010588,-0.000
 65989,0.00004009,-0.00338347,-0.00566268,-0.00154124,-0.00378411,0.096
 56546,0.24582598,0.70476783\\-0.00003005,0.00001652,-0.00000430,0.0000
 3901,0.00001426,-0.00000963,0.00001790,-0.00003362,0.00001855,-0.00001
 271,-0.00001753,-0.00000164,-0.00000686,0.00000141,-0.00000127,-0.0000
 0287,0.00003602,0.00000416,-0.00000996,0.00000468,-0.00000258,0.000002
 95,0.00000542,-0.00002269,-0.00000985,-0.00002445,-0.00000403,0.000005
 25,-0.00000885,0.00000024,0.00001020,-0.00000561,-0.00000822,-0.000010
 01,0.00000608,-0.00001984,0.00000624,0.00000023,-0.00000156,0.00000604
 ,0.00000219,0.00002078,0.00000485,-0.00000046,0.00000617,0.00000020,-0
 .00000190,0.00000344,-0.00001092,-0.00000142,0.00000299,0.00000635,0.0
 0000618,-0.00000678,0.00000118,-0.00000726,0.00000376,0.00000194,0.000
 00223,0.00002051,-0.00000104,-0.00000341,-0.00000262,-0.00000558,0.000
 00580,0.00000266,0.00000620,-0.00001370,0.00000502,-0.00000963,0.00001
 776,-0.00000032,0.00000194,0.00000028,-0.00000344,0.00000359,-0.000002
 59,0.00000081,-0.00000047,0.00000421,-0.00000240,0.00000464,0.00000357
 ,0.00000011,-0.00000854,-0.00000602,0.00000211\\\@
 The archive entry for this job was punched.


 WHEN HAVING A MEETING OF THE MINDS,
 MAKE SURE YOU HAVE THE EQUIPMENT FOR IT.
 Job cpu time:       0 days 10 hours 47 minutes 39.3 seconds.
 Elapsed time:       0 days  0 hours 16 minutes 20.5 seconds.
 File lengths (MBytes):  RWF=    632 Int=      0 D2E=      0 Chk=     21 Scr=      1
 Normal termination of Gaussian 16 at Thu Oct 17 13:11:05 2024.
