 Entering Gaussian System, Link 0=g16
 Input=UridineSsrraPBE0aVDZ.gjf
 Output=UridineSsrraPBE0aVDZ.log
 Initial command:
 /sw/contrib/chem-src/g16/c01/g16/l1.exe "/scr/Gau-58911.inp" -scrdir="/scr/"
 Entering Link 1 = /sw/contrib/chem-src/g16/c01/g16/l1.exe PID=     58912.
  
 Copyright (c) 1988-2019, Gaussian, Inc.  All Rights Reserved.
  
 This is part of the Gaussian(R) 16 program.  It is based on
 the Gaussian(R) 09 system (copyright 2009, Gaussian, Inc.),
 the Gaussian(R) 03 system (copyright 2003, Gaussian, Inc.),
 the Gaussian(R) 98 system (copyright 1998, Gaussian, Inc.),
 the Gaussian(R) 94 system (copyright 1995, Gaussian, Inc.),
 the Gaussian 92(TM) system (copyright 1992, Gaussian, Inc.),
 the Gaussian 90(TM) system (copyright 1990, Gaussian, Inc.),
 the Gaussian 88(TM) system (copyright 1988, Gaussian, Inc.),
 the Gaussian 86(TM) system (copyright 1986, Carnegie Mellon
 University), and the Gaussian 82(TM) system (copyright 1983,
 Carnegie Mellon University). Gaussian is a federally registered
 trademark of Gaussian, Inc.
  
 This software contains proprietary and confidential information,
 including trade secrets, belonging to Gaussian, Inc.
  
 This software is provided under written license and may be
 used, copied, transmitted, or stored only in accord with that
 written license.
  
 The following legend is applicable only to US Government
 contracts under FAR:
  
                    RESTRICTED RIGHTS LEGEND
  
 Use, reproduction and disclosure by the US Government is
 subject to restrictions as set forth in subparagraphs (a)
 and (c) of the Commercial Computer Software - Restricted
 Rights clause in FAR 52.227-19.
  
 Gaussian, Inc.
 340 Quinnipiac St., Bldg. 40, Wallingford CT 06492
  
  
 ---------------------------------------------------------------
 Warning -- This program may not be used in any manner that
 competes with the business of Gaussian, Inc. or will provide
 assistance to any competitor of Gaussian, Inc.  The licensee
 of this program is prohibited from giving any competitor of
 Gaussian, Inc. access to this program.  By using this program,
 the user acknowledges that Gaussian, Inc. is engaged in the
 business of creating and licensing software in the field of
 computational chemistry and represents and warrants to the
 licensee that it is not a competitor of Gaussian, Inc. and that
 it will not use this program in any manner prohibited above.
 ---------------------------------------------------------------
  

 Cite this work as:
 Gaussian 16, Revision C.01,
 M. J. Frisch, G. W. Trucks, H. B. Schlegel, G. E. Scuseria, 
 M. A. Robb, J. R. Cheeseman, G. Scalmani, V. Barone, 
 G. A. Petersson, H. Nakatsuji, X. Li, M. Caricato, A. V. Marenich, 
 J. Bloino, B. G. Janesko, R. Gomperts, B. Mennucci, H. P. Hratchian, 
 J. V. Ortiz, A. F. Izmaylov, J. L. Sonnenberg, D. Williams-Young, 
 F. Ding, F. Lipparini, F. Egidi, J. Goings, B. Peng, A. Petrone, 
 T. Henderson, D. Ranasinghe, V. G. Zakrzewski, J. Gao, N. Rega, 
 G. Zheng, W. Liang, M. Hada, M. Ehara, K. Toyota, R. Fukuda, 
 J. Hasegawa, M. Ishida, T. Nakajima, Y. Honda, O. Kitao, H. Nakai, 
 T. Vreven, K. Throssell, J. A. Montgomery, Jr., J. E. Peralta, 
 F. Ogliaro, M. J. Bearpark, J. J. Heyd, E. N. Brothers, K. N. Kudin, 
 V. N. Staroverov, T. A. Keith, R. Kobayashi, J. Normand, 
 K. Raghavachari, A. P. Rendell, J. C. Burant, S. S. Iyengar, 
 J. Tomasi, M. Cossi, J. M. Millam, M. Klene, C. Adamo, R. Cammi, 
 J. W. Ochterski, R. L. Martin, K. Morokuma, O. Farkas, 
 J. B. Foresman, and D. J. Fox, Gaussian, Inc., Wallingford CT, 2019.
 
 ******************************************
 Gaussian 16:  EM64L-G16RevC.01  3-Jul-2019
                17-Oct-2024 
 ******************************************
 %nprocshared=40
 Will use up to   40 processors via shared memory.
 %mem=50gb
 ------------------------------------------------------
 # PBE1PBE/aug-cc-pVDZ opt freq EmpiricalDispersion=GD3
 ------------------------------------------------------
 1/18=20,19=15,26=3,38=1/1,3;
 2/9=110,12=2,17=6,18=5,40=1/2;
 3/5=16,7=10,11=2,25=1,30=1,71=1,74=-13,124=31/1,2,3;
 4//1;
 5/5=2,38=5/2;
 6/7=2,8=2,9=2,10=2,28=1/1;
 7//1,2,3,16;
 1/18=20,19=15,26=3/3(2);
 2/9=110/2;
 99//99;
 2/9=110/2;
 3/5=16,7=10,11=2,25=1,30=1,71=1,74=-13,124=31/1,2,3;
 4/5=5,16=3,69=1/1;
 5/5=2,38=5/2;
 7//1,2,3,16;
 1/18=20,19=15,26=3/3(-5);
 2/9=110/2;
 6/7=2,8=2,9=2,10=2,19=2,28=1/1;
 99/9=1/99;
 ----
 blah
 ----
 Symbolic Z-matrix:
 Charge =  0 Multiplicity = 1
 C                    -3.76469  -1.61302   0.53598 
 C                    -2.30734  -1.82574   0.9078 
 C                    -1.62419  -0.81906  -0.02933 
 O                    -1.90987  -3.18065   0.70936 
 H                    -2.13063  -1.57096   1.95744 
 O                    -2.50482   0.32124  -0.12234 
 H                    -1.53713  -1.24117  -1.03823 
 N                    -0.30206  -0.40318   0.43157 
 C                    -3.83608  -0.11084   0.25144 
 H                    -4.46387  -1.96997   1.29768 
 O                    -4.02448  -2.36283  -0.66889 
 C                    -4.30776   0.72279   1.44793 
 H                    -4.48605   0.10162  -0.60478 
 O                    -3.59429   0.38602   2.6335 
 H                    -5.37156   0.54561   1.6346 
 H                    -4.14867   1.78831   1.2529 
 H                    -4.97585  -2.28557  -0.86289 
 H                    -2.30597  -3.44526  -0.14606 
 H                    -3.89434   0.99699   3.33067 
 C                    -0.16685   0.55149   1.42103 
 C                     1.02561   0.91727   1.89487 
 C                     2.2316    0.27605   1.35088 
 N                     2.01827  -0.66899   0.39149 
 C                     0.79996  -1.05547  -0.10736 
 H                    -1.07771   1.00124   1.80483 
 H                     1.15522   1.66323   2.66652 
 H                     2.82738  -1.12944   0.00695 
 O                     3.34726   0.58646   1.75114 
 O                     0.74445  -1.91715  -0.98208 
 

 GradGradGradGradGradGradGradGradGradGradGradGradGradGradGradGradGradGrad
 Berny optimization.
 Initialization pass.
                           ----------------------------
                           !    Initial Parameters    !
                           ! (Angstroms and Degrees)  !
 --------------------------                            --------------------------
 ! Name  Definition              Value          Derivative Info.                !
 --------------------------------------------------------------------------------
 ! R1    R(1,2)                  1.519          estimate D2E/DX2                !
 ! R2    R(1,9)                  1.5306         estimate D2E/DX2                !
 ! R3    R(1,10)                 1.0938         estimate D2E/DX2                !
 ! R4    R(1,11)                 1.4427         estimate D2E/DX2                !
 ! R5    R(2,3)                  1.5357         estimate D2E/DX2                !
 ! R6    R(2,4)                  1.4259         estimate D2E/DX2                !
 ! R7    R(2,5)                  1.0945         estimate D2E/DX2                !
 ! R8    R(3,6)                  1.4438         estimate D2E/DX2                !
 ! R9    R(3,7)                  1.0971         estimate D2E/DX2                !
 ! R10   R(3,8)                  1.4606         estimate D2E/DX2                !
 ! R11   R(4,18)                 0.9791         estimate D2E/DX2                !
 ! R12   R(6,9)                  1.4487         estimate D2E/DX2                !
 ! R13   R(8,20)                 1.3816         estimate D2E/DX2                !
 ! R14   R(8,24)                 1.3894         estimate D2E/DX2                !
 ! R15   R(9,12)                 1.5327         estimate D2E/DX2                !
 ! R16   R(9,13)                 1.0958         estimate D2E/DX2                !
 ! R17   R(11,17)                0.974          estimate D2E/DX2                !
 ! R18   R(12,14)                1.4241         estimate D2E/DX2                !
 ! R19   R(12,15)                1.0945         estimate D2E/DX2                !
 ! R20   R(12,16)                1.0948         estimate D2E/DX2                !
 ! R21   R(14,19)                0.9744         estimate D2E/DX2                !
 ! R22   R(20,21)                1.3343         estimate D2E/DX2                !
 ! R23   R(20,25)                1.0859         estimate D2E/DX2                !
 ! R24   R(21,22)                1.4702         estimate D2E/DX2                !
 ! R25   R(21,26)                1.0811         estimate D2E/DX2                !
 ! R26   R(22,23)                1.3635         estimate D2E/DX2                !
 ! R27   R(22,28)                1.2253         estimate D2E/DX2                !
 ! R28   R(23,24)                1.372          estimate D2E/DX2                !
 ! R29   R(23,27)                1.0072         estimate D2E/DX2                !
 ! R30   R(24,29)                1.2291         estimate D2E/DX2                !
 ! A1    A(2,1,9)              103.1614         estimate D2E/DX2                !
 ! A2    A(2,1,10)             113.3971         estimate D2E/DX2                !
 ! A3    A(2,1,11)             107.7225         estimate D2E/DX2                !
 ! A4    A(9,1,10)             114.83           estimate D2E/DX2                !
 ! A5    A(9,1,11)             110.2691         estimate D2E/DX2                !
 ! A6    A(10,1,11)            107.2694         estimate D2E/DX2                !
 ! A7    A(1,2,3)              100.6978         estimate D2E/DX2                !
 ! A8    A(1,2,4)              111.4963         estimate D2E/DX2                !
 ! A9    A(1,2,5)              110.9199         estimate D2E/DX2                !
 ! A10   A(3,2,4)              114.4542         estimate D2E/DX2                !
 ! A11   A(3,2,5)              111.15           estimate D2E/DX2                !
 ! A12   A(4,2,5)              108.0387         estimate D2E/DX2                !
 ! A13   A(2,3,6)              106.6011         estimate D2E/DX2                !
 ! A14   A(2,3,7)              110.1372         estimate D2E/DX2                !
 ! A15   A(2,3,8)              113.3763         estimate D2E/DX2                !
 ! A16   A(6,3,7)              107.0394         estimate D2E/DX2                !
 ! A17   A(6,3,8)              110.3389         estimate D2E/DX2                !
 ! A18   A(7,3,8)              109.1414         estimate D2E/DX2                !
 ! A19   A(2,4,18)             105.4038         estimate D2E/DX2                !
 ! A20   A(3,6,9)              107.959          estimate D2E/DX2                !
 ! A21   A(3,8,20)             120.7527         estimate D2E/DX2                !
 ! A22   A(3,8,24)             117.5095         estimate D2E/DX2                !
 ! A23   A(20,8,24)            121.6408         estimate D2E/DX2                !
 ! A24   A(1,9,6)              107.3275         estimate D2E/DX2                !
 ! A25   A(1,9,12)             113.769          estimate D2E/DX2                !
 ! A26   A(1,9,13)             111.2984         estimate D2E/DX2                !
 ! A27   A(6,9,12)             108.7844         estimate D2E/DX2                !
 ! A28   A(6,9,13)             106.5982         estimate D2E/DX2                !
 ! A29   A(12,9,13)            108.7835         estimate D2E/DX2                !
 ! A30   A(1,11,17)            107.5179         estimate D2E/DX2                !
 ! A31   A(9,12,14)            111.5374         estimate D2E/DX2                !
 ! A32   A(9,12,15)            110.1337         estimate D2E/DX2                !
 ! A33   A(9,12,16)            110.2157         estimate D2E/DX2                !
 ! A34   A(14,12,15)           107.8597         estimate D2E/DX2                !
 ! A35   A(14,12,16)           107.7976         estimate D2E/DX2                !
 ! A36   A(15,12,16)           109.2181         estimate D2E/DX2                !
 ! A37   A(12,14,19)           107.0447         estimate D2E/DX2                !
 ! A38   A(8,20,21)            122.0897         estimate D2E/DX2                !
 ! A39   A(8,20,25)            117.2076         estimate D2E/DX2                !
 ! A40   A(21,20,25)           120.7027         estimate D2E/DX2                !
 ! A41   A(20,21,22)           118.825          estimate D2E/DX2                !
 ! A42   A(20,21,26)           123.3536         estimate D2E/DX2                !
 ! A43   A(22,21,26)           117.821          estimate D2E/DX2                !
 ! A44   A(21,22,23)           115.741          estimate D2E/DX2                !
 ! A45   A(21,22,28)           121.0341         estimate D2E/DX2                !
 ! A46   A(23,22,28)           123.2248         estimate D2E/DX2                !
 ! A47   A(22,23,24)           126.1572         estimate D2E/DX2                !
 ! A48   A(22,23,27)           117.3738         estimate D2E/DX2                !
 ! A49   A(24,23,27)           116.4689         estimate D2E/DX2                !
 ! A50   A(8,24,23)            115.5329         estimate D2E/DX2                !
 ! A51   A(8,24,29)            124.7061         estimate D2E/DX2                !
 ! A52   A(23,24,29)           119.7572         estimate D2E/DX2                !
 ! D1    D(9,1,2,3)            -35.5635         estimate D2E/DX2                !
 ! D2    D(9,1,2,4)           -157.3788         estimate D2E/DX2                !
 ! D3    D(9,1,2,5)             82.1674         estimate D2E/DX2                !
 ! D4    D(10,1,2,3)          -160.3883         estimate D2E/DX2                !
 ! D5    D(10,1,2,4)            77.7964         estimate D2E/DX2                !
 ! D6    D(10,1,2,5)           -42.6574         estimate D2E/DX2                !
 ! D7    D(11,1,2,3)            81.0666         estimate D2E/DX2                !
 ! D8    D(11,1,2,4)           -40.7487         estimate D2E/DX2                !
 ! D9    D(11,1,2,5)          -161.2025         estimate D2E/DX2                !
 ! D10   D(2,1,9,6)             24.693          estimate D2E/DX2                !
 ! D11   D(2,1,9,12)           -95.7036         estimate D2E/DX2                !
 ! D12   D(2,1,9,13)           140.9759         estimate D2E/DX2                !
 ! D13   D(10,1,9,6)           148.5795         estimate D2E/DX2                !
 ! D14   D(10,1,9,12)           28.1829         estimate D2E/DX2                !
 ! D15   D(10,1,9,13)          -95.1375         estimate D2E/DX2                !
 ! D16   D(11,1,9,6)           -90.1171         estimate D2E/DX2                !
 ! D17   D(11,1,9,12)          149.4863         estimate D2E/DX2                !
 ! D18   D(11,1,9,13)           26.1659         estimate D2E/DX2                !
 ! D19   D(2,1,11,17)          175.3212         estimate D2E/DX2                !
 ! D20   D(9,1,11,17)          -72.7881         estimate D2E/DX2                !
 ! D21   D(10,1,11,17)          52.9151         estimate D2E/DX2                !
 ! D22   D(1,2,3,6)             35.71           estimate D2E/DX2                !
 ! D23   D(1,2,3,7)            -80.0756         estimate D2E/DX2                !
 ! D24   D(1,2,3,8)            157.3103         estimate D2E/DX2                !
 ! D25   D(4,2,3,6)            155.4182         estimate D2E/DX2                !
 ! D26   D(4,2,3,7)             39.6326         estimate D2E/DX2                !
 ! D27   D(4,2,3,8)            -82.9815         estimate D2E/DX2                !
 ! D28   D(5,2,3,6)            -81.8519         estimate D2E/DX2                !
 ! D29   D(5,2,3,7)            162.3625         estimate D2E/DX2                !
 ! D30   D(5,2,3,8)             39.7484         estimate D2E/DX2                !
 ! D31   D(1,2,4,18)            42.488          estimate D2E/DX2                !
 ! D32   D(3,2,4,18)           -70.9819         estimate D2E/DX2                !
 ! D33   D(5,2,4,18)           164.6187         estimate D2E/DX2                !
 ! D34   D(2,3,6,9)            -21.2121         estimate D2E/DX2                !
 ! D35   D(7,3,6,9)             96.6347         estimate D2E/DX2                !
 ! D36   D(8,3,6,9)           -144.7212         estimate D2E/DX2                !
 ! D37   D(2,3,8,20)           -79.5252         estimate D2E/DX2                !
 ! D38   D(2,3,8,24)            96.9513         estimate D2E/DX2                !
 ! D39   D(6,3,8,20)            39.9586         estimate D2E/DX2                !
 ! D40   D(6,3,8,24)          -143.5648         estimate D2E/DX2                !
 ! D41   D(7,3,8,20)           157.3111         estimate D2E/DX2                !
 ! D42   D(7,3,8,24)           -26.2123         estimate D2E/DX2                !
 ! D43   D(3,6,9,1)             -2.2217         estimate D2E/DX2                !
 ! D44   D(3,6,9,12)           121.2881         estimate D2E/DX2                !
 ! D45   D(3,6,9,13)          -121.5646         estimate D2E/DX2                !
 ! D46   D(3,8,20,21)          177.6103         estimate D2E/DX2                !
 ! D47   D(3,8,20,25)           -2.4473         estimate D2E/DX2                !
 ! D48   D(24,8,20,21)           1.2812         estimate D2E/DX2                !
 ! D49   D(24,8,20,25)        -178.7764         estimate D2E/DX2                !
 ! D50   D(3,8,24,23)         -177.5837         estimate D2E/DX2                !
 ! D51   D(3,8,24,29)            3.1324         estimate D2E/DX2                !
 ! D52   D(20,8,24,23)          -1.1404         estimate D2E/DX2                !
 ! D53   D(20,8,24,29)         179.5757         estimate D2E/DX2                !
 ! D54   D(1,9,12,14)           49.0261         estimate D2E/DX2                !
 ! D55   D(1,9,12,15)          -70.7002         estimate D2E/DX2                !
 ! D56   D(1,9,12,16)          168.7288         estimate D2E/DX2                !
 ! D57   D(6,9,12,14)          -70.5473         estimate D2E/DX2                !
 ! D58   D(6,9,12,15)          169.7264         estimate D2E/DX2                !
 ! D59   D(6,9,12,16)           49.1554         estimate D2E/DX2                !
 ! D60   D(13,9,12,14)         173.7067         estimate D2E/DX2                !
 ! D61   D(13,9,12,15)          53.9805         estimate D2E/DX2                !
 ! D62   D(13,9,12,16)         -66.5905         estimate D2E/DX2                !
 ! D63   D(9,12,14,19)         175.6979         estimate D2E/DX2                !
 ! D64   D(15,12,14,19)        -63.241          estimate D2E/DX2                !
 ! D65   D(16,12,14,19)         54.576          estimate D2E/DX2                !
 ! D66   D(8,20,21,22)          -0.3995         estimate D2E/DX2                !
 ! D67   D(8,20,21,26)         179.8455         estimate D2E/DX2                !
 ! D68   D(25,20,21,22)        179.6601         estimate D2E/DX2                !
 ! D69   D(25,20,21,26)         -0.0949         estimate D2E/DX2                !
 ! D70   D(20,21,22,23)         -0.5068         estimate D2E/DX2                !
 ! D71   D(20,21,22,28)        179.5836         estimate D2E/DX2                !
 ! D72   D(26,21,22,23)        179.2618         estimate D2E/DX2                !
 ! D73   D(26,21,22,28)         -0.6478         estimate D2E/DX2                !
 ! D74   D(21,22,23,24)          0.619          estimate D2E/DX2                !
 ! D75   D(21,22,23,27)       -179.5196         estimate D2E/DX2                !
 ! D76   D(28,22,23,24)       -179.4736         estimate D2E/DX2                !
 ! D77   D(28,22,23,27)          0.3879         estimate D2E/DX2                !
 ! D78   D(22,23,24,8)           0.1826         estimate D2E/DX2                !
 ! D79   D(22,23,24,29)        179.5045         estimate D2E/DX2                !
 ! D80   D(27,23,24,8)        -179.6799         estimate D2E/DX2                !
 ! D81   D(27,23,24,29)         -0.3581         estimate D2E/DX2                !
 --------------------------------------------------------------------------------
 Trust Radius=3.00D-01 FncErr=1.00D-07 GrdErr=1.00D-06 EigMax=2.50D+02 EigMin=1.00D-04
 Number of steps in this run=    173 maximum allowed number of steps=    174.
 GradGradGradGradGradGradGradGradGradGradGradGradGradGradGradGradGradGrad

                          Input orientation:                          
 ---------------------------------------------------------------------
 Center     Atomic      Atomic             Coordinates (Angstroms)
 Number     Number       Type             X           Y           Z
 ---------------------------------------------------------------------
      1          6           0       -3.764694   -1.613022    0.535976
      2          6           0       -2.307344   -1.825740    0.907800
      3          6           0       -1.624185   -0.819064   -0.029327
      4          8           0       -1.909875   -3.180651    0.709361
      5          1           0       -2.130629   -1.570960    1.957438
      6          8           0       -2.504824    0.321235   -0.122339
      7          1           0       -1.537130   -1.241167   -1.038234
      8          7           0       -0.302060   -0.403183    0.431565
      9          6           0       -3.836079   -0.110839    0.251435
     10          1           0       -4.463870   -1.969971    1.297680
     11          8           0       -4.024480   -2.362826   -0.668889
     12          6           0       -4.307759    0.722789    1.447935
     13          1           0       -4.486053    0.101620   -0.604776
     14          8           0       -3.594294    0.386018    2.633499
     15          1           0       -5.371562    0.545605    1.634596
     16          1           0       -4.148671    1.788307    1.252899
     17          1           0       -4.975846   -2.285569   -0.862894
     18          1           0       -2.305972   -3.445258   -0.146056
     19          1           0       -3.894337    0.996992    3.330674
     20          6           0       -0.166846    0.551489    1.421026
     21          6           0        1.025607    0.917267    1.894871
     22          6           0        2.231600    0.276052    1.350879
     23          7           0        2.018265   -0.668988    0.391487
     24          6           0        0.799956   -1.055470   -0.107359
     25          1           0       -1.077712    1.001236    1.804826
     26          1           0        1.155218    1.663230    2.666515
     27          1           0        2.827376   -1.129442    0.006951
     28          8           0        3.347260    0.586462    1.751142
     29          8           0        0.744451   -1.917154   -0.982080
 ---------------------------------------------------------------------
                    Distance matrix (angstroms):
                    1          2          3          4          5
     1  C    0.000000
     2  C    1.519003   0.000000
     3  C    2.351959   1.535679   0.000000
     4  O    2.434723   1.425884   2.490858   0.000000
     5  H    2.166217   1.094478   2.183821   2.048789   0.000000
     6  O    2.400416   2.389495   1.443765   3.648136   2.836529
     7  H    2.752899   2.173017   1.097106   2.637163   3.071654
     8  N    3.669393   2.504323   1.460614   3.221268   2.652481
     9  C    1.530559   2.389295   2.339420   3.652903   2.819745
    10  H    1.093826   2.196227   3.339064   2.886998   2.457337
    11  O    1.442703   2.392271   2.924663   2.653293   3.333364
    12  C    2.565658   3.284571   3.429458   4.640278   3.203244
    13  H    2.182125   3.278624   3.060897   4.374580   3.861410
    14  O    2.902551   3.086447   3.524797   4.388702   2.535575
    15  H    2.906658   3.942200   4.321318   5.169557   3.884292
    16  H    3.497206   4.070738   3.849092   5.477060   3.981651
    17  H    1.968768   3.235382   3.752213   3.559963   4.069423
    18  H    2.439288   1.932214   2.715761   0.979106   2.822840
    19  H    3.826136   4.044340   4.443114   5.316209   3.404530
    20  C    4.291029   3.239807   2.470987   4.180130   2.940913
    21  C    5.585333   4.427975   3.706586   5.178361   4.019579
    22  C    6.339416   5.021540   4.239260   5.432509   4.775815
    23  N    5.861287   4.507278   3.669748   4.673305   4.525382
    24  C    4.643358   3.358449   2.436891   3.539295   3.621801
    25  H    3.957802   3.210677   2.641257   4.402354   2.783544
    26  H    6.283196   5.220664   4.599394   6.057097   4.664715
    27  H    6.630920   5.259441   4.462516   5.209835   5.346134
    28  O    7.542827   6.205199   5.464507   6.550871   5.891035
    29  O    4.767534   3.590746   2.779205   3.391584   4.126343
                    6          7          8          9         10
     6  O    0.000000
     7  H    2.053386   0.000000
     8  N    2.384064   2.094737   0.000000
     9  C    1.448667   2.868110   3.550662   0.000000
    10  H    3.332258   3.814900   4.530524   2.223763   0.000000
    11  O    3.132452   2.753443   4.348288   2.440068   2.052996
    12  C    2.424371   4.208865   4.283275   1.532654   2.701464
    13  H    2.050913   3.269114   4.339888   1.095766   2.812707
    14  O    2.964082   4.512347   4.038583   2.445313   2.844514
    15  H    3.369769   5.003942   5.295973   2.168354   2.695466
    16  H    2.597270   4.609463   4.502625   2.169654   3.771738
    17  H    3.667396   3.598095   5.202238   2.696339   2.242722
    18  H    3.771813   2.499023   3.688297   3.690200   2.986197
    19  H    3.782947   5.445470   4.823875   3.272980   3.641470
    20  C    2.810895   3.337552   1.381562   3.907671   4.983713
    21  C    4.109542   4.453040   2.376458   5.233916   6.231143
    22  C    4.960456   4.713082   2.779556   6.178607   7.062349
    23  N    4.658637   3.874574   2.335844   5.882558   6.673217
    24  C    3.580100   2.522495   1.389373   4.744880   5.524338
    25  H    2.492591   3.649989   2.111841   3.355343   4.533358
    26  H    4.793179   5.423045   3.374718   5.821768   6.829935
    27  H    5.527526   4.489299   3.240543   6.745292   7.452164
    28  O    6.150379   5.914229   4.004774   7.371276   8.231326
    29  O    4.038234   2.380278   2.320709   5.075982   5.685658
                   11         12         13         14         15
    11  O    0.000000
    12  C    3.752627   0.000000
    13  H    2.508117   2.152037   0.000000
    14  O    4.318213   1.424082   3.370837   0.000000
    15  H    3.947105   1.094492   2.448680   2.044983   0.000000
    16  H    4.576089   1.094840   2.531738   2.044456   1.784786
    17  H    0.974014   3.851816   2.450549   4.612031   3.795997
    18  H    2.097208   4.890866   4.188498   4.905545   5.338122
    19  H    5.225114   1.947001   4.079165   0.974355   2.294041
    20  C    5.267097   4.144542   4.791848   3.639350   5.209099
    21  C    6.544865   5.355592   6.106711   4.708639   6.413240
    22  C    7.083902   6.555318   6.998705   5.966426   7.613226
    23  N    6.364609   6.562904   6.625144   6.135183   7.591449
    24  C    5.029879   5.627601   5.433983   5.375837   6.609499
    25  H    5.110735   3.261611   4.269927   2.719996   4.321310
    26  H    7.359573   5.675692   6.705513   4.918356   6.701701
    27  H    6.994707   7.511148   7.441503   7.101635   8.525116
    28  O    8.300445   7.662234   8.194279   7.000278   8.719696
    29  O    4.799939   6.196701   5.619251   6.099322   7.093503
                   16         17         18         19         20
    16  H    0.000000
    17  H    4.664468   0.000000
    18  H    5.722133   2.997826   0.000000
    19  H    2.237859   5.434233   5.860388   0.000000
    20  C    4.172879   6.032551   4.796414   4.211819   0.000000
    21  C    5.286208   7.340359   5.856315   5.125791   1.334267
    22  C    6.557772   7.963037   6.056279   6.478151   2.415228
    23  N    6.694134   7.287276   5.166784   6.809785   2.706331
    24  C    5.867391   5.953475   3.919103   6.170013   2.419294
    25  H    3.217902   5.754586   5.008580   3.203374   1.085934
    26  H    5.490464   8.101832   6.781374   5.136437   2.129569
    27  H    7.663608   7.936217   5.633620   7.794247   3.713557
    28  O    7.607999   9.184543   7.198135   7.423219   3.529750
    29  O    6.532091   5.733388   3.512708   6.972120   3.563647
                   21         22         23         24         25
    21  C    0.000000
    22  C    1.470204   0.000000
    23  N    2.400362   1.363469   0.000000
    24  C    2.819846   2.439060   1.372039   0.000000
    25  H    2.106920   3.418114   3.791075   3.378184   0.000000
    26  H    1.081062   2.194027   3.370437   3.900246   2.483288
    27  H    3.316569   2.033841   1.007247   2.031987   4.798110
    28  O    2.349502   1.225260   2.278386   3.555098   4.444693
    29  O    4.048436   3.530505   2.251046   1.229113   4.427654
                   26         27         28         29
    26  H    0.000000
    27  H    4.203381   0.000000
    28  O    2.608138   2.501361   0.000000
    29  O    5.128365   2.436647   4.529151   0.000000
 Stoichiometry    C9H12N2O6
 Framework group  C1[X(C9H12N2O6)]
 Deg. of freedom    81
 Full point group                 C1      NOp   1
 Largest Abelian subgroup         C1      NOp   1
 Largest concise Abelian subgroup C1      NOp   1
                         Standard orientation:                         
 ---------------------------------------------------------------------
 Center     Atomic      Atomic             Coordinates (Angstroms)
 Number     Number       Type             X           Y           Z
 ---------------------------------------------------------------------
      1          6           0       -2.686576   -0.491711    0.344058
      2          6           0       -1.256854   -0.668104    0.825878
      3          6           0       -0.489685   -0.514174   -0.495511
      4          8           0       -1.074444   -1.926455    1.471185
      5          1           0       -0.983555    0.119315    1.535217
      6          8           0       -1.197721    0.477054   -1.270501
      7          1           0       -0.524639   -1.451860   -1.063988
      8          7           0        0.903796   -0.116033   -0.313614
      9          6           0       -2.553703    0.553228   -0.766373
     10          1           0       -3.384669   -0.226428    1.143275
     11          8           0       -3.123507   -1.752104   -0.205391
     12          6           0       -2.827292    1.987597   -0.300792
     13          1           0       -3.214568    0.323941   -1.609811
     14          8           0       -2.102649    2.299609    0.884767
     15          1           0       -3.892795    2.117495   -0.086917
     16          1           0       -2.525549    2.700656   -1.074856
     17          1           0       -4.063007   -1.657792   -0.444446
     18          1           0       -1.554441   -2.575104    0.916656
     19          1           0       -2.268609    3.239255    1.081972
     20          6           0        1.235105    1.201641   -0.063248
     21          6           0        2.493959    1.587147    0.153412
     22          6           0        3.559067    0.573922    0.132960
     23          7           0        3.153788   -0.706607   -0.101649
     24          6           0        1.864906   -1.119244   -0.327493
     25          1           0        0.424000    1.923564   -0.049584
     26          1           0        2.776406    2.612214    0.348747
     27          1           0        3.862801   -1.421942   -0.113576
     28          8           0        4.729669    0.884128    0.319310
     29          8           0        1.632649   -2.308063   -0.536019
 ---------------------------------------------------------------------
 Rotational constants (GHZ):           0.8534958           0.3168910           0.2582171
 Standard basis: Aug-CC-pVDZ (5D, 7F)
 There are   533 symmetry adapted cartesian basis functions of A   symmetry.
 There are   499 symmetry adapted basis functions of A   symmetry.
   499 basis functions,   863 primitive gaussians,   533 cartesian basis functions
    64 alpha electrons       64 beta electrons
       nuclear repulsion energy      1321.8614959365 Hartrees.
 NAtoms=   29 NActive=   29 NUniq=   29 SFac= 1.00D+00 NAtFMM=   60 NAOKFM=F Big=F
 Integral buffers will be    131072 words long.
 Raffenetti 2 integral format.
 Two-electron integral symmetry is turned on.
 Nuclear repulsion after empirical dispersion term =     1321.8414921628 Hartrees.
 One-electron integrals computed using PRISM.
 NBasis=   499 RedAO= T EigKep=  2.81D-06  NBF=   499
 NBsUse=   499 1.00D-06 EigRej= -1.00D+00 NBFU=   499
 ExpMin= 2.97D-02 ExpMax= 1.17D+04 ExpMxC= 4.01D+02 IAcc=3 IRadAn=         5 AccDes= 0.00D+00
 Harris functional with IExCor= 1009 and IRadAn=       5 diagonalized for initial guess.
 HarFok:  IExCor= 1009 AccDes= 0.00D+00 IRadAn=         5 IDoV= 1 UseB2=F ITyADJ=14
 ICtDFT=  3500011 ScaDFX=  1.000000  1.000000  1.000000  1.000000
 FoFCou: FMM=F IPFlag=           0 FMFlag=      100000 FMFlg1=           0
         NFxFlg=           0 DoJE=T BraDBF=F KetDBF=T FulRan=T
         wScrn=  0.000000 ICntrl=       500 IOpCl=  0 I1Cent=   200000004 NGrid=           0
         NMat0=    1 NMatS0=      1 NMatT0=    0 NMatD0=    1 NMtDS0=    0 NMtDT0=    0
 Petite list used in FoFCou.
 Requested convergence on RMS density matrix=1.00D-08 within 128 cycles.
 Requested convergence on MAX density matrix=1.00D-06.
 Requested convergence on             energy=1.00D-06.
 No special actions if energy rises.
 SCF Done:  E(RPBE1PBE) =  -910.202555899     A.U. after   14 cycles
            NFock= 14  Conv=0.49D-08     -V/T= 2.0056

 **********************************************************************

            Population analysis using the SCF Density.

 **********************************************************************

 Orbital symmetries:
       Occupied  (A) (A) (A) (A) (A) (A) (A) (A) (A) (A) (A) (A)
                 (A) (A) (A) (A) (A) (A) (A) (A) (A) (A) (A) (A)
                 (A) (A) (A) (A) (A) (A) (A) (A) (A) (A) (A) (A)
                 (A) (A) (A) (A) (A) (A) (A) (A) (A) (A) (A) (A)
                 (A) (A) (A) (A) (A) (A) (A) (A) (A) (A) (A) (A)
                 (A) (A) (A) (A)
       Virtual   (A) (A) (A) (A) (A) (A) (A) (A) (A) (A) (A) (A)
                 (A) (A) (A) (A) (A) (A) (A) (A) (A) (A) (A) (A)
                 (A) (A) (A) (A) (A) (A) (A) (A) (A) (A) (A) (A)
                 (A) (A) (A) (A) (A) (A) (A) (A) (A) (A) (A) (A)
                 (A) (A) (A) (A) (A) (A) (A) (A) (A) (A) (A) (A)
                 (A) (A) (A) (A) (A) (A) (A) (A) (A) (A) (A) (A)
                 (A) (A) (A) (A) (A) (A) (A) (A) (A) (A) (A) (A)
                 (A) (A) (A) (A) (A) (A) (A) (A) (A) (A) (A) (A)
                 (A) (A) (A) (A) (A) (A) (A) (A) (A) (A) (A) (A)
                 (A) (A) (A) (A) (A) (A) (A) (A) (A) (A) (A) (A)
                 (A) (A) (A) (A) (A) (A) (A) (A) (A) (A) (A) (A)
                 (A) (A) (A) (A) (A) (A) (A) (A) (A) (A) (A) (A)
                 (A) (A) (A) (A) (A) (A) (A) (A) (A) (A) (A) (A)
                 (A) (A) (A) (A) (A) (A) (A) (A) (A) (A) (A) (A)
                 (A) (A) (A) (A) (A) (A) (A) (A) (A) (A) (A) (A)
                 (A) (A) (A) (A) (A) (A) (A) (A) (A) (A) (A) (A)
                 (A) (A) (A) (A) (A) (A) (A) (A) (A) (A) (A) (A)
                 (A) (A) (A) (A) (A) (A) (A) (A) (A) (A) (A) (A)
                 (A) (A) (A) (A) (A) (A) (A) (A) (A) (A) (A) (A)
                 (A) (A) (A) (A) (A) (A) (A) (A) (A) (A) (A) (A)
                 (A) (A) (A) (A) (A) (A) (A) (A) (A) (A) (A) (A)
                 (A) (A) (A) (A) (A) (A) (A) (A) (A) (A) (A) (A)
                 (A) (A) (A) (A) (A) (A) (A) (A) (A) (A) (A) (A)
                 (A) (A) (A) (A) (A) (A) (A) (A) (A) (A) (A) (A)
                 (A) (A) (A) (A) (A) (A) (A) (A) (A) (A) (A) (A)
                 (A) (A) (A) (A) (A) (A) (A) (A) (A) (A) (A) (A)
                 (A) (A) (A) (A) (A) (A) (A) (A) (A) (A) (A) (A)
                 (A) (A) (A) (A) (A) (A) (A) (A) (A) (A) (A) (A)
                 (A) (A) (A) (A) (A) (A) (A) (A) (A) (A) (A) (A)
                 (A) (A) (A) (A) (A) (A) (A) (A) (A) (A) (A) (A)
                 (A) (A) (A) (A) (A) (A) (A) (A) (A) (A) (A) (A)
                 (A) (A) (A) (A) (A) (A) (A) (A) (A) (A) (A) (A)
                 (A) (A) (A) (A) (A) (A) (A) (A) (A) (A) (A) (A)
                 (A) (A) (A) (A) (A) (A) (A) (A) (A) (A) (A) (A)
                 (A) (A) (A) (A) (A) (A) (A) (A) (A) (A) (A) (A)
                 (A) (A) (A) (A) (A) (A) (A) (A) (A) (A) (A) (A)
                 (A) (A) (A)
 The electronic state is 1-A.
 Alpha  occ. eigenvalues --  -19.26359 -19.26253 -19.26085 -19.23670 -19.20331
 Alpha  occ. eigenvalues --  -19.19287 -14.47434 -14.45379 -10.38509 -10.34461
 Alpha  occ. eigenvalues --  -10.34091 -10.31873 -10.31550 -10.31038 -10.30560
 Alpha  occ. eigenvalues --  -10.30349 -10.24561  -1.12185  -1.10735  -1.08900
 Alpha  occ. eigenvalues --   -1.08190  -1.07025  -1.05708  -1.01106  -0.96846
 Alpha  occ. eigenvalues --   -0.83467  -0.82869  -0.79823  -0.73021  -0.71136
 Alpha  occ. eigenvalues --   -0.67890  -0.64984  -0.64031  -0.59696  -0.59422
 Alpha  occ. eigenvalues --   -0.57780  -0.56796  -0.54256  -0.53516  -0.50957
 Alpha  occ. eigenvalues --   -0.50640  -0.49360  -0.48242  -0.47479  -0.46732
 Alpha  occ. eigenvalues --   -0.46428  -0.45527  -0.44143  -0.42911  -0.42560
 Alpha  occ. eigenvalues --   -0.41516  -0.40698  -0.40275  -0.38470  -0.37471
 Alpha  occ. eigenvalues --   -0.36364  -0.33286  -0.32270  -0.31347  -0.30617
 Alpha  occ. eigenvalues --   -0.29860  -0.29508  -0.27267  -0.25337
 Alpha virt. eigenvalues --   -0.03555  -0.02808  -0.01926  -0.00042   0.00583
 Alpha virt. eigenvalues --    0.00710   0.01748   0.02167   0.02695   0.02871
 Alpha virt. eigenvalues --    0.03145   0.03831   0.04853   0.05333   0.06027
 Alpha virt. eigenvalues --    0.06398   0.06477   0.07156   0.07367   0.07790
 Alpha virt. eigenvalues --    0.07889   0.08641   0.08969   0.09400   0.09891
 Alpha virt. eigenvalues --    0.10009   0.10389   0.10519   0.10826   0.10923
 Alpha virt. eigenvalues --    0.11263   0.11889   0.12144   0.12224   0.12451
 Alpha virt. eigenvalues --    0.12829   0.13017   0.13244   0.13479   0.13721
 Alpha virt. eigenvalues --    0.14306   0.14959   0.15698   0.15778   0.16017
 Alpha virt. eigenvalues --    0.16277   0.16554   0.16806   0.17871   0.18103
 Alpha virt. eigenvalues --    0.18653   0.19079   0.19503   0.19631   0.20096
 Alpha virt. eigenvalues --    0.20418   0.20900   0.21263   0.22017   0.22117
 Alpha virt. eigenvalues --    0.22511   0.22660   0.23310   0.23507   0.23930
 Alpha virt. eigenvalues --    0.24428   0.24590   0.24969   0.25376   0.25605
 Alpha virt. eigenvalues --    0.25993   0.26526   0.26836   0.26939   0.27263
 Alpha virt. eigenvalues --    0.27537   0.27924   0.28260   0.28607   0.29150
 Alpha virt. eigenvalues --    0.29642   0.30061   0.30130   0.30457   0.30742
 Alpha virt. eigenvalues --    0.31274   0.31517   0.31649   0.31957   0.32835
 Alpha virt. eigenvalues --    0.33089   0.33453   0.33677   0.34121   0.34263
 Alpha virt. eigenvalues --    0.34573   0.34912   0.35457   0.35716   0.36335
 Alpha virt. eigenvalues --    0.36826   0.37310   0.37416   0.38272   0.38382
 Alpha virt. eigenvalues --    0.38991   0.39036   0.39260   0.40786   0.40939
 Alpha virt. eigenvalues --    0.41366   0.41921   0.42353   0.42947   0.43453
 Alpha virt. eigenvalues --    0.43995   0.44483   0.44654   0.45094   0.45618
 Alpha virt. eigenvalues --    0.46443   0.47213   0.47542   0.48532   0.48783
 Alpha virt. eigenvalues --    0.49926   0.49979   0.50124   0.51469   0.51656
 Alpha virt. eigenvalues --    0.52168   0.52289   0.53081   0.53518   0.53936
 Alpha virt. eigenvalues --    0.54281   0.54777   0.55185   0.55676   0.56043
 Alpha virt. eigenvalues --    0.56706   0.57300   0.58183   0.58603   0.59018
 Alpha virt. eigenvalues --    0.59847   0.60364   0.60909   0.61669   0.61818
 Alpha virt. eigenvalues --    0.62075   0.62436   0.63092   0.63726   0.64209
 Alpha virt. eigenvalues --    0.65282   0.65462   0.65977   0.66642   0.67008
 Alpha virt. eigenvalues --    0.67187   0.67605   0.67901   0.69222   0.69800
 Alpha virt. eigenvalues --    0.70082   0.70390   0.70973   0.71551   0.71825
 Alpha virt. eigenvalues --    0.72191   0.72951   0.73311   0.73412   0.74084
 Alpha virt. eigenvalues --    0.74624   0.75402   0.75574   0.76160   0.77334
 Alpha virt. eigenvalues --    0.77947   0.78408   0.78774   0.79733   0.80128
 Alpha virt. eigenvalues --    0.80973   0.81287   0.82215   0.82404   0.83489
 Alpha virt. eigenvalues --    0.83997   0.84644   0.85843   0.86294   0.87202
 Alpha virt. eigenvalues --    0.87582   0.88362   0.89003   0.89849   0.90339
 Alpha virt. eigenvalues --    0.90933   0.92201   0.93478   0.94519   0.94562
 Alpha virt. eigenvalues --    0.95733   0.96613   0.97302   0.98242   0.98410
 Alpha virt. eigenvalues --    0.99951   1.01290   1.01934   1.02251   1.03285
 Alpha virt. eigenvalues --    1.03686   1.05354   1.06176   1.07188   1.08260
 Alpha virt. eigenvalues --    1.08564   1.09113   1.10080   1.11066   1.11253
 Alpha virt. eigenvalues --    1.11863   1.12559   1.13091   1.14081   1.14579
 Alpha virt. eigenvalues --    1.15571   1.16768   1.18220   1.18707   1.19878
 Alpha virt. eigenvalues --    1.20892   1.21411   1.22453   1.23736   1.23913
 Alpha virt. eigenvalues --    1.25439   1.26192   1.26407   1.27541   1.29803
 Alpha virt. eigenvalues --    1.30369   1.30921   1.31534   1.33013   1.33846
 Alpha virt. eigenvalues --    1.34642   1.36390   1.37979   1.38897   1.39511
 Alpha virt. eigenvalues --    1.39984   1.41216   1.42233   1.44540   1.44859
 Alpha virt. eigenvalues --    1.45114   1.45532   1.47050   1.47508   1.48097
 Alpha virt. eigenvalues --    1.49169   1.50210   1.51354   1.52442   1.53648
 Alpha virt. eigenvalues --    1.54392   1.54631   1.55673   1.56524   1.56732
 Alpha virt. eigenvalues --    1.57723   1.58323   1.59402   1.61291   1.62714
 Alpha virt. eigenvalues --    1.63391   1.64130   1.65299   1.66293   1.67627
 Alpha virt. eigenvalues --    1.68964   1.69083   1.70727   1.71523   1.72796
 Alpha virt. eigenvalues --    1.73108   1.73957   1.74762   1.76477   1.76936
 Alpha virt. eigenvalues --    1.78052   1.78609   1.79086   1.79551   1.80449
 Alpha virt. eigenvalues --    1.81556   1.83097   1.84312   1.84795   1.86274
 Alpha virt. eigenvalues --    1.86757   1.88158   1.88748   1.89488   1.90961
 Alpha virt. eigenvalues --    1.91857   1.92271   1.94117   1.94891   1.96100
 Alpha virt. eigenvalues --    1.97080   1.97823   1.99380   1.99656   2.01398
 Alpha virt. eigenvalues --    2.02466   2.03051   2.05842   2.05909   2.06515
 Alpha virt. eigenvalues --    2.07180   2.08777   2.08864   2.10277   2.11221
 Alpha virt. eigenvalues --    2.11310   2.11672   2.13131   2.16570   2.16901
 Alpha virt. eigenvalues --    2.17758   2.18994   2.20028   2.21871   2.22926
 Alpha virt. eigenvalues --    2.23430   2.24564   2.25208   2.26475   2.27184
 Alpha virt. eigenvalues --    2.27958   2.29947   2.31564   2.33411   2.35344
 Alpha virt. eigenvalues --    2.35963   2.36182   2.37505   2.38597   2.40500
 Alpha virt. eigenvalues --    2.41650   2.43640   2.44937   2.48089   2.48865
 Alpha virt. eigenvalues --    2.50267   2.50467   2.52103   2.52549   2.55109
 Alpha virt. eigenvalues --    2.56735   2.57136   2.60428   2.61580   2.62117
 Alpha virt. eigenvalues --    2.62737   2.65162   2.65978   2.66545   2.70106
 Alpha virt. eigenvalues --    2.71056   2.72540   2.74413   2.77128   2.77505
 Alpha virt. eigenvalues --    2.81317   2.82626   2.84502   2.87336   2.90117
 Alpha virt. eigenvalues --    2.90210   2.90970   2.94355   2.97678   3.00038
 Alpha virt. eigenvalues --    3.02072   3.12539   3.14354   3.14896   3.18004
 Alpha virt. eigenvalues --    3.21887   3.26056   3.32048   3.34229   3.39867
 Alpha virt. eigenvalues --    3.40930   3.42729   3.43503   3.44912   3.45068
 Alpha virt. eigenvalues --    3.46622   3.47887   3.49031   3.49921   3.51517
 Alpha virt. eigenvalues --    3.52516   3.54073   3.54835   3.55396   3.57323
 Alpha virt. eigenvalues --    3.58762   3.59922   3.62638   3.63543   3.64635
 Alpha virt. eigenvalues --    3.66562   3.68133   3.68861   3.74680   3.77992
 Alpha virt. eigenvalues --    3.78676   3.81275   3.85703   3.90212   3.97072
 Alpha virt. eigenvalues --    4.00540   4.02718   4.07760   4.39314   4.54748
          Condensed to atoms (all electrons):
               1          2          3          4          5          6
     1  C    9.394248  -1.314265  -0.876030   0.019776   0.126384   0.058246
     2  C   -1.314265   7.951616  -1.911140  -0.111687  -0.679069  -0.071399
     3  C   -0.876030  -1.911140  14.298167   0.134052  -0.169601  -0.376944
     4  O    0.019776  -0.111687   0.134052   8.498453  -0.197243  -0.008386
     5  H    0.126384  -0.679069  -0.169601  -0.197243   2.314818   0.053683
     6  O    0.058246  -0.071399  -0.376944  -0.008386   0.053683   9.420995
     7  H   -0.136989   0.270467  -0.887384  -0.004394   0.089515  -0.210775
     8  N    0.410147   0.443661  -1.657021  -0.004680  -0.151178   0.036192
     9  C   -1.716833   0.537702  -2.682597   0.005091  -0.074131   0.112745
    10  H   -1.291271   0.392536   0.303907   0.035818  -0.138547   0.004245
    11  O   -0.467623  -0.029363   0.091251  -0.019114   0.024128   0.016520
    12  C   -0.109411  -0.041791   0.284333  -0.011905   0.022789  -0.077414
    13  H    0.105249   0.065365   0.551438   0.001097  -0.008530  -0.252117
    14  O   -0.016640  -0.016331  -0.051585   0.006696  -0.000286  -0.005432
    15  H    0.077807   0.005161   0.020692  -0.002692   0.016238   0.085134
    16  H    0.065707  -0.017623  -0.030562   0.000320  -0.004671  -0.021017
    17  H    0.073917  -0.016102  -0.032975   0.002138   0.004982   0.004521
    18  H    0.063161  -0.233374   0.056028   0.334295   0.047600   0.008754
    19  H   -0.014918   0.000419  -0.007990  -0.000067  -0.000502  -0.007214
    20  C    0.266693  -0.091095  -1.895683  -0.018681   0.222644   0.232430
    21  C   -0.035275   0.058152   0.036074  -0.003311  -0.024463   0.001965
    22  C    0.014479   0.005723  -0.301807   0.003596   0.013428  -0.002736
    23  N    0.029519   0.009971  -0.081462   0.002455  -0.007842  -0.004824
    24  C   -0.072483  -0.105068   0.214584  -0.017347   0.002966  -0.109701
    25  H    0.095985  -0.073065  -0.199161  -0.005132   0.025180  -0.039181
    26  H   -0.000999  -0.000633   0.015043   0.000198  -0.003336  -0.002668
    27  H    0.000024  -0.002096  -0.026579  -0.000051   0.000738   0.001164
    28  O   -0.000236  -0.000105   0.005844  -0.000045   0.000832   0.000440
    29  O    0.001612  -0.022157   0.210943   0.010495  -0.013873   0.007840
               7          8          9         10         11         12
     1  C   -0.136989   0.410147  -1.716833  -1.291271  -0.467623  -0.109411
     2  C    0.270467   0.443661   0.537702   0.392536  -0.029363  -0.041791
     3  C   -0.887384  -1.657021  -2.682597   0.303907   0.091251   0.284333
     4  O   -0.004394  -0.004680   0.005091   0.035818  -0.019114  -0.011905
     5  H    0.089515  -0.151178  -0.074131  -0.138547   0.024128   0.022789
     6  O   -0.210775   0.036192   0.112745   0.004245   0.016520  -0.077414
     7  H    2.667643  -0.308741   0.009451   0.019568  -0.003887   0.017173
     8  N   -0.308741   8.654589   0.149700  -0.043901  -0.024474  -0.043122
     9  C    0.009451   0.149700  10.040728   0.101114   0.201549  -0.198584
    10  H    0.019568  -0.043901   0.101114   2.279171  -0.055355  -0.109054
    11  O   -0.003887  -0.024474   0.201549  -0.055355   8.659645  -0.004335
    12  C    0.017173  -0.043122  -0.198584  -0.109054  -0.004335   4.976715
    13  H    0.012686  -0.045007  -1.095910   0.081799  -0.024932  -0.002718
    14  O    0.000246   0.023922  -0.145786   0.031804   0.005684   0.196774
    15  H   -0.003516  -0.001850  -0.136995  -0.049658  -0.001598   0.135398
    16  H    0.004924   0.009547  -0.015637   0.024627   0.000932  -0.014069
    17  H   -0.001367   0.008980  -0.040738  -0.083520   0.368591  -0.000658
    18  H   -0.009340  -0.011547  -0.017565  -0.010457   0.019915   0.000587
    19  H   -0.000218  -0.001613   0.069158  -0.006539   0.000223  -0.062178
    20  C   -0.014838   0.356640   0.107772  -0.034645   0.001184  -0.024292
    21  C    0.014533  -0.240330   0.213018   0.002109   0.000998  -0.069912
    22  C   -0.005491  -0.128944  -0.023051  -0.000166   0.000000   0.001345
    23  N   -0.026982   0.008614   0.005093   0.000556  -0.000790  -0.001263
    24  C    0.167646  -0.337202  -0.288327   0.006708  -0.001379   0.010418
    25  H    0.022215  -0.072681  -0.034497  -0.003017  -0.001086   0.003069
    26  H   -0.001611   0.024813  -0.005566   0.000051   0.000013   0.003484
    27  H    0.002481   0.096170  -0.001985   0.000005  -0.000015   0.000106
    28  O    0.000297  -0.005641   0.000505  -0.000023   0.000001   0.000082
    29  O   -0.006150  -0.132976   0.006855   0.000394   0.000872   0.001416
              13         14         15         16         17         18
     1  C    0.105249  -0.016640   0.077807   0.065707   0.073917   0.063161
     2  C    0.065365  -0.016331   0.005161  -0.017623  -0.016102  -0.233374
     3  C    0.551438  -0.051585   0.020692  -0.030562  -0.032975   0.056028
     4  O    0.001097   0.006696  -0.002692   0.000320   0.002138   0.334295
     5  H   -0.008530  -0.000286   0.016238  -0.004671   0.004982   0.047600
     6  O   -0.252117  -0.005432   0.085134  -0.021017   0.004521   0.008754
     7  H    0.012686   0.000246  -0.003516   0.004924  -0.001367  -0.009340
     8  N   -0.045007   0.023922  -0.001850   0.009547   0.008980  -0.011547
     9  C   -1.095910  -0.145786  -0.136995  -0.015637  -0.040738  -0.017565
    10  H    0.081799   0.031804  -0.049658   0.024627  -0.083520  -0.010457
    11  O   -0.024932   0.005684  -0.001598   0.000932   0.368591   0.019915
    12  C   -0.002718   0.196774   0.135398  -0.014069  -0.000658   0.000587
    13  H    2.295458   0.051652  -0.132182  -0.009872  -0.018501  -0.003041
    14  O    0.051652   8.352721  -0.187799  -0.004784  -0.001041  -0.000564
    15  H   -0.132182  -0.187799   1.814794  -0.316620   0.007943   0.000010
    16  H   -0.009872  -0.004784  -0.316620   1.649308  -0.001846   0.000332
    17  H   -0.018501  -0.001041   0.007943  -0.001846   0.581111  -0.000790
    18  H   -0.003041  -0.000564   0.000010   0.000332  -0.000790   0.600429
    19  H    0.003437   0.356527  -0.001557  -0.052876   0.000170  -0.000161
    20  C   -0.058764   0.023633  -0.007885   0.037535   0.004858   0.007544
    21  C   -0.000788  -0.009118  -0.001960   0.000547  -0.000203  -0.001049
    22  C   -0.000473   0.002308  -0.000025   0.001291   0.000141   0.000004
    23  N   -0.000271  -0.000377   0.000121  -0.000701   0.000180   0.000086
    24  C    0.008685   0.007759  -0.002649   0.009076  -0.000236  -0.001655
    25  H   -0.004731  -0.016723   0.008535   0.002087   0.000348   0.001387
    26  H   -0.000081   0.001377  -0.000417   0.000878  -0.000012   0.000006
    27  H   -0.000083   0.000099  -0.000018   0.000086   0.000007   0.000027
    28  O    0.000001   0.000038   0.000015   0.000004   0.000001  -0.000014
    29  O    0.000235  -0.000146   0.000156  -0.000259  -0.000131  -0.001722
              19         20         21         22         23         24
     1  C   -0.014918   0.266693  -0.035275   0.014479   0.029519  -0.072483
     2  C    0.000419  -0.091095   0.058152   0.005723   0.009971  -0.105068
     3  C   -0.007990  -1.895683   0.036074  -0.301807  -0.081462   0.214584
     4  O   -0.000067  -0.018681  -0.003311   0.003596   0.002455  -0.017347
     5  H   -0.000502   0.222644  -0.024463   0.013428  -0.007842   0.002966
     6  O   -0.007214   0.232430   0.001965  -0.002736  -0.004824  -0.109701
     7  H   -0.000218  -0.014838   0.014533  -0.005491  -0.026982   0.167646
     8  N   -0.001613   0.356640  -0.240330  -0.128944   0.008614  -0.337202
     9  C    0.069158   0.107772   0.213018  -0.023051   0.005093  -0.288327
    10  H   -0.006539  -0.034645   0.002109  -0.000166   0.000556   0.006708
    11  O    0.000223   0.001184   0.000998   0.000000  -0.000790  -0.001379
    12  C   -0.062178  -0.024292  -0.069912   0.001345  -0.001263   0.010418
    13  H    0.003437  -0.058764  -0.000788  -0.000473  -0.000271   0.008685
    14  O    0.356527   0.023633  -0.009118   0.002308  -0.000377   0.007759
    15  H   -0.001557  -0.007885  -0.001960  -0.000025   0.000121  -0.002649
    16  H   -0.052876   0.037535   0.000547   0.001291  -0.000701   0.009076
    17  H    0.000170   0.004858  -0.000203   0.000141   0.000180  -0.000236
    18  H   -0.000161   0.007544  -0.001049   0.000004   0.000086  -0.001655
    19  H    0.553250  -0.002842   0.002820  -0.000475   0.000062  -0.001443
    20  C   -0.002842   9.537390  -2.354719   0.132221   0.157317  -1.036226
    21  C    0.002820  -2.354719   9.595808  -1.747960  -0.038950   0.428122
    22  C   -0.000475   0.132221  -1.747960   7.812825   0.186170  -0.340229
    23  N    0.000062   0.157317  -0.038950   0.186170   7.119692  -0.186322
    24  C   -0.001443  -1.036226   0.428122  -0.340229  -0.186322   7.038965
    25  H   -0.005631  -0.629592  -0.118136  -0.152522   0.005108  -0.004144
    26  H    0.000035   0.503137  -0.900735   0.244244  -0.060226  -0.024582
    27  H   -0.000028  -0.010930   0.014823  -0.150258   0.395152  -0.293263
    28  O   -0.000032   0.099865  -0.138434   0.148766  -0.114665   0.035576
    29  O    0.000063  -0.075614   0.034647  -0.023726  -0.261937   0.239838
              25         26         27         28         29
     1  C    0.095985  -0.000999   0.000024  -0.000236   0.001612
     2  C   -0.073065  -0.000633  -0.002096  -0.000105  -0.022157
     3  C   -0.199161   0.015043  -0.026579   0.005844   0.210943
     4  O   -0.005132   0.000198  -0.000051  -0.000045   0.010495
     5  H    0.025180  -0.003336   0.000738   0.000832  -0.013873
     6  O   -0.039181  -0.002668   0.001164   0.000440   0.007840
     7  H    0.022215  -0.001611   0.002481   0.000297  -0.006150
     8  N   -0.072681   0.024813   0.096170  -0.005641  -0.132976
     9  C   -0.034497  -0.005566  -0.001985   0.000505   0.006855
    10  H   -0.003017   0.000051   0.000005  -0.000023   0.000394
    11  O   -0.001086   0.000013  -0.000015   0.000001   0.000872
    12  C    0.003069   0.003484   0.000106   0.000082   0.001416
    13  H   -0.004731  -0.000081  -0.000083   0.000001   0.000235
    14  O   -0.016723   0.001377   0.000099   0.000038  -0.000146
    15  H    0.008535  -0.000417  -0.000018   0.000015   0.000156
    16  H    0.002087   0.000878   0.000086   0.000004  -0.000259
    17  H    0.000348  -0.000012   0.000007   0.000001  -0.000131
    18  H    0.001387   0.000006   0.000027  -0.000014  -0.001722
    19  H   -0.005631   0.000035  -0.000028  -0.000032   0.000063
    20  C   -0.629592   0.503137  -0.010930   0.099865  -0.075614
    21  C   -0.118136  -0.900735   0.014823  -0.138434   0.034647
    22  C   -0.152522   0.244244  -0.150258   0.148766  -0.023726
    23  N    0.005108  -0.060226   0.395152  -0.114665  -0.261937
    24  C   -0.004144  -0.024582  -0.293263   0.035576   0.239838
    25  H    3.122330  -0.228468   0.000680   0.002009  -0.001359
    26  H   -0.228468   2.048097   0.010607  -0.018009   0.001162
    27  H    0.000680   0.010607   1.141502  -0.052157  -0.006791
    28  O    0.002009  -0.018009  -0.052157   8.708089  -0.001913
    29  O   -0.001359   0.001162  -0.006791  -0.001913   8.663013
 Mulliken charges:
               1
     1  C    1.250018
     2  C    0.995590
     3  C    0.966163
     4  O   -0.649744
     5  H   -0.492653
     6  O   -0.855066
     7  H   -0.677159
     8  N   -0.012071
     9  C    0.917723
    10  H   -0.458260
    11  O   -0.757557
    12  C    1.117018
    13  H   -0.519102
    14  O   -0.604627
    15  H   -0.324583
    16  H   -0.316664
    17  H    0.140232
    18  H    0.151111
    19  H    0.180121
    20  C    0.564938
    21  C    1.281727
    22  C    0.311320
    23  N   -0.133485
    24  C    0.651913
    25  H   -0.699807
    26  H   -0.605801
    27  H   -0.119419
    28  O   -0.671090
    29  O   -0.630787
 Sum of Mulliken charges =  -0.00000
 Mulliken charges with hydrogens summed into heavy atoms:
               1
     1  C    0.791757
     2  C    0.502937
     3  C    0.289004
     4  O   -0.498633
     6  O   -0.855066
     8  N   -0.012071
     9  C    0.398622
    11  O   -0.617324
    12  C    0.475771
    14  O   -0.424506
    20  C   -0.134869
    21  C    0.675925
    22  C    0.311320
    23  N   -0.252904
    24  C    0.651913
    28  O   -0.671090
    29  O   -0.630787
 Electronic spatial extent (au):  <R**2>=           4186.9275
 Charge=              0.0000 electrons
 Dipole moment (field-independent basis, Debye):
    X=             -8.5157    Y=              3.7195    Z=             -0.8021  Tot=              9.3271
 Quadrupole moment (field-independent basis, Debye-Ang):
   XX=            -98.6500   YY=            -95.1481   ZZ=           -103.5875
   XY=             -9.5356   XZ=              0.4886   YZ=              2.5952
 Traceless Quadrupole moment (field-independent basis, Debye-Ang):
   XX=              0.4785   YY=              3.9804   ZZ=             -4.4590
   XY=             -9.5356   XZ=              0.4886   YZ=              2.5952
 Octapole moment (field-independent basis, Debye-Ang**2):
  XXX=           -231.9407  YYY=             55.4987  ZZZ=             -1.9285  XYY=            -37.7062
  XXY=            -40.8694  XXZ=            -21.7040  XZZ=             -4.9893  YZZ=              4.0081
  YYZ=              8.3335  XYZ=             -9.5706
 Hexadecapole moment (field-independent basis, Debye-Ang**3):
 XXXX=          -4001.2043 YYYY=          -1098.2870 ZZZZ=           -386.2179 XXXY=           -231.9827
 XXXZ=            -36.8022 YYYX=            -44.2303 YYYZ=             29.9425 ZZZX=              3.5156
 ZZZY=             22.0402 XXYY=           -744.5342 XXZZ=           -672.2612 YYZZ=           -277.6255
 XXYZ=              4.2648 YYXZ=             -3.0675 ZZXY=            -11.9833
 N-N= 1.321841492163D+03 E-N=-4.775619664069D+03  KE= 9.051615055537D+02
 Calling FoFJK, ICntrl=      2127 FMM=F ISym2X=0 I1Cent= 0 IOpClX= 0 NMat=1 NMatS=1 NMatT=0.
 ***** Axes restored to original set *****
 -------------------------------------------------------------------
 Center     Atomic                   Forces (Hartrees/Bohr)
 Number     Number              X              Y              Z
 -------------------------------------------------------------------
      1        6          -0.012246785    0.000044156   -0.011924953
      2        6          -0.001606244   -0.021812583   -0.012774923
      3        6          -0.004242804    0.009609368   -0.003571095
      4        8          -0.004879891    0.015629103   -0.005401743
      5        1          -0.000308677    0.001214586   -0.000012624
      6        8           0.005531889   -0.018609569    0.010834126
      7        1           0.007979639   -0.003416046    0.002971884
      8        7          -0.006708636    0.000628538   -0.004798545
      9        6           0.007992676    0.013041419    0.016228695
     10        1           0.000464791    0.004642647    0.006610247
     11        8          -0.005220636    0.005537631    0.003842658
     12        6           0.002679951   -0.001204967    0.003189800
     13        1          -0.003855650   -0.000481652   -0.000352008
     14        8           0.001088413    0.003471568    0.006363882
     15        1          -0.007217485   -0.000864099   -0.005545954
     16        1          -0.001681121    0.003019758   -0.008077900
     17        1           0.013250539   -0.002456749    0.001589357
     18        1           0.006034611    0.001592895    0.010819162
     19        1           0.005410757   -0.009687867   -0.008451789
     20        6          -0.009868195   -0.002579097   -0.000723583
     21        6           0.016003575   -0.010091627   -0.008295489
     22        6           0.004189469    0.030981041    0.031209975
     23        7          -0.005471415    0.000512039    0.000249182
     24        6           0.000431586   -0.017760647   -0.021551799
     25        1          -0.005593473   -0.003390559   -0.003916983
     26        1           0.000119735    0.001917556    0.001576518
     27        1           0.002502857   -0.003320194   -0.003047280
     28        8           0.002561204   -0.008400767   -0.007951603
     29        8          -0.007340680    0.012234116    0.010912786
 -------------------------------------------------------------------
 Cartesian Forces:  Max     0.031209975 RMS     0.009140258

 GradGradGradGradGradGradGradGradGradGradGradGradGradGradGradGradGradGrad
 Berny optimization.
 FormGI is forming the generalized inverse of G from B-inverse, IUseBI=4.
 Internal  Forces:  Max     0.019069171 RMS     0.005367093
 Search for a local minimum.
 Step number   1 out of a maximum of  173
 All quantities printed in internal units (Hartrees-Bohrs-Radians)
 Mixed Optimization -- RFO/linear search
 Second derivative matrix not updated -- first step.
 ITU=  0
     Eigenvalues ---    0.00334   0.00577   0.00731   0.00890   0.01127
     Eigenvalues ---    0.01349   0.01373   0.01485   0.01595   0.01789
     Eigenvalues ---    0.01941   0.01974   0.02092   0.02123   0.02339
     Eigenvalues ---    0.02545   0.03114   0.03644   0.04234   0.04868
     Eigenvalues ---    0.04957   0.05013   0.05393   0.05558   0.05707
     Eigenvalues ---    0.05959   0.06457   0.06966   0.07729   0.08354
     Eigenvalues ---    0.09783   0.11617   0.13091   0.13881   0.16000
     Eigenvalues ---    0.16000   0.16000   0.16000   0.16000   0.16000
     Eigenvalues ---    0.16071   0.16777   0.18158   0.20027   0.22085
     Eigenvalues ---    0.22357   0.23438   0.24593   0.24952   0.24998
     Eigenvalues ---    0.25000   0.26247   0.28638   0.29180   0.29238
     Eigenvalues ---    0.34004   0.34155   0.34259   0.34299   0.34300
     Eigenvalues ---    0.34374   0.34868   0.35287   0.35866   0.36740
     Eigenvalues ---    0.36888   0.37427   0.39217   0.41586   0.41852
     Eigenvalues ---    0.45346   0.46126   0.46437   0.49391   0.51431
     Eigenvalues ---    0.51559   0.52497   0.52565   0.57048   0.91457
     Eigenvalues ---    0.93090
 RFO step:  Lambda=-1.82237371D-02 EMin= 3.33994725D-03
 Linear search not attempted -- first point.
 Iteration  1 RMS(Cart)=  0.07839312 RMS(Int)=  0.00190863
 Iteration  2 RMS(Cart)=  0.00275190 RMS(Int)=  0.00043355
 Iteration  3 RMS(Cart)=  0.00000299 RMS(Int)=  0.00043354
 Iteration  4 RMS(Cart)=  0.00000000 RMS(Int)=  0.00043354
 Variable       Old X    -DE/DX   Delta X   Delta X   Delta X     New X
                                 (Linear)    (Quad)   (Total)
    R1        2.87050   0.00240   0.00000   0.00856   0.00855   2.87905
    R2        2.89234  -0.00244   0.00000  -0.00462  -0.00462   2.88772
    R3        2.06703   0.00279   0.00000   0.00771   0.00771   2.07474
    R4        2.72631  -0.00758   0.00000  -0.01848  -0.01848   2.70784
    R5        2.90201  -0.00127   0.00000  -0.00507  -0.00501   2.89701
    R6        2.69453  -0.01680   0.00000  -0.03869  -0.03869   2.65584
    R7        2.06826   0.00022   0.00000   0.00061   0.00061   2.06887
    R8        2.72832  -0.01403   0.00000  -0.03684  -0.03685   2.69147
    R9        2.07323  -0.00079   0.00000  -0.00219  -0.00219   2.07104
   R10        2.76016  -0.01009   0.00000  -0.02607  -0.02607   2.73409
   R11        1.85024  -0.01232   0.00000  -0.02309  -0.02309   1.82715
   R12        2.73758  -0.00658   0.00000  -0.01660  -0.01664   2.72095
   R13        2.61077  -0.00374   0.00000  -0.00837  -0.00838   2.60239
   R14        2.62553  -0.00458   0.00000  -0.01014  -0.01019   2.61535
   R15        2.89630  -0.01273   0.00000  -0.04106  -0.04106   2.85524
   R16        2.07070   0.00247   0.00000   0.00686   0.00686   2.07756
   R17        1.84062  -0.01345   0.00000  -0.02474  -0.02474   1.81588
   R18        2.69112   0.00299   0.00000   0.00684   0.00684   2.69796
   R19        2.06829   0.00621   0.00000   0.01719   0.01719   2.08548
   R20        2.06895   0.00413   0.00000   0.01146   0.01146   2.08040
   R21        1.84126  -0.01379   0.00000  -0.02538  -0.02538   1.81588
   R22        2.52140   0.01627   0.00000   0.02679   0.02683   2.54823
   R23        2.05212   0.00190   0.00000   0.00513   0.00513   2.05725
   R24        2.77828  -0.00788   0.00000  -0.01994  -0.01989   2.75839
   R25        2.04291   0.00246   0.00000   0.00654   0.00654   2.04945
   R26        2.57658   0.01907   0.00000   0.03616   0.03617   2.61275
   R27        2.31541  -0.00239   0.00000  -0.00252  -0.00252   2.31288
   R28        2.59278   0.00972   0.00000   0.01876   0.01873   2.61151
   R29        1.90342   0.00469   0.00000   0.00972   0.00972   1.91314
   R30        2.32269  -0.01601   0.00000  -0.01717  -0.01717   2.30552
    A1        1.80051  -0.00120   0.00000  -0.01107  -0.01109   1.78942
    A2        1.97915   0.00061   0.00000  -0.00847  -0.00884   1.97031
    A3        1.88011  -0.00478   0.00000  -0.03848  -0.03803   1.84208
    A4        2.00416  -0.00254   0.00000  -0.02572  -0.02655   1.97761
    A5        1.92456   0.00392   0.00000   0.02658   0.02619   1.95075
    A6        1.87220   0.00368   0.00000   0.05353   0.05357   1.92577
    A7        1.75751  -0.00054   0.00000   0.00900   0.00875   1.76626
    A8        1.94598   0.00737   0.00000   0.05960   0.05954   2.00552
    A9        1.93592  -0.00318   0.00000  -0.02764  -0.02766   1.90825
   A10        1.99760  -0.00160   0.00000  -0.00214  -0.00361   1.99400
   A11        1.93993  -0.00042   0.00000  -0.01957  -0.01985   1.92009
   A12        1.88563  -0.00156   0.00000  -0.01796  -0.01763   1.86800
   A13        1.86054  -0.00306   0.00000  -0.02172  -0.02169   1.83885
   A14        1.92226   0.00084   0.00000   0.02054   0.02066   1.94291
   A15        1.97879   0.00568   0.00000   0.01512   0.01433   1.99312
   A16        1.86819   0.00579   0.00000   0.05990   0.05952   1.92771
   A17        1.92578  -0.00507   0.00000  -0.04158  -0.04159   1.88419
   A18        1.90488  -0.00406   0.00000  -0.02886  -0.02852   1.87635
   A19        1.83964   0.00372   0.00000   0.02085   0.02085   1.86050
   A20        1.88424   0.00864   0.00000   0.03255   0.03275   1.91699
   A21        2.10753  -0.00392   0.00000  -0.01246  -0.01244   2.09509
   A22        2.05093   0.00113   0.00000   0.00641   0.00644   2.05737
   A23        2.12303   0.00280   0.00000   0.00635   0.00629   2.12932
   A24        1.87322  -0.00426   0.00000  -0.01397  -0.01393   1.85929
   A25        1.98564   0.00250   0.00000   0.00719   0.00714   1.99279
   A26        1.94252  -0.00031   0.00000  -0.00918  -0.00915   1.93337
   A27        1.89865   0.00220   0.00000   0.00636   0.00647   1.90512
   A28        1.86049   0.00174   0.00000   0.02075   0.02063   1.88112
   A29        1.89863  -0.00182   0.00000  -0.00960  -0.00962   1.88901
   A30        1.87654   0.00312   0.00000   0.01748   0.01748   1.89402
   A31        1.94669  -0.01462   0.00000  -0.05899  -0.05878   1.88791
   A32        1.92220  -0.00130   0.00000  -0.02283  -0.02239   1.89980
   A33        1.92363  -0.00247   0.00000  -0.03217  -0.03185   1.89178
   A34        1.88251   0.00944   0.00000   0.05979   0.05859   1.94110
   A35        1.88142   0.00977   0.00000   0.05900   0.05745   1.93888
   A36        1.90622  -0.00018   0.00000  -0.00057  -0.00290   1.90332
   A37        1.86828   0.00386   0.00000   0.02169   0.02169   1.88997
   A38        2.13087   0.00162   0.00000   0.00339   0.00341   2.13428
   A39        2.04566  -0.00838   0.00000  -0.04420  -0.04421   2.00145
   A40        2.10666   0.00677   0.00000   0.04081   0.04080   2.14746
   A41        2.07389   0.00323   0.00000   0.01382   0.01390   2.08778
   A42        2.15293  -0.00182   0.00000  -0.00802  -0.00806   2.14486
   A43        2.05636  -0.00142   0.00000  -0.00579  -0.00583   2.05053
   A44        2.02006  -0.00970   0.00000  -0.03358  -0.03353   1.98654
   A45        2.11244   0.01828   0.00000   0.06686   0.06683   2.17928
   A46        2.15068  -0.00858   0.00000  -0.03328  -0.03331   2.11737
   A47        2.20186   0.00679   0.00000   0.02992   0.02990   2.23175
   A48        2.04856  -0.00137   0.00000  -0.00357  -0.00355   2.04501
   A49        2.03277  -0.00543   0.00000  -0.02636  -0.02635   2.00642
   A50        2.01643  -0.00473   0.00000  -0.01972  -0.01982   1.99661
   A51        2.17653  -0.00707   0.00000  -0.02533  -0.02529   2.15125
   A52        2.09016   0.01180   0.00000   0.04504   0.04508   2.13524
    D1       -0.62070  -0.00054   0.00000  -0.00859  -0.00850  -0.62920
    D2       -2.74678  -0.00179   0.00000  -0.03912  -0.03981  -2.78658
    D3        1.43409  -0.00263   0.00000  -0.03772  -0.03779   1.39630
    D4       -2.79930   0.00306   0.00000   0.03583   0.03623  -2.76307
    D5        1.35780   0.00181   0.00000   0.00530   0.00493   1.36273
    D6       -0.74451   0.00098   0.00000   0.00670   0.00694  -0.73757
    D7        1.41488   0.00131   0.00000  -0.00000   0.00036   1.41524
    D8       -0.71120   0.00005   0.00000  -0.03054  -0.03094  -0.74214
    D9       -2.81351  -0.00078   0.00000  -0.02914  -0.02893  -2.84244
   D10        0.43097   0.00036   0.00000   0.00217   0.00214   0.43311
   D11       -1.67034  -0.00100   0.00000  -0.00059  -0.00070  -1.67104
   D12        2.46049  -0.00022   0.00000   0.01391   0.01384   2.47433
   D13        2.59320  -0.00123   0.00000  -0.03158  -0.03118   2.56203
   D14        0.49189  -0.00259   0.00000  -0.03434  -0.03401   0.45787
   D15       -1.66046  -0.00181   0.00000  -0.01983  -0.01948  -1.67994
   D16       -1.57284   0.00479   0.00000   0.04069   0.04069  -1.53215
   D17        2.60903   0.00344   0.00000   0.03793   0.03786   2.64688
   D18        0.45668   0.00421   0.00000   0.05244   0.05239   0.50907
   D19        3.05993   0.00040   0.00000  -0.00401  -0.00426   3.05567
   D20       -1.27039  -0.00159   0.00000  -0.02417  -0.02503  -1.29543
   D21        0.92354   0.00028   0.00000  -0.00273  -0.00162   0.92192
   D22        0.62326  -0.00063   0.00000   0.00288   0.00281   0.62607
   D23       -1.39758  -0.00620   0.00000  -0.06628  -0.06630  -1.46388
   D24        2.74558  -0.00559   0.00000  -0.05485  -0.05498   2.69060
   D25        2.71256   0.00710   0.00000   0.07892   0.07875   2.79131
   D26        0.69172   0.00153   0.00000   0.00976   0.00964   0.70136
   D27       -1.44830   0.00213   0.00000   0.02119   0.02096  -1.42734
   D28       -1.42859   0.00349   0.00000   0.03796   0.03790  -1.39068
   D29        2.83376  -0.00208   0.00000  -0.03120  -0.03120   2.80256
   D30        0.69374  -0.00147   0.00000  -0.01977  -0.01989   0.67385
   D31        0.74156   0.00137   0.00000   0.02512   0.02548   0.76704
   D32       -1.23887  -0.00186   0.00000  -0.02467  -0.02496  -1.26383
   D33        2.87314   0.00102   0.00000   0.01630   0.01623   2.88937
   D34       -0.37022  -0.00019   0.00000  -0.00154  -0.00162  -0.37184
   D35        1.68659   0.00213   0.00000   0.04121   0.04155   1.72814
   D36       -2.52586  -0.00213   0.00000   0.01895   0.01774  -2.50812
   D37       -1.38798   0.00375   0.00000   0.09095   0.09076  -1.29722
   D38        1.69212   0.00402   0.00000   0.09667   0.09647   1.78859
   D39        0.69741   0.00007   0.00000   0.04394   0.04389   0.74130
   D40       -2.50568   0.00033   0.00000   0.04966   0.04961  -2.45607
   D41        2.74560   0.00172   0.00000   0.07529   0.07553   2.82113
   D42       -0.45749   0.00198   0.00000   0.08101   0.08125  -0.37624
   D43       -0.03878  -0.00039   0.00000  -0.00122  -0.00122  -0.04000
   D44        2.11688   0.00134   0.00000   0.00274   0.00272   2.11960
   D45       -2.12170   0.00125   0.00000   0.00583   0.00603  -2.11567
   D46        3.09988  -0.00003   0.00000  -0.00169  -0.00176   3.09813
   D47       -0.04271   0.00007   0.00000   0.00053   0.00041  -0.04230
   D48        0.02236  -0.00023   0.00000  -0.00762  -0.00768   0.01468
   D49       -3.12024  -0.00013   0.00000  -0.00540  -0.00552  -3.12575
   D50       -3.09942   0.00029   0.00000   0.00382   0.00372  -3.09570
   D51        0.05467   0.00027   0.00000   0.00553   0.00543   0.06010
   D52       -0.01990   0.00030   0.00000   0.00889   0.00886  -0.01104
   D53        3.13419   0.00028   0.00000   0.01060   0.01057  -3.13843
   D54        0.85567  -0.00038   0.00000   0.01574   0.01568   0.87134
   D55       -1.23395  -0.00189   0.00000  -0.00594  -0.00596  -1.23991
   D56        2.94487   0.00076   0.00000   0.03017   0.03036   2.97524
   D57       -1.23128   0.00189   0.00000   0.02439   0.02421  -1.20708
   D58        2.96228   0.00037   0.00000   0.00270   0.00257   2.96486
   D59        0.85792   0.00302   0.00000   0.03881   0.03890   0.89682
   D60        3.03175  -0.00039   0.00000   0.00150   0.00143   3.03319
   D61        0.94214  -0.00190   0.00000  -0.02018  -0.02020   0.92194
   D62       -1.16222   0.00075   0.00000   0.01593   0.01612  -1.14610
   D63        3.06651  -0.00030   0.00000  -0.00060  -0.00066   3.06585
   D64       -1.10376  -0.00470   0.00000  -0.02592  -0.02817  -1.13194
   D65        0.95253   0.00533   0.00000   0.03676   0.03906   0.99159
   D66       -0.00697   0.00011   0.00000   0.00092   0.00084  -0.00613
   D67        3.13890   0.00001   0.00000  -0.00075  -0.00079   3.13810
   D68        3.13566   0.00001   0.00000  -0.00133  -0.00146   3.13420
   D69       -0.00166  -0.00009   0.00000  -0.00300  -0.00309  -0.00475
   D70       -0.00884   0.00016   0.00000   0.00442   0.00439  -0.00445
   D71        3.13433   0.00008   0.00000   0.00262   0.00257   3.13690
   D72        3.12871   0.00025   0.00000   0.00599   0.00593   3.13464
   D73       -0.01131   0.00017   0.00000   0.00419   0.00411  -0.00720
   D74        0.01080  -0.00013   0.00000  -0.00295  -0.00291   0.00789
   D75       -3.13321  -0.00018   0.00000  -0.00398  -0.00396  -3.13716
   D76       -3.13240  -0.00001   0.00000  -0.00100  -0.00106  -3.13347
   D77        0.00677  -0.00006   0.00000  -0.00204  -0.00211   0.00466
   D78        0.00319  -0.00013   0.00000  -0.00361  -0.00359  -0.00040
   D79        3.13294  -0.00025   0.00000  -0.00574  -0.00581   3.12713
   D80       -3.13601  -0.00008   0.00000  -0.00261  -0.00259  -3.13860
   D81       -0.00625  -0.00020   0.00000  -0.00475  -0.00481  -0.01106
         Item               Value     Threshold  Converged?
 Maximum Force            0.019069     0.000450     NO 
 RMS     Force            0.005367     0.000300     NO 
 Maximum Displacement     0.389069     0.001800     NO 
 RMS     Displacement     0.078175     0.001200     NO 
 Predicted change in Energy=-1.039411D-02
 GradGradGradGradGradGradGradGradGradGradGradGradGradGradGradGradGradGrad

                          Input orientation:                          
 ---------------------------------------------------------------------
 Center     Atomic      Atomic             Coordinates (Angstroms)
 Number     Number       Type             X           Y           Z
 ---------------------------------------------------------------------
      1          6           0       -3.798941   -1.590618    0.542296
      2          6           0       -2.340228   -1.844635    0.901135
      3          6           0       -1.626815   -0.876048   -0.049158
      4          8           0       -1.925280   -3.181974    0.780669
      5          1           0       -2.165414   -1.547056    1.940114
      6          8           0       -2.472282    0.267487   -0.126862
      7          1           0       -1.490639   -1.319738   -1.041979
      8          7           0       -0.327643   -0.439542    0.414408
      9          6           0       -3.813424   -0.089502    0.256675
     10          1           0       -4.492846   -1.887866    1.339501
     11          8           0       -4.042467   -2.359343   -0.642202
     12          6           0       -4.235568    0.760144    1.432600
     13          1           0       -4.476911    0.140071   -0.589348
     14          8           0       -3.470949    0.358402    2.569389
     15          1           0       -5.315804    0.616429    1.606802
     16          1           0       -4.049180    1.816026    1.182880
     17          1           0       -4.975044   -2.291506   -0.863724
     18          1           0       -2.287475   -3.509446   -0.053868
     19          1           0       -3.688450    0.942475    3.300774
     20          6           0       -0.233041    0.477079    1.437802
     21          6           0        0.953197    0.878116    1.938162
     22          6           0        2.189772    0.326297    1.393149
     23          7           0        1.991914   -0.593536    0.380053
     24          6           0        0.791663   -1.021185   -0.155022
     25          1           0       -1.188298    0.846729    1.806581
     26          1           0        1.039244    1.601507    2.741584
     27          1           0        2.816586   -1.011699   -0.032248
     28          8           0        3.315148    0.624713    1.770599
     29          8           0        0.734684   -1.832782   -1.064161
 ---------------------------------------------------------------------
                    Distance matrix (angstroms):
                    1          2          3          4          5
     1  C    0.000000
     2  C    1.523526   0.000000
     3  C    2.361898   1.533029   0.000000
     4  O    2.469786   1.405408   2.468804   0.000000
     5  H    2.150396   1.094801   2.167382   2.018647   0.000000
     6  O    2.379149   2.352716   1.424262   3.608546   2.767512
     7  H    2.812750   2.184723   1.095946   2.641757   3.065921
     8  N    3.659404   2.502337   1.446817   3.194921   2.632825
     9  C    1.528116   2.380363   2.343811   3.661016   2.770265
    10  H    1.097906   2.197225   3.341600   2.929062   2.427721
    11  O    1.432927   2.354662   2.896074   2.680255   3.294161
    12  C    2.551347   3.264911   3.417357   4.615490   3.141064
    13  H    2.176131   3.275059   3.073655   4.407239   3.819371
    14  O    2.831142   2.985795   3.432417   4.257097   2.393988
    15  H    2.881857   3.925411   4.310259   5.158102   3.836238
    16  H    3.475369   4.049732   3.825314   5.445432   3.928396
    17  H    1.962487   3.202605   3.725276   3.577433   4.038531
    18  H    2.514327   1.920002   2.715010   0.966889   2.800328
    19  H    3.746728   3.917135   4.333522   5.144976   3.220062
    20  C    4.218168   3.180975   2.446346   4.084625   2.843150
    21  C    5.534068   4.397209   3.699053   5.109770   3.950594
    22  C    6.345328   5.047368   4.253494   5.442127   4.772448
    23  N    5.878307   4.539188   3.655028   4.712209   4.541626
    24  C    4.678050   3.406212   2.425141   3.595317   3.662026
    25  H    3.788738   3.064346   2.569830   4.222095   2.588976
    26  H    6.199562   5.165654   4.586326   5.959470   4.563511
    27  H    6.665616   5.306385   4.445503   5.277899   5.384899
    28  O    7.551601   6.231928   5.476020   6.552321   5.897616
    29  O    4.815921   3.649331   2.742671   3.507010   4.185436
                    6          7          8          9         10
     6  O    0.000000
     7  H    2.078543   0.000000
     8  N    2.322141   2.061157   0.000000
     9  C    1.439863   2.931776   3.506862   0.000000
    10  H    3.298249   3.873947   4.505814   2.206409   0.000000
[...]
 111,-0.00004627,-0.00002752,-0.00008968,-0.00958441,-0.01320282,-0.018
 66860,0.02208568,0.01890977,0.02708129,-0.13863075,0.01776562,0.040706
 79,0.80901761,0.00010747,-0.00004007,-0.00025153,0.00091055,-0.0001287
 2,0.00041345,0.00184508,0.00129821,-0.00253976,-0.00052639,0.00033695,
 0.00033080,-0.00014521,-0.00017736,0.00021165,-0.00164862,0.00089334,0
 .00033123,0.00118971,0.00006887,0.00000042,-0.00313911,0.01700488,0.01
 451011,0.00047786,0.00016080,-0.00051954,-0.00001539,-0.00003749,0.000
 05957,-0.00011743,0.00008938,0.00017008,-0.00019095,-0.00005767,-0.000
 32373,-0.00012739,-0.00001978,0.00002390,0.00034130,0.00015742,0.00031
 482,0.00002045,0.00000692,0.00008407,0.00000242,0.00001464,0.00001582,
 0.00001615,0.00002509,0.00000229,0.00031503,0.00008642,-0.00011855,-0.
 00010767,-0.00004253,-0.00002199,-0.00514984,-0.00838353,-0.01242614,0
 .01474740,-0.00005959,-0.01856670,-0.00253249,-0.10617311,-0.08197361,
 0.01796811,0.25619575,-0.00000352,-0.00036503,-0.00004397,0.00014244,-
 0.00009058,-0.00072788,0.00143315,-0.00393053,-0.00181432,-0.00056832,
 0.00035275,0.00064374,-0.00011433,-0.00010596,0.00028867,0.00003065,0.
 00140698,0.00095308,0.00206079,-0.00010954,-0.00012217,0.00804011,0.01
 366140,0.02930823,0.00059227,-0.00004149,-0.00010947,-0.00010562,0.000
 00569,0.00002475,-0.00012663,0.00013197,0.00027479,-0.00026963,-0.0000
 2289,-0.00048398,0.00004140,0.00001594,-0.00002501,0.00050820,0.000168
 68,0.00046904,0.00004802,-0.00000201,0.00009873,0.00000564,0.00000048,
 0.00002543,0.00002551,0.00002523,-0.00001695,0.00046810,0.00014838,-0.
 00022168,-0.00015047,-0.00003578,-0.00004234,-0.00637034,-0.01095939,-
 0.01607520,0.02058871,-0.01901910,-0.02225500,0.00897275,-0.08594155,-
 0.18728338,-0.08471819,0.30111471,0.54908490,-0.00046629,0.00083230,-0
 .00107373,0.00122282,-0.00124415,0.00061514,-0.04372600,0.00285525,0.0
 0782804,0.00052699,0.00137015,-0.00017374,-0.00028287,-0.00002926,0.00
 036952,0.00611951,-0.00392207,0.00007715,-0.00086372,0.00105051,0.0008
 0262,-0.21131557,0.00217735,0.02506738,-0.00305254,-0.00014152,0.00120
 068,0.00056096,0.00011894,0.00001772,0.00096206,0.00063120,0.00070180,
 0.00006411,0.00031598,0.00016783,0.00069403,0.00006127,0.00012899,0.00
 041185,-0.00025800,-0.00053731,0.00021825,-0.00000088,-0.00019208,-0.0
 0010254,-0.00004340,0.00001816,-0.00015819,-0.00023703,-0.00010276,-0.
 00014790,-0.00063909,-0.00015361,0.00000070,0.00001959,0.00020402,0.03
 220062,0.03674007,0.05157557,-0.03777534,-0.00427860,-0.00072472,0.027
 08163,-0.04599773,-0.07771602,-0.26630706,-0.02478657,-0.00887768,0.61
 797593,-0.00069711,-0.00083642,0.00210442,-0.00691552,0.00241666,-0.00
 291431,0.00115147,0.00605363,0.01724442,0.00223145,-0.00212006,-0.0012
 5463,0.00076686,0.00045760,-0.00083197,-0.00054877,-0.00211090,-0.0013
 9616,-0.00442194,-0.00096827,-0.00147736,0.01009425,-0.08518639,-0.042
 33432,0.00059837,-0.00034424,-0.00018104,-0.00065279,0.00002387,-0.000
 21107,-0.00015267,-0.00060636,-0.00089604,0.00024277,-0.00001109,0.000
 24097,-0.00031801,-0.00001652,-0.00000805,-0.00046630,-0.00012932,-0.0
 0015638,-0.00007991,-0.00000457,-0.00002274,0.00005726,-0.00000499,-0.
 00001673,0.00007426,0.00004899,0.00000116,-0.00105614,-0.00007394,0.00
 042185,0.00014131,0.00005495,-0.00004731,0.01750724,-0.00990567,-0.014
 14056,0.00099382,0.00147917,0.00182683,-0.01432021,-0.01801565,-0.0030
 3591,-0.05085530,-0.09280111,-0.04760751,0.05237017,0.43978553,-0.0001
 3047,-0.00035308,0.00267203,-0.00443155,0.00270938,-0.00327893,0.01676
 662,0.01584172,0.02567673,0.00150300,-0.00287233,-0.00174782,0.0009133
 6,0.00046957,-0.00119334,-0.01203490,-0.00057339,-0.00357560,-0.007545
 57,-0.00239761,-0.00142351,0.03728518,-0.04617070,-0.13580999,0.000891
 01,0.00086431,-0.00224587,-0.00067340,-0.00009741,-0.00027766,-0.00041
 007,-0.00091156,-0.00154690,0.00020519,-0.00025050,0.00037300,-0.00130
 995,-0.00012270,0.00012743,-0.00079408,-0.00001445,-0.00015807,-0.0002
 1546,0.00003909,0.00008416,0.00009387,0.00004400,-0.00002858,0.0001225
 0,0.00016962,0.00011021,-0.00135180,0.00011040,0.00091542,0.00019896,0
 .00003138,-0.00008545,0.02192008,-0.01606443,-0.03094808,0.00596470,0.
 00251521,0.00332300,-0.02785776,0.00158460,-0.00837495,-0.04849003,-0.
 05235188,-0.13201584,0.02062391,0.35978448,0.78329523,-0.00004893,-0.0
 0041649,-0.00024748,-0.00029946,-0.00056885,-0.00047959,0.00043312,-0.
 00075538,-0.00051778,-0.00019415,0.00023916,0.00003637,0.00026616,-0.0
 0064572,-0.00024014,-0.00120965,-0.00029459,-0.00041423,0.00005647,0.0
 0015897,0.00001604,0.00727997,-0.00082703,-0.00204425,0.00002873,-0.00
 033198,-0.00041580,-0.00007678,-0.00006431,0.00001301,-0.00010747,0.00
 027739,0.00015071,-0.00110886,0.00041720,-0.00207541,-0.00001609,0.000
 08241,0.00012643,-0.00048033,-0.00010059,0.00077936,0.00036276,0.00001
 294,0.00037506,0.00000743,-0.00010420,0.00020685,-0.00003331,-0.000062
 00,-0.00004550,0.00006477,-0.00002539,-0.00001993,0.00035534,0.0002131
 7,0.00053990,-0.28189266,0.05731426,0.11315863,-0.01329457,0.00601074,
 0.01130013,-0.00225635,-0.00240626,-0.00226215,0.00023885,-0.00025024,
 -0.00051870,0.00056696,-0.00073325,-0.00084681,0.29115686,-0.00033358,
 0.00010982,0.00012143,-0.00036221,-0.00076189,-0.00128881,0.00114826,-
 0.00087446,0.00032129,0.00015848,0.00036806,0.00043516,-0.00086782,-0.
 00137007,0.00032984,0.00008278,0.00012693,0.00050584,0.00014136,-0.000
 19858,0.00009961,0.01789292,-0.00246185,-0.01155560,-0.00030292,0.0001
 1735,-0.00013034,0.00000108,0.00002804,-0.00002893,0.00027350,-0.00001
 685,0.00018117,0.00030761,0.00011901,0.00018040,0.00002254,-0.00004915
 ,0.00001646,-0.00051207,-0.00096717,-0.00019261,-0.00002605,-0.0000666
 6,-0.00000566,0.00012001,-0.00009941,0.00008278,-0.00000742,0.00002626
 ,0.00002822,-0.00004470,0.00007511,-0.00001667,0.00066235,0.00005303,-
 0.00021466,0.05314173,-0.06296673,-0.03422860,-0.00961955,0.00981209,0
 .00330241,-0.00231588,0.00734769,-0.00700144,0.00025446,-0.00026845,0.
 00074180,-0.00344781,0.00124373,-0.00260461,-0.05726762,0.05695445,-0.
 00007232,-0.00012501,-0.00004506,-0.00033771,-0.00050995,0.00004077,0.
 00235821,-0.00030910,-0.00105584,0.00001576,0.00040433,0.00008831,-0.0
 0002625,0.00004880,0.00059297,0.00011287,0.00080049,0.00055547,0.00007
 157,0.00012433,0.00006476,0.02630032,-0.00899408,-0.01376013,-0.001389
 00,-0.00002948,0.00013463,0.00005571,0.00009128,-0.00002721,0.00007061
 ,0.00009327,0.00003559,-0.00040569,-0.00017334,0.00088500,0.00021207,-
 0.00001953,0.00001343,0.00021800,-0.00016345,-0.00186469,-0.00007743,0
 .00004918,-0.00028123,-0.00014525,0.00013592,-0.00011190,-0.00001604,-
 0.00002502,-0.00000020,-0.00000988,-0.00000699,-0.00002366,0.00063340,
 -0.00003734,0.00001028,0.10494225,-0.03385809,-0.10506435,-0.01114684,
 0.00091964,0.01133923,-0.00094294,-0.00719829,0.00182762,0.00036509,0.
 00094093,0.00059545,-0.00507827,-0.00347233,-0.00052869,-0.11596670,0.
 04720273,0.10978041,-0.00001533,-0.00004537,0.00001976,0.00004848,0.00
 013302,-0.00013674,0.00104455,-0.00090125,-0.00094664,-0.00001774,-0.0
 0005236,0.00004010,0.00000628,-0.00003770,0.00002389,-0.00021964,0.000
 24817,0.00015729,-0.00047267,-0.00013075,-0.00014399,-0.00475176,-0.00
 206484,-0.00107711,0.00016524,-0.00000502,-0.00009711,-0.00003070,-0.0
 0001023,-0.00000304,-0.00003045,0.00000257,0.00001382,-0.00007850,-0.0
 0000172,-0.00015382,-0.00003326,0.00000456,0.00000705,0.00016489,0.000
 08190,0.00019216,0.00001677,0.00000503,0.00003322,-0.00000056,-0.00000
 426,0.00000369,0.00000220,0.00000371,0.00000442,0.00000971,0.00003212,
 -0.00000572,-0.00011544,-0.00003070,-0.00001880,0.00292555,-0.01530782
 ,-0.02356941,-0.05377766,-0.00921892,-0.01011515,0.00800444,0.01525311
 ,0.02174383,-0.00509569,0.00136639,0.00327607,-0.00275156,-0.00024029,
 0.00006230,0.00083516,0.00054908,-0.00008066,0.05169595,0.00003805,0.0
 0000970,-0.00003515,0.00008125,0.00010966,0.00029898,0.00001798,0.0009
 4342,-0.00103956,0.00000104,-0.00003492,-0.00001212,-0.00006227,-0.000
 06318,-0.00005939,0.00000202,-0.00005923,0.00006591,-0.00015558,-0.000
 13890,-0.00000115,-0.00173521,0.00673159,-0.00261552,-0.00004643,-0.00
 000353,-0.00003518,-0.00000188,0.00000107,0.00000212,-0.00001413,-0.00
 000588,0.00001366,-0.00001761,0.00002069,-0.00005361,-0.00000320,-0.00
 000046,0.00000573,0.00004482,-0.00001744,0.00006141,0.00001002,-0.0000
 0359,0.00000448,0.00000360,-0.00000786,0.00001190,-0.00000024,0.000004
 33,-0.00000568,0.00001255,0.00000067,-0.00001841,-0.00001869,0.0000383
 7,-0.00003238,0.00214495,-0.00445549,-0.00518151,-0.00944154,-0.130370
 60,-0.15411064,-0.00377867,-0.00192041,-0.00395630,0.00110246,0.001764
 63,-0.00139410,0.00052033,0.00014086,0.00020076,0.00017919,-0.00364735
 ,0.00288510,0.01103042,0.13199117,-0.00002941,-0.00001525,0.00001988,-
 0.00002608,-0.00004718,-0.00026290,0.00052227,-0.00092382,0.00026471,-
 0.00001382,0.00002113,0.00004329,0.00004827,0.00005209,0.00003409,-0.0
 0007454,0.00015286,0.00006520,-0.00014235,0.00006209,0.00001430,-0.001
 42059,-0.00288710,0.00458462,0.00008177,0.00000014,-0.00002603,-0.0000
 0834,-0.00000114,0.00000299,0.00000424,0.00001023,0.00000730,-0.000016
 43,-0.00004061,-0.00000402,-0.00001022,-0.00000024,-0.00000014,0.00004
 430,0.00004628,-0.00000453,0.00000025,0.00001168,0.00000464,-0.0000105
 8,0.00000821,-0.00000770,0.00000059,-0.00000230,0.00000633,0.00000073,
 0.00000889,0.00000467,-0.00002845,-0.00003310,0.00002829,0.00263765,-0
 .00248831,-0.00530544,-0.01066088,-0.15391412,-0.25587524,-0.00622466,
 -0.00670662,-0.00813309,0.00273527,-0.00148638,-0.00008784,0.00128248,
 0.00028344,0.00024431,-0.00024382,0.00280118,-0.00131857,0.01229321,0.
 16333544,0.26510387,-0.00006325,-0.00000550,0.00003204,-0.00016253,0.0
 0000340,-0.00018603,0.00003213,0.00044489,0.00100744,0.00009915,-0.000
 00404,-0.00002160,0.00001415,0.00000704,0.00000709,-0.00000171,-0.0001
 0253,0.00000093,-0.00015009,0.00000020,-0.00001138,-0.00289515,-0.0029
 4818,-0.00381324,-0.00012863,-0.00000250,-0.00002674,-0.00000618,0.000
 00480,-0.00000836,0.00004812,0.00002104,0.00001545,-0.00003017,0.00000
 517,-0.00003657,-0.00000322,-0.00000065,0.00001613,0.00007378,0.000003
 21,0.00000808,0.00002035,0.00000517,0.00000146,-0.00000666,0.00000016,
 0.00000464,-0.00000793,-0.00001248,-0.00000515,-0.00005637,-0.00003030
 ,0.00001519,-0.00002029,-0.00000314,0.00001300,0.00033909,-0.00029856,
 -0.00068938,0.00083789,-0.00143688,-0.00166996,0.01244340,0.00113326,-
 0.00002299,-0.32412889,0.07270636,0.16166969,-0.02279230,0.00969983,0.
 01903597,-0.00007289,0.00006455,0.00002921,0.00047839,-0.00020303,-0.0
 0032787,0.33466001,0.00000709,0.00004394,0.00003485,0.00007311,0.00020
 865,-0.00003137,0.00013125,0.00104749,0.00017308,0.00006447,-0.0001850
 7,-0.00000257,-0.00002373,-0.00000842,0.00000203,-0.00065199,-0.000038
 11,0.00001710,-0.00005122,0.00000734,-0.00001074,-0.00334879,0.0018960
 6,-0.00312131,0.00009076,0.00007142,-0.00013305,-0.00000933,-0.0000100
 9,-0.00000174,-0.00000704,-0.00006163,-0.00001731,-0.00002572,0.000004
 12,-0.00003578,-0.00005477,-0.00000894,0.00000888,0.00000429,-0.000008
 34,0.00004412,-0.00000812,0.00000216,0.00001527,0.00000683,-0.00000955
 ,0.00000017,0.00000606,0.00001866,0.00000128,-0.00002946,0.00003925,0.
 00000528,0.00000038,0.00000576,-0.00001244,-0.00029015,-0.00091559,-0.
 00003479,-0.00191673,0.00093290,-0.00451977,0.01926902,-0.00196497,-0.
 00786983,0.07541009,-0.05687046,-0.07367551,-0.00931131,0.00544039,0.0
 1141519,0.00002437,-0.00024801,0.00020771,0.00076133,0.00014169,-0.000
 40815,-0.08011148,0.05557200,-0.00002642,-0.00003632,0.00011474,-0.000
 26267,0.00008343,-0.00019484,-0.00011394,-0.00024794,0.00102421,-0.000
 04694,-0.00008593,-0.00001182,0.00002115,0.00000305,-0.00002272,-0.000
 20906,0.00002656,-0.00000941,-0.00003947,0.00002631,0.00003564,-0.0038
 3194,-0.00281285,0.00021627,0.00008480,-0.00000718,-0.00002039,-0.0000
 4982,-0.00000269,-0.00000986,-0.00005842,-0.00002790,-0.00007305,-0.00
 000299,-0.00002134,0.00000106,-0.00003553,0.00000393,-0.00000469,-0.00
 002233,0.00002269,0.00001226,-0.00000904,0.00000309,0.00000940,0.00000
 479,0.00000732,0.00000063,0.00000983,0.00000680,0.00001371,0.00001258,
 0.00002498,0.00002477,-0.00000295,-0.00000606,-0.00000627,-0.00082430,
 -0.00014713,-0.00096079,-0.00243171,-0.00458805,-0.00276043,0.02821491
 ,-0.00469350,-0.01052429,0.16633145,-0.07358605,-0.15898544,-0.0112459
 7,0.00844551,0.01430696,0.00001800,0.00017638,-0.00008804,0.00118026,-
 0.00025862,-0.00022126,-0.17521054,0.07322447,0.15900743,0.00028417,-0
 .00008794,0.00083239,-0.00045298,0.00195058,-0.00042903,0.00552197,-0.
 00003678,0.00220579,-0.00023730,-0.00131511,-0.00002931,0.00009932,0.0
 0002634,-0.00023380,-0.00323621,0.00072126,-0.00033495,-0.00017484,-0.
 00020474,-0.00010057,-0.00229632,-0.00703477,-0.01008344,0.00179022,0.
 00024302,-0.00055397,-0.00033653,-0.00005407,-0.00005428,-0.00061335,-
 0.00048205,-0.00053685,0.00019724,-0.00021388,0.00030064,-0.00040756,-
 0.00001964,-0.00009283,-0.00092681,0.00007228,0.00019656,-0.00023887,0
 .00000759,0.00004794,0.00009859,0.00003620,-0.00004770,0.00014302,0.00
 016170,0.00007955,0.00026785,0.00035380,0.00004029,0.00010333,-0.00000
 684,-0.00021644,0.00433027,0.01079270,0.01666083,-0.07140895,-0.014041
 01,-0.00783834,-0.61278455,-0.13599777,-0.13275429,-0.02232659,-0.0330
 5635,-0.04526185,0.00517243,0.00282618,0.00438644,-0.00077726,-0.00069
 563,-0.00121619,0.00125691,0.00039249,-0.00007359,-0.00278284,-0.00154
 943,-0.00265247,0.70189406,0.00001217,-0.00009511,0.00016109,-0.000082
 82,0.00021231,-0.00027167,0.00113144,-0.00024660,0.00094306,-0.0002146
 6,-0.00009268,0.00009945,-0.00001212,-0.00005792,0.00000198,-0.0009438
 4,0.00052032,0.00015820,0.00027425,-0.00003829,-0.00001562,-0.00449345
 ,0.00103554,0.00242777,0.00035656,0.00002577,-0.00023837,-0.00009291,-
 0.00001216,-0.00000657,-0.00014425,-0.00001985,-0.00005542,-0.00006582
 ,-0.00006971,-0.00009769,-0.00010443,0.00000118,-0.00000767,0.00005966
 ,0.00011348,0.00012527,-0.00001341,0.00000428,0.00004202,0.00000918,0.
 00001975,0.00000002,0.00002795,0.00002413,0.00001593,0.00014204,0.0000
 7549,-0.00001828,-0.00003395,-0.00003183,-0.00003036,0.00226027,0.0006
 9816,-0.00465798,-0.00114293,0.02252547,0.00005224,-0.13805694,-0.1199
 2529,-0.04868319,-0.04768106,-0.00571418,-0.03158209,0.01325085,0.0059
 1246,-0.00415982,0.00041694,-0.00169146,0.00160767,-0.00151803,-0.0008
 3810,0.00192932,0.00028742,-0.00154141,0.00405826,0.18030621,0.1026185
 2,-0.00005183,-0.00011377,0.00011244,-0.00010492,0.00023304,-0.0005015
 5,0.00086181,0.00011085,0.00088529,-0.00018969,-0.00011798,0.00022463,
 -0.00003745,-0.00006371,0.00008379,-0.00107748,0.00042875,0.00025096,0
 .00040633,0.00003038,0.00001001,-0.00681167,0.00254576,0.00519203,0.00
 039249,0.00005846,-0.00028032,-0.00010085,-0.00001744,0.00000042,-0.00
 009686,-0.00002755,0.00003228,-0.00014099,-0.00003082,-0.00025917,-0.0
 0010036,0.00000052,0.00000538,0.00021903,0.00006351,0.00028013,0.00000
 275,0.00000386,0.00006967,0.00002298,0.00000235,0.00001110,0.00002771,
 0.00003254,-0.00000068,0.00013549,0.00008810,-0.00003892,-0.00005623,-
 0.00001311,-0.00004783,0.00346233,-0.00576733,-0.00577756,0.01146195,0
 .00196223,0.02382876,-0.13606777,-0.04910745,-0.13167689,-0.06792256,-
 0.03376848,-0.02327956,0.02083114,-0.00269938,0.00006690,0.00049511,0.
 00170626,-0.00023442,-0.00267772,0.00171421,0.00088763,0.00021591,0.00
 441104,0.00253255,0.18279357,0.08041799,0.13194529,0.00036538,0.000096
 13,-0.00012768,0.00131488,0.00186418,0.00091959,-0.00294449,-0.0023718
 3,-0.00085405,-0.00038816,-0.00090754,0.00039891,-0.00039251,-0.000448
 11,0.00047449,-0.00213126,0.00282570,0.00145107,-0.00141496,0.00271453
 ,0.00410413,0.00668782,0.02805349,0.04754920,0.00153783,0.00018648,-0.
 00020532,-0.00010780,-0.00007500,0.00003059,-0.00041664,-0.00025148,-0
 .00012487,-0.00019340,-0.00013377,-0.00013776,-0.00017403,-0.00000874,
 -0.00007201,-0.00006175,0.00013639,0.00031322,-0.00009234,0.00002542,0
 .00012651,0.00004108,0.00000200,-0.00001398,0.00006361,0.00008954,0.00
 008029,0.00032359,0.00041590,-0.00010482,-0.00003528,-0.00001807,-0.00
 009427,-0.01066199,-0.00701148,-0.00862665,0.00830595,0.00033397,-0.00
 091315,-0.00749625,0.01027194,0.01785000,-0.00261446,-0.04022064,-0.06
 081822,-0.10403697,-0.01729702,-0.02388125,0.00021618,0.00098254,0.001
 52609,0.00073644,-0.00010269,-0.00033943,0.00426264,0.00154020,0.00119
 873,-0.00215841,-0.00393432,-0.00589221,0.11146532,-0.00005453,0.00020
 190,-0.00094868,0.00197826,-0.00241864,0.00016758,-0.00683302,-0.00376
 115,-0.00473832,-0.00166491,0.00147869,0.00127171,-0.00023848,-0.00007
 712,0.00042838,0.00159787,0.00102236,0.00128460,0.00227309,-0.00008165
 ,0.00089568,0.02043215,-0.00026586,-0.03524465,-0.00052368,-0.00005634
 ,0.00045752,0.00020819,0.00001694,0.00009960,0.00009034,0.00048820,0.0
 0055040,-0.00024626,0.00000385,-0.00033419,0.00027499,0.00006688,-0.00
 000352,0.00055993,0.00014735,0.00021296,0.00009768,0.00000499,0.000040
 95,-0.00003491,0.00001917,0.00003500,-0.00003697,-0.00005977,-0.000000
 92,0.00103771,0.00001938,-0.00038868,-0.00014146,-0.00004421,0.0000386
 4,0.00126971,0.00422204,-0.00132636,0.00108174,-0.00186738,-0.00144955
 ,-0.00081900,0.01045010,0.00426810,-0.02285755,-0.00732926,-0.04289094
 ,-0.01797653,-0.24992232,-0.26683524,-0.00049285,-0.00069346,-0.000589
 38,0.00009783,-0.00033092,0.00023134,0.00077277,-0.00356122,0.00040877
 ,-0.00309436,-0.00341228,-0.00208282,0.02324229,0.25573973,-0.00013258
 ,0.00021152,-0.00146506,0.00218454,-0.00148019,0.00157528,-0.01174458,
 -0.00419405,-0.00798375,-0.00062896,0.00154958,0.00082692,-0.00058287,
 -0.00037358,0.00070030,0.00357641,0.00001149,0.00161562,0.00405959,0.0
 0104619,-0.00025524,0.03433825,-0.03489212,-0.04585473,-0.00073230,-0.
 00018838,0.00062327,0.00031126,0.00002254,0.00016772,0.00030995,0.0005
 2087,0.00102074,-0.00036396,0.00011857,-0.00063228,0.00052045,0.000041
 80,-0.00000473,0.00096253,0.00010549,0.00039801,0.00017532,-0.00000330
 ,0.00005000,-0.00005009,-0.00002875,0.00004086,-0.00004771,-0.00007134
 ,-0.00009939,0.00055471,-0.00010062,-0.00052321,-0.00020760,-0.0000398
 0,0.00005944,0.00487916,0.00037097,0.00395049,0.00042201,-0.00135766,-
 0.00312623,0.00094326,0.00318466,0.01227528,-0.03331440,-0.04058952,-0
 .03817677,-0.02563627,-0.26764928,-0.50795611,-0.00087727,-0.00096502,
 -0.00155993,-0.00002516,0.00020961,-0.00006936,-0.00004240,0.00031387,
 -0.00340632,-0.00503412,-0.00221554,-0.00432236,0.02618284,0.34644203,
 0.59213155\\-0.00000148,-0.00000071,-0.00001087,0.00000385,-0.00002432
 ,0.00001500,-0.00001149,0.00002862,-0.00000858,0.00000568,0.00000646,-
 0.00000153,-0.00001222,0.00000630,-0.00000057,0.00000411,-0.00001752,0
 .00000052,0.00000153,-0.00000634,-0.00000230,0.00001135,0.00000468,-0.
 00000758,0.00001098,0.00000701,-0.00001803,0.00000013,-0.00000338,0.00
 000104,0.00001150,-0.00000641,0.00001870,0.00000360,-0.00000609,0.0000
 2755,0.00000121,0.00000368,0.00000111,-0.00000465,0.00000322,-0.000016
 66,-0.00000080,0.00000260,-0.00000268,-0.00000014,0.00000017,-0.000002
 13,-0.00000652,0.00000774,-0.00000236,-0.00000975,-0.00000591,-0.00000
 858,-0.00000374,0.00000297,0.00000523,0.00000856,-0.00001202,-0.000007
 74,-0.00001383,0.00000670,0.00001759,0.00001838,-0.00001672,-0.0000230
 3,0.00001205,-0.00001317,0.00001195,-0.00001258,0.00000783,0.00002053,
 0.00000203,0.00001309,0.00000276,-0.00000345,-0.00000400,-0.00000092,-
 0.00000340,0.00000549,0.00000100,-0.00000878,0.00000898,0.00000299,-0.
 00000210,0.00000107,-0.00001241\\\@
 The archive entry for this job was punched.


 EVERYTHING'S GOT A MORAL, IF ONLY YOU CAN FIND IT.

                                    -- LEWIS CARROL, ALICE IN WONDERLAND
 Job cpu time:       0 days 10 hours 33 minutes 11.8 seconds.
 Elapsed time:       0 days  0 hours 15 minutes 57.9 seconds.
 File lengths (MBytes):  RWF=    632 Int=      0 D2E=      0 Chk=     21 Scr=      1
 Normal termination of Gaussian 16 at Thu Oct 17 11:46:29 2024.
