 Entering Gaussian System, Link 0=g16
 Input=UridineMSsrraPBE0aVDZ.gjf
 Output=UridineMSsrraPBE0aVDZ.log
 Initial command:
 /sw/contrib/chem-src/g16/c01/g16/l1.exe "/scr/Gau-26411.inp" -scrdir="/scr/"
 Entering Link 1 = /sw/contrib/chem-src/g16/c01/g16/l1.exe PID=     26412.
  
 Copyright (c) 1988-2019, Gaussian, Inc.  All Rights Reserved.
  
 This is part of the Gaussian(R) 16 program.  It is based on
 the Gaussian(R) 09 system (copyright 2009, Gaussian, Inc.),
 the Gaussian(R) 03 system (copyright 2003, Gaussian, Inc.),
 the Gaussian(R) 98 system (copyright 1998, Gaussian, Inc.),
 the Gaussian(R) 94 system (copyright 1995, Gaussian, Inc.),
 the Gaussian 92(TM) system (copyright 1992, Gaussian, Inc.),
 the Gaussian 90(TM) system (copyright 1990, Gaussian, Inc.),
 the Gaussian 88(TM) system (copyright 1988, Gaussian, Inc.),
 the Gaussian 86(TM) system (copyright 1986, Carnegie Mellon
 University), and the Gaussian 82(TM) system (copyright 1983,
 Carnegie Mellon University). Gaussian is a federally registered
 trademark of Gaussian, Inc.
  
 This software contains proprietary and confidential information,
 including trade secrets, belonging to Gaussian, Inc.
  
 This software is provided under written license and may be
 used, copied, transmitted, or stored only in accord with that
 written license.
  
 The following legend is applicable only to US Government
 contracts under FAR:
  
                    RESTRICTED RIGHTS LEGEND
  
 Use, reproduction and disclosure by the US Government is
 subject to restrictions as set forth in subparagraphs (a)
 and (c) of the Commercial Computer Software - Restricted
 Rights clause in FAR 52.227-19.
  
 Gaussian, Inc.
 340 Quinnipiac St., Bldg. 40, Wallingford CT 06492
  
  
 ---------------------------------------------------------------
 Warning -- This program may not be used in any manner that
 competes with the business of Gaussian, Inc. or will provide
 assistance to any competitor of Gaussian, Inc.  The licensee
 of this program is prohibited from giving any competitor of
 Gaussian, Inc. access to this program.  By using this program,
 the user acknowledges that Gaussian, Inc. is engaged in the
 business of creating and licensing software in the field of
 computational chemistry and represents and warrants to the
 licensee that it is not a competitor of Gaussian, Inc. and that
 it will not use this program in any manner prohibited above.
 ---------------------------------------------------------------
  

 Cite this work as:
 Gaussian 16, Revision C.01,
 M. J. Frisch, G. W. Trucks, H. B. Schlegel, G. E. Scuseria, 
 M. A. Robb, J. R. Cheeseman, G. Scalmani, V. Barone, 
 G. A. Petersson, H. Nakatsuji, X. Li, M. Caricato, A. V. Marenich, 
 J. Bloino, B. G. Janesko, R. Gomperts, B. Mennucci, H. P. Hratchian, 
 J. V. Ortiz, A. F. Izmaylov, J. L. Sonnenberg, D. Williams-Young, 
 F. Ding, F. Lipparini, F. Egidi, J. Goings, B. Peng, A. Petrone, 
 T. Henderson, D. Ranasinghe, V. G. Zakrzewski, J. Gao, N. Rega, 
 G. Zheng, W. Liang, M. Hada, M. Ehara, K. Toyota, R. Fukuda, 
 J. Hasegawa, M. Ishida, T. Nakajima, Y. Honda, O. Kitao, H. Nakai, 
 T. Vreven, K. Throssell, J. A. Montgomery, Jr., J. E. Peralta, 
 F. Ogliaro, M. J. Bearpark, J. J. Heyd, E. N. Brothers, K. N. Kudin, 
 V. N. Staroverov, T. A. Keith, R. Kobayashi, J. Normand, 
 K. Raghavachari, A. P. Rendell, J. C. Burant, S. S. Iyengar, 
 J. Tomasi, M. Cossi, J. M. Millam, M. Klene, C. Adamo, R. Cammi, 
 J. W. Ochterski, R. L. Martin, K. Morokuma, O. Farkas, 
 J. B. Foresman, and D. J. Fox, Gaussian, Inc., Wallingford CT, 2019.
 
 ******************************************
 Gaussian 16:  EM64L-G16RevC.01  3-Jul-2019
                21-Oct-2024 
 ******************************************
 %nprocshared=40
 Will use up to   40 processors via shared memory.
 %mem=50gb
 ------------------------------------------------------
 # PBE1PBE/aug-cc-pVDZ opt freq EmpiricalDispersion=GD3
 ------------------------------------------------------
 1/18=20,19=15,26=3,38=1/1,3;
 2/9=110,12=2,17=6,18=5,40=1/2;
 3/5=16,7=10,11=2,25=1,30=1,71=1,74=-13,124=31/1,2,3;
 4//1;
 5/5=2,38=5/2;
 6/7=2,8=2,9=2,10=2,28=1/1;
 7//1,2,3,16;
 1/18=20,19=15,26=3/3(2);
 2/9=110/2;
 99//99;
 2/9=110/2;
 3/5=16,7=10,11=2,25=1,30=1,71=1,74=-13,124=31/1,2,3;
 4/5=5,16=3,69=1/1;
 5/5=2,38=5/2;
 7//1,2,3,16;
 1/18=20,19=15,26=3/3(-5);
 2/9=110/2;
 6/7=2,8=2,9=2,10=2,19=2,28=1/1;
 99/9=1/99;
 ----
 blah
 ----
 Symbolic Z-matrix:
 Charge = -1 Multiplicity = 1
 C                    -2.74081  -0.40253   0.35196 
 C                    -1.33717  -0.60052   0.92151 
 C                    -0.49511  -0.62097  -0.36362 
 O                    -1.17429  -1.72063   1.73535 
 H                    -1.07322   0.28117   1.5173 
 O                    -1.11937   0.29945  -1.24067 
 H                    -0.46508  -1.63171  -0.78954 
 N                     0.88317  -0.22223  -0.17836 
 C                    -2.48039   0.50746  -0.85546 
 H                    -3.42532   0.05175   1.08222 
 O                    -3.18308  -1.6945   -0.03815 
 C                    -2.72065   1.98098  -0.60194 
 H                    -3.12804   0.19856  -1.69213 
 O                    -2.00751   2.37331   0.56182 
 H                    -3.8055    2.14366  -0.47673 
 H                    -2.37999   2.54425  -1.48526 
 H                    -4.1098   -1.65884  -0.28772 
 H                    -1.6367   -2.45476   1.31122 
 H                    -2.13463   3.31487   0.70366 
 C                     1.16931   1.05472   0.23937 
 C                     2.42839   1.50285   0.4266 
 C                     3.5505    0.61792   0.17702 
 N                     3.16241  -0.6537   -0.2615 
 C                     1.8914   -1.13856  -0.4739 
 H                     0.2934    1.68587   0.38891 
 H                     2.63034   2.51786   0.75443 
 O                     4.73183   0.88833   0.30902 
 O                     1.67914  -2.26612  -0.87933 
 

 GradGradGradGradGradGradGradGradGradGradGradGradGradGradGradGradGradGrad
 Berny optimization.
 Initialization pass.
                           ----------------------------
                           !    Initial Parameters    !
                           ! (Angstroms and Degrees)  !
 --------------------------                            --------------------------
 ! Name  Definition              Value          Derivative Info.                !
 --------------------------------------------------------------------------------
 ! R1    R(1,2)                  1.5277         estimate D2E/DX2                !
 ! R2    R(1,9)                  1.5342         estimate D2E/DX2                !
 ! R3    R(1,10)                 1.0992         estimate D2E/DX2                !
 ! R4    R(1,11)                 1.4202         estimate D2E/DX2                !
 ! R5    R(2,3)                  1.5366         estimate D2E/DX2                !
 ! R6    R(2,4)                  1.3941         estimate D2E/DX2                !
 ! R7    R(2,5)                  1.0964         estimate D2E/DX2                !
 ! R8    R(3,6)                  1.4164         estimate D2E/DX2                !
 ! R9    R(3,7)                  1.0972         estimate D2E/DX2                !
 ! R10   R(3,8)                  1.4467         estimate D2E/DX2                !
 ! R11   R(4,18)                 0.9657         estimate D2E/DX2                !
 ! R12   R(6,9)                  1.4297         estimate D2E/DX2                !
 ! R13   R(8,20)                 1.3737         estimate D2E/DX2                !
 ! R14   R(8,24)                 1.3941         estimate D2E/DX2                !
 ! R15   R(9,12)                 1.5143         estimate D2E/DX2                !
 ! R16   R(9,13)                 1.1022         estimate D2E/DX2                !
 ! R17   R(11,17)                0.9604         estimate D2E/DX2                !
 ! R18   R(12,14)                1.4201         estimate D2E/DX2                !
 ! R19   R(12,15)                1.1041         estimate D2E/DX2                !
 ! R20   R(12,16)                1.1016         estimate D2E/DX2                !
 ! R21   R(14,19)                0.9606         estimate D2E/DX2                !
 ! R22   R(20,21)                1.3495         estimate D2E/DX2                !
 ! R23   R(20,25)                1.0899         estimate D2E/DX2                !
 ! R24   R(21,22)                1.4507         estimate D2E/DX2                !
 ! R25   R(21,26)                1.0856         estimate D2E/DX2                !
 ! R26   R(22,23)                1.4            estimate D2E/DX2                !
 ! R27   R(22,27)                1.219          estimate D2E/DX2                !
 ! R28   R(23,24)                1.3768         estimate D2E/DX2                !
 ! R29   R(24,28)                1.2169         estimate D2E/DX2                !
 ! A1    A(2,1,9)              102.3757         estimate D2E/DX2                !
 ! A2    A(2,1,10)             112.213          estimate D2E/DX2                !
 ! A3    A(2,1,11)             105.7019         estimate D2E/DX2                !
 ! A4    A(9,1,10)             112.5468         estimate D2E/DX2                !
 ! A5    A(9,1,11)             112.1023         estimate D2E/DX2                !
 ! A6    A(10,1,11)            111.379          estimate D2E/DX2                !
 ! A7    A(1,2,3)              101.153          estimate D2E/DX2                !
 ! A8    A(1,2,4)              115.4119         estimate D2E/DX2                !
 ! A9    A(1,2,5)              108.6372         estimate D2E/DX2                !
 ! A10   A(3,2,4)              114.4265         estimate D2E/DX2                !
 ! A11   A(3,2,5)              109.4674         estimate D2E/DX2                !
 ! A12   A(4,2,5)              107.5046         estimate D2E/DX2                !
 ! A13   A(2,3,6)              105.5279         estimate D2E/DX2                !
 ! A14   A(2,3,7)              110.6047         estimate D2E/DX2                !
 ! A15   A(2,3,8)              114.2879         estimate D2E/DX2                !
 ! A16   A(6,3,7)              111.7349         estimate D2E/DX2                !
 ! A17   A(6,3,8)              108.6681         estimate D2E/DX2                !
 ! A18   A(7,3,8)              106.1132         estimate D2E/DX2                !
 ! A19   A(2,4,18)             107.3649         estimate D2E/DX2                !
 ! A20   A(3,6,9)              110.3217         estimate D2E/DX2                !
 ! A21   A(3,8,20)             119.5782         estimate D2E/DX2                !
 ! A22   A(3,8,24)             118.7305         estimate D2E/DX2                !
 ! A23   A(20,8,24)            121.6564         estimate D2E/DX2                !
 ! A24   A(1,9,6)              106.6987         estimate D2E/DX2                !
 ! A25   A(1,9,12)             114.7372         estimate D2E/DX2                !
 ! A26   A(1,9,13)             109.3553         estimate D2E/DX2                !
 ! A27   A(6,9,12)             109.7376         estimate D2E/DX2                !
 ! A28   A(6,9,13)             108.3045         estimate D2E/DX2                !
 ! A29   A(12,9,13)            107.8518         estimate D2E/DX2                !
 ! A30   A(1,11,17)            109.7606         estimate D2E/DX2                !
 ! A31   A(9,12,14)            109.0459         estimate D2E/DX2                !
 ! A32   A(9,12,15)            108.5569         estimate D2E/DX2                !
 ! A33   A(9,12,16)            108.3142         estimate D2E/DX2                !
 ! A34   A(14,12,15)           111.0857         estimate D2E/DX2                !
 ! A35   A(14,12,16)           111.133          estimate D2E/DX2                !
 ! A36   A(15,12,16)           108.6288         estimate D2E/DX2                !
 ! A37   A(12,14,19)           108.9854         estimate D2E/DX2                !
 ! A38   A(8,20,21)            123.0403         estimate D2E/DX2                !
 ! A39   A(8,20,25)            114.3695         estimate D2E/DX2                !
 ! A40   A(21,20,25)           122.5794         estimate D2E/DX2                !
 ! A41   A(20,21,22)           119.6855         estimate D2E/DX2                !
 ! A42   A(20,21,26)           121.7318         estimate D2E/DX2                !
 ! A43   A(22,21,26)           118.5811         estimate D2E/DX2                !
 ! A44   A(21,22,23)           113.1747         estimate D2E/DX2                !
 ! A45   A(21,22,27)           126.5574         estimate D2E/DX2                !
 ! A46   A(23,22,27)           120.2673         estimate D2E/DX2                !
 ! A47   A(22,23,24)           128.616          estimate D2E/DX2                !
 ! A48   A(8,24,23)            113.7941         estimate D2E/DX2                !
 ! A49   A(8,24,28)            123.6086         estimate D2E/DX2                !
 ! A50   A(23,24,28)           122.5971         estimate D2E/DX2                !
 ! D1    D(9,1,2,3)            -35.0209         estimate D2E/DX2                !
 ! D2    D(9,1,2,4)           -159.0975         estimate D2E/DX2                !
 ! D3    D(9,1,2,5)             80.1282         estimate D2E/DX2                !
 ! D4    D(10,1,2,3)          -155.9269         estimate D2E/DX2                !
 ! D5    D(10,1,2,4)            79.9966         estimate D2E/DX2                !
 ! D6    D(10,1,2,5)           -40.7778         estimate D2E/DX2                !
 ! D7    D(11,1,2,3)            82.4843         estimate D2E/DX2                !
 ! D8    D(11,1,2,4)           -41.5923         estimate D2E/DX2                !
 ! D9    D(11,1,2,5)          -162.3666         estimate D2E/DX2                !
 ! D10   D(2,1,9,6)             24.0039         estimate D2E/DX2                !
 ! D11   D(2,1,9,12)           -97.76           estimate D2E/DX2                !
 ! D12   D(2,1,9,13)           140.9349         estimate D2E/DX2                !
 ! D13   D(10,1,9,6)           144.6793         estimate D2E/DX2                !
 ! D14   D(10,1,9,12)           22.9153         estimate D2E/DX2                !
 ! D15   D(10,1,9,13)          -98.3897         estimate D2E/DX2                !
 ! D16   D(11,1,9,6)           -88.8357         estimate D2E/DX2                !
 ! D17   D(11,1,9,12)          149.4003         estimate D2E/DX2                !
 ! D18   D(11,1,9,13)           28.0953         estimate D2E/DX2                !
 ! D19   D(2,1,11,17)          171.8221         estimate D2E/DX2                !
 ! D20   D(9,1,11,17)          -77.418          estimate D2E/DX2                !
 ! D21   D(10,1,11,17)          49.6965         estimate D2E/DX2                !
 ! D22   D(1,2,3,6)             35.2651         estimate D2E/DX2                !
 ! D23   D(1,2,3,7)            -85.7371         estimate D2E/DX2                !
 ! D24   D(1,2,3,8)            154.596          estimate D2E/DX2                !
 ! D25   D(4,2,3,6)            160.0099         estimate D2E/DX2                !
 ! D26   D(4,2,3,7)             39.0078         estimate D2E/DX2                !
 ! D27   D(4,2,3,8)            -80.6591         estimate D2E/DX2                !
 ! D28   D(5,2,3,6)            -79.2647         estimate D2E/DX2                !
 ! D29   D(5,2,3,7)            159.7332         estimate D2E/DX2                !
 ! D30   D(5,2,3,8)             40.0662         estimate D2E/DX2                !
 ! D31   D(1,2,4,18)            42.7327         estimate D2E/DX2                !
 ! D32   D(3,2,4,18)           -74.0737         estimate D2E/DX2                !
 ! D33   D(5,2,4,18)           164.1201         estimate D2E/DX2                !
 ! D34   D(2,3,6,9)            -21.277          estimate D2E/DX2                !
 ! D35   D(7,3,6,9)             98.986          estimate D2E/DX2                !
 ! D36   D(8,3,6,9)           -144.2665         estimate D2E/DX2                !
 ! D37   D(2,3,8,20)           -63.3477         estimate D2E/DX2                !
 ! D38   D(2,3,8,24)           118.7681         estimate D2E/DX2                !
 ! D39   D(6,3,8,20)            54.1994         estimate D2E/DX2                !
 ! D40   D(6,3,8,24)          -123.6848         estimate D2E/DX2                !
 ! D41   D(7,3,8,20)           174.4952         estimate D2E/DX2                !
 ! D42   D(7,3,8,24)            -3.389          estimate D2E/DX2                !
 ! D43   D(3,6,9,1)             -1.8307         estimate D2E/DX2                !
 ! D44   D(3,6,9,12)           123.0441         estimate D2E/DX2                !
 ! D45   D(3,6,9,13)          -119.4566         estimate D2E/DX2                !
 ! D46   D(3,8,20,21)         -179.5832         estimate D2E/DX2                !
 ! D47   D(3,8,20,25)           -0.7514         estimate D2E/DX2                !
 ! D48   D(24,8,20,21)          -1.7629         estimate D2E/DX2                !
 ! D49   D(24,8,20,25)         177.0689         estimate D2E/DX2                !
 ! D50   D(3,8,24,23)          179.9898         estimate D2E/DX2                !
 ! D51   D(3,8,24,28)           -0.1886         estimate D2E/DX2                !
 ! D52   D(20,8,24,23)           2.1515         estimate D2E/DX2                !
 ! D53   D(20,8,24,28)        -178.0268         estimate D2E/DX2                !
 ! D54   D(1,9,12,14)           51.6757         estimate D2E/DX2                !
 ! D55   D(1,9,12,15)          -69.4799         estimate D2E/DX2                !
 ! D56   D(1,9,12,16)          172.742          estimate D2E/DX2                !
 ! D57   D(6,9,12,14)          -68.4187         estimate D2E/DX2                !
 ! D58   D(6,9,12,15)          170.4257         estimate D2E/DX2                !
 ! D59   D(6,9,12,16)           52.6476         estimate D2E/DX2                !
 ! D60   D(13,9,12,14)         173.7997         estimate D2E/DX2                !
 ! D61   D(13,9,12,15)          52.6441         estimate D2E/DX2                !
 ! D62   D(13,9,12,16)         -65.1339         estimate D2E/DX2                !
 ! D63   D(9,12,14,19)         177.96           estimate D2E/DX2                !
 ! D64   D(15,12,14,19)        -62.4395         estimate D2E/DX2                !
 ! D65   D(16,12,14,19)         58.6304         estimate D2E/DX2                !
 ! D66   D(8,20,21,22)           0.2771         estimate D2E/DX2                !
 ! D67   D(8,20,21,26)         179.8037         estimate D2E/DX2                !
 ! D68   D(25,20,21,22)       -178.46           estimate D2E/DX2                !
 ! D69   D(25,20,21,26)          1.0666         estimate D2E/DX2                !
 ! D70   D(20,21,22,23)          0.5614         estimate D2E/DX2                !
 ! D71   D(20,21,22,27)       -179.7227         estimate D2E/DX2                !
 ! D72   D(26,21,22,23)       -178.9801         estimate D2E/DX2                !
 ! D73   D(26,21,22,27)          0.7358         estimate D2E/DX2                !
 ! D74   D(21,22,23,24)          0.0183         estimate D2E/DX2                !
 ! D75   D(27,22,23,24)       -179.7175         estimate D2E/DX2                !
 ! D76   D(22,23,24,8)          -1.3367         estimate D2E/DX2                !
 ! D77   D(22,23,24,28)        178.8396         estimate D2E/DX2                !
 --------------------------------------------------------------------------------
 Trust Radius=3.00D-01 FncErr=1.00D-07 GrdErr=1.00D-06 EigMax=2.50D+02 EigMin=1.00D-04
 Number of steps in this run=    166 maximum allowed number of steps=    168.
 GradGradGradGradGradGradGradGradGradGradGradGradGradGradGradGradGradGrad

                          Input orientation:                          
 ---------------------------------------------------------------------
 Center     Atomic      Atomic             Coordinates (Angstroms)
 Number     Number       Type             X           Y           Z
 ---------------------------------------------------------------------
      1          6           0       -2.740813   -0.402525    0.351959
      2          6           0       -1.337169   -0.600518    0.921513
      3          6           0       -0.495108   -0.620972   -0.363617
      4          8           0       -1.174293   -1.720631    1.735353
      5          1           0       -1.073223    0.281167    1.517297
      6          8           0       -1.119374    0.299450   -1.240666
      7          1           0       -0.465084   -1.631706   -0.789538
      8          7           0        0.883165   -0.222227   -0.178359
      9          6           0       -2.480388    0.507462   -0.855462
     10          1           0       -3.425318    0.051748    1.082220
     11          8           0       -3.183077   -1.694499   -0.038152
     12          6           0       -2.720649    1.980980   -0.601941
     13          1           0       -3.128037    0.198557   -1.692129
     14          8           0       -2.007510    2.373306    0.561816
     15          1           0       -3.805495    2.143662   -0.476728
     16          1           0       -2.379990    2.544254   -1.485259
     17          1           0       -4.109803   -1.658841   -0.287715
     18          1           0       -1.636700   -2.454764    1.311224
     19          1           0       -2.134625    3.314871    0.703663
     20          6           0        1.169310    1.054719    0.239372
     21          6           0        2.428387    1.502848    0.426604
     22          6           0        3.550501    0.617924    0.177021
     23          7           0        3.162407   -0.653699   -0.261500
     24          6           0        1.891399   -1.138558   -0.473904
     25          1           0        0.293396    1.685872    0.388905
     26          1           0        2.630338    2.517858    0.754431
     27          8           0        4.731829    0.888331    0.309021
     28          8           0        1.679135   -2.266116   -0.879332
 ---------------------------------------------------------------------
                    Distance matrix (angstroms):
                    1          2          3          4          5
     1  C    0.000000
     2  C    1.527681   0.000000
     3  C    2.367057   1.536569   0.000000
     4  O    2.470864   1.394101   2.464998   0.000000
     5  H    2.146230   1.096355   2.164696   2.016174   0.000000
     6  O    2.378716   2.352104   1.416368   3.597281   2.758410
     7  H    2.827162   2.179811   1.097221   2.624111   3.057843
     8  N    3.667010   2.506533   1.446705   3.184437   2.637444
     9  C    1.534198   2.385835   2.335939   3.658224   2.767907
    10  H    1.099178   2.193546   3.336035   2.938541   2.402972
    11  O    1.420205   2.350559   2.912656   2.679779   3.282402
    12  C    2.567378   3.301373   3.432198   4.642853   3.177192
    13  H    2.165534   3.267545   3.060864   4.387258   3.811758
    14  O    2.878717   3.069588   3.479869   4.339558   2.482515
    15  H    2.881551   3.946927   4.314471   5.171971   3.861390
    16  H    3.491285   4.095072   3.850911   5.478621   3.980521
    17  H    1.965107   3.204650   3.761509   3.565647   4.030201
    18  H    2.520107   1.918286   2.733335   0.965742   2.800945
    19  H    3.782882   4.001708   4.395220   5.229044   3.315409
    20  C    4.174362   3.080189   2.437586   3.928486   2.694518
    21  C    5.509687   4.341485   3.698903   5.008288   3.865668
    22  C    6.375935   5.091973   4.265455   5.497355   4.825823
    23  N    5.940322   4.652798   3.659087   4.892109   4.688140
    24  C    4.762476   3.558135   2.444478   3.823361   3.843109
    25  H    3.683638   2.858320   2.551383   3.946048   2.261440
    26  H    6.126980   5.049089   4.568446   5.779465   4.393303
    27  O    7.583438   6.278898   5.481907   6.612366   5.960470
    28  O    4.952271   3.887846   2.774850   3.908476   4.450613
                    6          7          8          9         10
     6  O    0.000000
     7  H    2.088295   0.000000
     8  N    2.326114   2.044002   0.000000
     9  C    1.429689   2.939700   3.507763   0.000000
    10  H    3.282458   3.885934   4.497460   2.203447   0.000000
    11  O    3.111389   2.820640   4.326843   2.451612   2.088850
    12  C    2.408235   4.263129   4.245117   1.514349   2.656105
    13  H    2.061244   3.354974   4.307935   1.102217   2.794090
    14  O    2.887664   4.499484   3.954826   2.390327   2.769590
    15  H    3.346635   5.050703   5.260227   2.139275   2.636467
    16  H    2.586141   4.646454   4.473207   2.134302   3.727901
    17  H    3.699417   3.679204   5.196686   2.769512   2.295943
    18  H    3.790180   2.542304   3.681413   3.765783   3.087750
    19  H    3.728795   5.430068   4.732450   3.229856   3.529471
    20  C    2.828254   3.308592   1.373670   3.849474   4.777756
    21  C    4.100557   4.435832   2.393653   5.170160   6.066415
    22  C    4.890705   4.703190   2.819012   6.119628   7.057053
    23  N    4.494542   3.793944   2.321212   5.791565   6.760278
    24  C    3.423528   2.428133   1.394111   4.686949   5.666201
    25  H    2.563901   3.601436   2.076164   3.260518   4.120665
    26  H    4.791877   5.402255   3.380943   5.723021   6.546764
    27  O    6.081520   5.879228   4.035231   7.315542   8.236307
    28  O    3.813705   2.237904   2.302697   4.999494   5.939328
                   11         12         13         14         15
    11  O    0.000000
    12  C    3.747111   0.000000
    13  H    2.514424   2.128734   0.000000
    14  O    4.276559   1.420147   3.326467   0.000000
    15  H    3.912957   1.104099   2.391565   2.089033   0.000000
    16  H    4.550395   1.101625   2.470762   2.087697   1.791556
    17  H    0.960403   3.908553   2.527087   4.625965   3.819340
    18  H    2.188630   4.950856   4.276018   4.899936   5.389431
    19  H    5.171395   1.956346   4.054393   0.960637   2.357299
    20  C    5.155433   4.086263   4.788622   3.454682   5.142692
    21  C    6.475149   5.272484   6.088025   4.522517   6.331503
    22  C    7.122828   6.464675   6.947839   5.841311   7.540951
    23  N    6.434152   6.455059   6.507129   6.047202   7.511538
    24  C    5.123403   5.569461   5.335418   5.348588   6.574768
    25  H    4.867766   3.186429   4.271886   2.407620   4.214238
    26  H    7.222737   5.546264   6.672608   4.644096   6.563210
    27  O    8.332903   7.587039   8.139895   6.905631   8.664823
    28  O    4.967438   6.121509   5.462980   6.098565   7.049071
                   16         17         18         19         20
    16  H    0.000000
    17  H    4.700252   0.000000
    18  H    5.776069   3.050629   0.000000
    19  H    2.333545   5.442607   5.822864   0.000000
    20  C    4.217890   5.959049   4.619419   4.029868   0.000000
    21  C    5.278280   7.297565   5.741966   4.917445   1.349500
    22  C    6.453266   8.004992   6.134728   6.314391   2.421724
    23  N    6.514803   7.341392   5.361784   6.688769   2.672452
    24  C    5.729809   6.026590   4.167321   6.117889   2.416741
    25  H    3.375841   5.570734   4.660559   2.940748   1.089926
    26  H    5.488196   7.997524   6.576063   4.831426   2.130883
    27  O    7.519275   9.220555   7.262152   7.293287   3.567083
    28  O    6.323235   5.850692   3.978553   6.942482   3.541097
                   21         22         23         24         25
    21  C    0.000000
    22  C    1.450697   0.000000
    23  N    2.379699   1.399980   0.000000
    24  C    2.841883   2.502309   1.376832   0.000000
    25  H    2.143153   3.434260   3.758702   3.357895   0.000000
    26  H    1.085587   2.188573   3.372534   3.927368   2.507411
    27  O    2.386902   1.219049   2.272980   3.576212   4.510226
    28  O    4.058563   3.596607   2.276335   1.216887   4.375718
                   26         27         28
    26  H    0.000000
    27  O    2.696296   0.000000
    28  O    5.143965   4.547709   0.000000
 Stoichiometry    C9H11N2O6(1-)
 Framework group  C1[X(C9H11N2O6)]
 Deg. of freedom    78
 Full point group                 C1      NOp   1
 Largest Abelian subgroup         C1      NOp   1
 Largest concise Abelian subgroup C1      NOp   1
                         Standard orientation:                         
 ---------------------------------------------------------------------
 Center     Atomic      Atomic             Coordinates (Angstroms)
 Number     Number       Type             X           Y           Z
 ---------------------------------------------------------------------
      1          6           0       -2.713081   -0.387150    0.354041
      2          6           0       -1.309985   -0.601153    0.919138
      3          6           0       -0.471545   -0.625284   -0.368293
      4          8           0       -1.156120   -1.725790    1.728481
      5          1           0       -1.035722    0.275687    1.517406
      6          8           0       -1.088927    0.304486   -1.240340
      7          1           0       -0.452690   -1.634707   -0.797950
      8          7           0        0.911107   -0.240929   -0.185260
      9          6           0       -2.446789    0.524602   -0.850766
     10          1           0       -3.391116    0.071234    1.087760
     11          8           0       -3.169192   -1.673236   -0.039568
     12          6           0       -2.671720    1.999500   -0.591273
     13          1           0       -3.099671    0.225200   -1.686820
     14          8           0       -1.951664    2.380475    0.571996
     15          1           0       -3.754562    2.172493   -0.462586
     16          1           0       -2.327796    2.562580   -1.473448
     17          1           0       -4.096170   -1.627463   -0.286534
     18          1           0       -1.626916   -2.453741    1.302928
     19          1           0       -2.069037    3.322733    0.717589
     20          6           0        1.211030    1.031579    0.236329
     21          6           0        2.474988    1.466492    0.421832
     22          6           0        3.587589    0.571381    0.166062
     23          7           0        3.185720   -0.694716   -0.276026
     24          6           0        1.909400   -1.166147   -0.486802
     25          1           0        0.341831    1.670853    0.390476
     26          1           0        2.687882    2.478243    0.752794
     27          8           0        4.771889    0.829556    0.295897
     28          8           0        1.684871   -2.290055   -0.895744
 ---------------------------------------------------------------------
 Rotational constants (GHZ):           0.8583567           0.3170916           0.2650723
 Standard basis: Aug-CC-pVDZ (5D, 7F)
 There are   524 symmetry adapted cartesian basis functions of A   symmetry.
 There are   490 symmetry adapted basis functions of A   symmetry.
   490 basis functions,   852 primitive gaussians,   524 cartesian basis functions
    64 alpha electrons       64 beta electrons
       nuclear repulsion energy      1306.0454978083 Hartrees.
 NAtoms=   28 NActive=   28 NUniq=   28 SFac= 1.00D+00 NAtFMM=   60 NAOKFM=F Big=F
 Integral buffers will be    131072 words long.
 Raffenetti 2 integral format.
 Two-electron integral symmetry is turned on.
 Nuclear repulsion after empirical dispersion term =     1306.0261217775 Hartrees.
 One-electron integrals computed using PRISM.
 NBasis=   490 RedAO= T EigKep=  2.64D-06  NBF=   490
 NBsUse=   490 1.00D-06 EigRej= -1.00D+00 NBFU=   490
 ExpMin= 2.97D-02 ExpMax= 1.17D+04 ExpMxC= 4.01D+02 IAcc=3 IRadAn=         5 AccDes= 0.00D+00
 Harris functional with IExCor= 1009 and IRadAn=       5 diagonalized for initial guess.
 HarFok:  IExCor= 1009 AccDes= 0.00D+00 IRadAn=         5 IDoV= 1 UseB2=F ITyADJ=14
 ICtDFT=  3500011 ScaDFX=  1.000000  1.000000  1.000000  1.000000
 FoFCou: FMM=F IPFlag=           0 FMFlag=      100000 FMFlg1=           0
         NFxFlg=           0 DoJE=T BraDBF=F KetDBF=T FulRan=T
         wScrn=  0.000000 ICntrl=       500 IOpCl=  0 I1Cent=   200000004 NGrid=           0
         NMat0=    1 NMatS0=      1 NMatT0=    0 NMatD0=    1 NMtDS0=    0 NMtDT0=    0
 Petite list used in FoFCou.
 Requested convergence on RMS density matrix=1.00D-08 within 128 cycles.
 Requested convergence on MAX density matrix=1.00D-06.
 Requested convergence on             energy=1.00D-06.
 No special actions if energy rises.
 EnCoef did     3 forward-backward iterations
 SCF Done:  E(RPBE1PBE) =  -909.631124488     A.U. after   17 cycles
            NFock= 17  Conv=0.44D-08     -V/T= 2.0052

 **********************************************************************

            Population analysis using the SCF Density.

 **********************************************************************

 Orbital symmetries:
       Occupied  (A) (A) (A) (A) (A) (A) (A) (A) (A) (A) (A) (A)
                 (A) (A) (A) (A) (A) (A) (A) (A) (A) (A) (A) (A)
                 (A) (A) (A) (A) (A) (A) (A) (A) (A) (A) (A) (A)
                 (A) (A) (A) (A) (A) (A) (A) (A) (A) (A) (A) (A)
                 (A) (A) (A) (A) (A) (A) (A) (A) (A) (A) (A) (A)
                 (A) (A) (A) (A)
       Virtual   (A) (A) (A) (A) (A) (A) (A) (A) (A) (A) (A) (A)
                 (A) (A) (A) (A) (A) (A) (A) (A) (A) (A) (A) (A)
                 (A) (A) (A) (A) (A) (A) (A) (A) (A) (A) (A) (A)
                 (A) (A) (A) (A) (A) (A) (A) (A) (A) (A) (A) (A)
                 (A) (A) (A) (A) (A) (A) (A) (A) (A) (A) (A) (A)
                 (A) (A) (A) (A) (A) (A) (A) (A) (A) (A) (A) (A)
                 (A) (A) (A) (A) (A) (A) (A) (A) (A) (A) (A) (A)
                 (A) (A) (A) (A) (A) (A) (A) (A) (A) (A) (A) (A)
                 (A) (A) (A) (A) (A) (A) (A) (A) (A) (A) (A) (A)
                 (A) (A) (A) (A) (A) (A) (A) (A) (A) (A) (A) (A)
                 (A) (A) (A) (A) (A) (A) (A) (A) (A) (A) (A) (A)
                 (A) (A) (A) (A) (A) (A) (A) (A) (A) (A) (A) (A)
                 (A) (A) (A) (A) (A) (A) (A) (A) (A) (A) (A) (A)
                 (A) (A) (A) (A) (A) (A) (A) (A) (A) (A) (A) (A)
                 (A) (A) (A) (A) (A) (A) (A) (A) (A) (A) (A) (A)
                 (A) (A) (A) (A) (A) (A) (A) (A) (A) (A) (A) (A)
                 (A) (A) (A) (A) (A) (A) (A) (A) (A) (A) (A) (A)
                 (A) (A) (A) (A) (A) (A) (A) (A) (A) (A) (A) (A)
                 (A) (A) (A) (A) (A) (A) (A) (A) (A) (A) (A) (A)
                 (A) (A) (A) (A) (A) (A) (A) (A) (A) (A) (A) (A)
                 (A) (A) (A) (A) (A) (A) (A) (A) (A) (A) (A) (A)
                 (A) (A) (A) (A) (A) (A) (A) (A) (A) (A) (A) (A)
                 (A) (A) (A) (A) (A) (A) (A) (A) (A) (A) (A) (A)
                 (A) (A) (A) (A) (A) (A) (A) (A) (A) (A) (A) (A)
                 (A) (A) (A) (A) (A) (A) (A) (A) (A) (A) (A) (A)
                 (A) (A) (A) (A) (A) (A) (A) (A) (A) (A) (A) (A)
                 (A) (A) (A) (A) (A) (A) (A) (A) (A) (A) (A) (A)
                 (A) (A) (A) (A) (A) (A) (A) (A) (A) (A) (A) (A)
                 (A) (A) (A) (A) (A) (A) (A) (A) (A) (A) (A) (A)
                 (A) (A) (A) (A) (A) (A) (A) (A) (A) (A) (A) (A)
                 (A) (A) (A) (A) (A) (A) (A) (A) (A) (A) (A) (A)
                 (A) (A) (A) (A) (A) (A) (A) (A) (A) (A) (A) (A)
                 (A) (A) (A) (A) (A) (A) (A) (A) (A) (A) (A) (A)
                 (A) (A) (A) (A) (A) (A) (A) (A) (A) (A) (A) (A)
                 (A) (A) (A) (A) (A) (A) (A) (A) (A) (A) (A) (A)
                 (A) (A) (A) (A) (A) (A)
 The electronic state is 1-A.
 Alpha  occ. eigenvalues --  -19.16932 -19.16901 -19.13871 -19.13235 -19.00952
 Alpha  occ. eigenvalues --  -18.99913 -14.29578 -14.17177 -10.21805 -10.21221
 Alpha  occ. eigenvalues --  -10.21127 -10.19707 -10.18699 -10.17275 -10.13989
 Alpha  occ. eigenvalues --  -10.13669 -10.07820  -1.01582  -0.99971  -0.98290
 Alpha  occ. eigenvalues --   -0.96427  -0.91190  -0.87397  -0.83672  -0.72992
 Alpha  occ. eigenvalues --   -0.71433  -0.68388  -0.64613  -0.60385  -0.54537
 Alpha  occ. eigenvalues --   -0.53457  -0.51321  -0.49484  -0.48130  -0.46103
 Alpha  occ. eigenvalues --   -0.44022  -0.42584  -0.40037  -0.39504  -0.37834
 Alpha  occ. eigenvalues --   -0.37400  -0.36070  -0.34849  -0.32588  -0.31943
 Alpha  occ. eigenvalues --   -0.30400  -0.29853  -0.29608  -0.28753  -0.28201
 Alpha  occ. eigenvalues --   -0.26778  -0.25010  -0.24770  -0.23691  -0.22661
 Alpha  occ. eigenvalues --   -0.22359  -0.20073  -0.19862  -0.17216  -0.11859
 Alpha  occ. eigenvalues --   -0.08762  -0.08580  -0.06533  -0.06418
 Alpha virt. eigenvalues --    0.04548   0.05775   0.07380   0.08379   0.10111
 Alpha virt. eigenvalues --    0.10227   0.11076   0.11424   0.12650   0.13083
 Alpha virt. eigenvalues --    0.13277   0.13785   0.14105   0.14836   0.15142
 Alpha virt. eigenvalues --    0.15937   0.16449   0.16762   0.16865   0.17960
 Alpha virt. eigenvalues --    0.18285   0.18371   0.19123   0.19436   0.19531
 Alpha virt. eigenvalues --    0.20187   0.20228   0.20627   0.21094   0.21336
 Alpha virt. eigenvalues --    0.21733   0.22087   0.22616   0.22881   0.23520
 Alpha virt. eigenvalues --    0.23745   0.23870   0.24592   0.24861   0.25031
 Alpha virt. eigenvalues --    0.25796   0.26002   0.26555   0.26759   0.27463
 Alpha virt. eigenvalues --    0.27560   0.27849   0.28576   0.28931   0.29504
 Alpha virt. eigenvalues --    0.29904   0.30185   0.31209   0.31730   0.32111
 Alpha virt. eigenvalues --    0.32393   0.32520   0.32873   0.33363   0.33809
 Alpha virt. eigenvalues --    0.34426   0.34918   0.35216   0.35491   0.36129
 Alpha virt. eigenvalues --    0.36292   0.36396   0.37011   0.37318   0.37707
 Alpha virt. eigenvalues --    0.38105   0.38249   0.38628   0.39153   0.39996
 Alpha virt. eigenvalues --    0.40238   0.40349   0.40745   0.41084   0.41239
 Alpha virt. eigenvalues --    0.41681   0.41972   0.42352   0.42581   0.43047
 Alpha virt. eigenvalues --    0.43285   0.43599   0.44066   0.44578   0.45012
 Alpha virt. eigenvalues --    0.45299   0.45575   0.45983   0.46543   0.46809
 Alpha virt. eigenvalues --    0.47431   0.47765   0.47979   0.49025   0.49456
 Alpha virt. eigenvalues --    0.50002   0.50440   0.50951   0.51358   0.51649
 Alpha virt. eigenvalues --    0.52384   0.52669   0.53084   0.53483   0.53872
 Alpha virt. eigenvalues --    0.54768   0.54918   0.55474   0.55652   0.56675
 Alpha virt. eigenvalues --    0.57884   0.58349   0.58616   0.59217   0.59442
 Alpha virt. eigenvalues --    0.59596   0.60490   0.61407   0.61576   0.62101
 Alpha virt. eigenvalues --    0.62656   0.62845   0.63822   0.64186   0.64805
 Alpha virt. eigenvalues --    0.65476   0.66083   0.66702   0.67415   0.67524
 Alpha virt. eigenvalues --    0.68132   0.68695   0.69519   0.70106   0.70399
 Alpha virt. eigenvalues --    0.71068   0.71883   0.72095   0.72289   0.73069
 Alpha virt. eigenvalues --    0.73436   0.74374   0.74741   0.75455   0.76045
 Alpha virt. eigenvalues --    0.76272   0.76951   0.77894   0.78078   0.78575
 Alpha virt. eigenvalues --    0.79479   0.80248   0.80664   0.80913   0.81449
 Alpha virt. eigenvalues --    0.81738   0.82296   0.82897   0.83487   0.83688
 Alpha virt. eigenvalues --    0.84751   0.85310   0.85866   0.86610   0.86722
 Alpha virt. eigenvalues --    0.87518   0.88164   0.88723   0.89295   0.89843
 Alpha virt. eigenvalues --    0.90488   0.90716   0.91027   0.92300   0.93229
 Alpha virt. eigenvalues --    0.93776   0.94520   0.95564   0.95876   0.96934
 Alpha virt. eigenvalues --    0.97705   0.97960   0.99131   0.99853   1.01138
 Alpha virt. eigenvalues --    1.01570   1.02450   1.03104   1.03870   1.04297
 Alpha virt. eigenvalues --    1.04744   1.05808   1.06427   1.07407   1.08121
 Alpha virt. eigenvalues --    1.09248   1.10222   1.10522   1.11932   1.12594
 Alpha virt. eigenvalues --    1.13160   1.13735   1.15329   1.15905   1.16183
 Alpha virt. eigenvalues --    1.18098   1.18714   1.19191   1.20101   1.20835
 Alpha virt. eigenvalues --    1.21431   1.22406   1.22674   1.23172   1.24090
 Alpha virt. eigenvalues --    1.24812   1.25824   1.27113   1.27753   1.28690
 Alpha virt. eigenvalues --    1.30458   1.31614   1.32584   1.33435   1.34258
 Alpha virt. eigenvalues --    1.34903   1.36163   1.36365   1.36565   1.37994
 Alpha virt. eigenvalues --    1.39411   1.39832   1.40768   1.41788   1.43076
 Alpha virt. eigenvalues --    1.43491   1.44444   1.46496   1.46746   1.47403
 Alpha virt. eigenvalues --    1.48357   1.49832   1.51849   1.53238   1.53242
 Alpha virt. eigenvalues --    1.54385   1.54820   1.55682   1.57013   1.57683
 Alpha virt. eigenvalues --    1.58068   1.59426   1.60564   1.61579   1.61918
 Alpha virt. eigenvalues --    1.62673   1.64556   1.65259   1.66718   1.67338
 Alpha virt. eigenvalues --    1.68055   1.68922   1.69890   1.70970   1.71870
 Alpha virt. eigenvalues --    1.73232   1.74532   1.74781   1.76444   1.77121
 Alpha virt. eigenvalues --    1.77473   1.80209   1.80295   1.81135   1.81502
 Alpha virt. eigenvalues --    1.81742   1.84553   1.85020   1.85957   1.87906
 Alpha virt. eigenvalues --    1.88642   1.89261   1.89710   1.91084   1.91735
 Alpha virt. eigenvalues --    1.94411   1.94682   1.95221   1.95592   1.96360
 Alpha virt. eigenvalues --    1.96599   1.98145   1.98757   1.98851   2.00418
 Alpha virt. eigenvalues --    2.01073   2.03532   2.04996   2.05790   2.05986
 Alpha virt. eigenvalues --    2.06943   2.07380   2.07659   2.09437   2.09679
 Alpha virt. eigenvalues --    2.10140   2.11939   2.12768   2.13936   2.15403
 Alpha virt. eigenvalues --    2.17175   2.18052   2.19538   2.20123   2.20309
 Alpha virt. eigenvalues --    2.22625   2.23556   2.24382   2.26102   2.27147
 Alpha virt. eigenvalues --    2.28044   2.29308   2.29844   2.30558   2.33159
 Alpha virt. eigenvalues --    2.33560   2.35394   2.36045   2.36821   2.37904
 Alpha virt. eigenvalues --    2.40359   2.41288   2.42183   2.42711   2.44391
 Alpha virt. eigenvalues --    2.46741   2.47726   2.48353   2.50302   2.50882
 Alpha virt. eigenvalues --    2.52310   2.53910   2.55120   2.57262   2.57681
 Alpha virt. eigenvalues --    2.61830   2.62139   2.62891   2.63432   2.65553
 Alpha virt. eigenvalues --    2.66282   2.67561   2.71330   2.72491   2.73244
 Alpha virt. eigenvalues --    2.74924   2.76982   2.77575   2.79648   2.81913
 Alpha virt. eigenvalues --    2.82927   2.83998   2.85128   2.85564   2.87559
 Alpha virt. eigenvalues --    2.89430   2.90633   2.95462   2.96879   2.99095
 Alpha virt. eigenvalues --    3.01149   3.02456   3.06978   3.08251   3.09965
 Alpha virt. eigenvalues --    3.11539   3.18500   3.22155   3.25169   3.27010
 Alpha virt. eigenvalues --    3.29306   3.32169   3.36361   3.45008   3.46291
 Alpha virt. eigenvalues --    3.51104   3.54504   3.56144   3.58227   3.59442
 Alpha virt. eigenvalues --    3.60250   3.60626   3.61310   3.62695   3.63410
 Alpha virt. eigenvalues --    3.64511   3.65315   3.65928   3.67227   3.68543
 Alpha virt. eigenvalues --    3.69340   3.71450   3.72024   3.72847   3.76439
 Alpha virt. eigenvalues --    3.78626   3.79705   3.81096   3.84833   3.87617
 Alpha virt. eigenvalues --    3.91612   3.93742   3.95941   4.03816   4.06449
 Alpha virt. eigenvalues --    4.09880   4.13196   4.14890   4.22085   4.55621
 Alpha virt. eigenvalues --    4.66717
          Condensed to atoms (all electrons):
               1          2          3          4          5          6
     1  C    8.973358  -1.398204  -0.561034   0.043182  -0.063449   0.109736
     2  C   -1.398204   7.864215  -1.597563  -0.217544  -0.376814  -0.146738
     3  C   -0.561034  -1.597563  14.244920   0.104830  -0.351419  -0.635556
     4  O    0.043182  -0.217544   0.104830   8.527461  -0.136540  -0.011005
     5  H   -0.063449  -0.376814  -0.351419  -0.136540   2.145731   0.109441
     6  O    0.109736  -0.146738  -0.635556  -0.011005   0.109441   9.557753
     7  H   -0.178757   0.271965  -1.165129   0.008426   0.079680  -0.116119
     8  N    0.471922   0.076096  -1.132631  -0.002244  -0.154451  -0.038324
     9  C   -1.455209   0.652504  -2.605450  -0.024976  -0.020695  -0.004949
    10  H   -0.966944   0.257370   0.249943   0.042824  -0.130966   0.003163
    11  O   -0.461413  -0.020569   0.074146  -0.021294   0.040961   0.030477
    12  C   -0.283381   0.042677   0.352896  -0.011262   0.018061  -0.053236
    13  H    0.130960   0.010769   0.516751   0.005317  -0.011418  -0.281696
    14  O    0.037879  -0.023590  -0.067005   0.006866   0.009241  -0.003748
    15  H   -0.053341   0.058336   0.016401  -0.002490   0.020458   0.078869
    16  H    0.091402  -0.039333   0.004863  -0.000040  -0.007642  -0.003840
    17  H    0.025888   0.003509  -0.022833   0.002215   0.004983   0.003428
    18  H    0.042727  -0.190850   0.002921   0.338747   0.047761   0.012029
    19  H   -0.022737   0.008700  -0.008532  -0.000240  -0.000645  -0.008356
    20  C    0.116906   0.084268  -2.194864  -0.012330   0.316891   0.340563
    21  C    0.054085  -0.083263  -0.044257  -0.006704  -0.006989  -0.015095
    22  C   -0.018026   0.040826  -0.355347   0.003560   0.039179   0.017426
    23  N    0.024359  -0.020788   0.091491  -0.001186  -0.016783  -0.011393
    24  C   -0.016248  -0.039766   0.010221   0.023402  -0.034176  -0.101444
    25  H    0.145705  -0.141496  -0.205957  -0.010365  -0.014429  -0.008249
    26  H   -0.002035   0.001926   0.040023   0.000549   0.002678   0.001376
    27  O   -0.000224   0.001558  -0.001463  -0.000158   0.000447   0.000285
    28  O    0.000507   0.004037   0.159125   0.003662  -0.008471   0.007911
               7          8          9         10         11         12
     1  C   -0.178757   0.471922  -1.455209  -0.966944  -0.461413  -0.283381
     2  C    0.271965   0.076096   0.652504   0.257370  -0.020569   0.042677
     3  C   -1.165129  -1.132631  -2.605450   0.249943   0.074146   0.352896
     4  O    0.008426  -0.002244  -0.024976   0.042824  -0.021294  -0.011262
     5  H    0.079680  -0.154451  -0.020695  -0.130966   0.040961   0.018061
     6  O   -0.116119  -0.038324  -0.004949   0.003163   0.030477  -0.053236
     7  H    2.758545  -0.272106   0.033592   0.010859  -0.001081   0.019147
     8  N   -0.272106   8.498832   0.113191  -0.046782  -0.017804  -0.067032
     9  C    0.033592   0.113191   9.663798   0.103459   0.130931  -0.204443
    10  H    0.010859  -0.046782   0.103459   2.097852  -0.093452  -0.100850
    11  O   -0.001081  -0.017804   0.130931  -0.093452   8.693231   0.003099
    12  C    0.019147  -0.067032  -0.204443  -0.100850   0.003099   5.146943
    13  H    0.022675  -0.040885  -0.961224   0.074126  -0.011515  -0.008744
    14  O    0.001880   0.024082  -0.186303   0.026905   0.005882   0.187702
    15  H   -0.001555  -0.004384  -0.077468  -0.043932   0.004780   0.229285
    16  H    0.004846   0.009657   0.007743   0.024924  -0.000642  -0.011256
    17  H    0.000068   0.007904  -0.044646  -0.081293   0.392289  -0.005165
    18  H   -0.013562  -0.001728  -0.004004  -0.007589   0.017020   0.000797
    19  H    0.000042  -0.001969   0.078979  -0.006183  -0.000122  -0.076019
    20  C    0.102559   0.188366   0.242635  -0.047314   0.007822  -0.107013
    21  C    0.021331  -0.415620   0.066548   0.003551   0.000395  -0.060091
    22  C   -0.015190  -0.003016   0.025030  -0.002760  -0.000142  -0.004950
    23  N   -0.024115   0.027131   0.007898   0.001235   0.000335  -0.001822
    24  C    0.105610  -0.095670  -0.225213   0.001693  -0.013317   0.006738
    25  H    0.026169   0.117729  -0.110654  -0.002686   0.001109   0.015908
    26  H   -0.002629   0.027298  -0.001531  -0.000258  -0.000107   0.003997
    27  O    0.000401  -0.021369   0.000308   0.000006   0.000001   0.000053
    28  O    0.001825  -0.129852   0.011917   0.000505   0.000766   0.002468
              13         14         15         16         17         18
     1  C    0.130960   0.037879  -0.053341   0.091402   0.025888   0.042727
     2  C    0.010769  -0.023590   0.058336  -0.039333   0.003509  -0.190850
     3  C    0.516751  -0.067005   0.016401   0.004863  -0.022833   0.002921
     4  O    0.005317   0.006866  -0.002490  -0.000040   0.002215   0.338747
     5  H   -0.011418   0.009241   0.020458  -0.007642   0.004983   0.047761
     6  O   -0.281696  -0.003748   0.078869  -0.003840   0.003428   0.012029
     7  H    0.022675   0.001880  -0.001555   0.004846   0.000068  -0.013562
     8  N   -0.040885   0.024082  -0.004384   0.009657   0.007904  -0.001728
     9  C   -0.961224  -0.186303  -0.077468   0.007743  -0.044646  -0.004004
    10  H    0.074126   0.026905  -0.043932   0.024924  -0.081293  -0.007589
    11  O   -0.011515   0.005882   0.004780  -0.000642   0.392289   0.017020
    12  C   -0.008744   0.187702   0.229285  -0.011256  -0.005165   0.000797
    13  H    2.194681   0.053930  -0.126544  -0.012165  -0.018144  -0.002572
    14  O    0.053930   8.374428  -0.172919  -0.036915  -0.000074  -0.001173
    15  H   -0.126544  -0.172919   1.621041  -0.275462   0.005733   0.000197
    16  H   -0.012165  -0.036915  -0.275462   1.499399  -0.001055  -0.000046
    17  H   -0.018144  -0.000074   0.005733  -0.001055   0.620130  -0.002524
    18  H   -0.002572  -0.001173   0.000197  -0.000046  -0.002524   0.651272
    19  H    0.004466   0.365713  -0.008527  -0.045052  -0.000055  -0.000030
    20  C   -0.053988   0.040494  -0.020105   0.041215   0.005824   0.019056
    21  C   -0.006396  -0.021419   0.000453  -0.001478   0.000534  -0.002597
    22  C    0.000836   0.003337  -0.000398   0.001924   0.000163   0.000792
    23  N    0.000140  -0.000396   0.000042  -0.001065  -0.000056   0.000646
    24  C    0.008861   0.001878  -0.001894   0.005578   0.001330  -0.012241
    25  H   -0.008605  -0.061928   0.008509  -0.004372   0.000168   0.001840
    26  H    0.000175   0.002927  -0.000434   0.001533   0.000012   0.000093
    27  O    0.000004   0.000162   0.000012  -0.000005  -0.000001  -0.000000
    28  O    0.000851   0.000028   0.000110  -0.000314  -0.000313  -0.001322
              19         20         21         22         23         24
     1  C   -0.022737   0.116906   0.054085  -0.018026   0.024359  -0.016248
     2  C    0.008700   0.084268  -0.083263   0.040826  -0.020788  -0.039766
     3  C   -0.008532  -2.194864  -0.044257  -0.355347   0.091491   0.010221
     4  O   -0.000240  -0.012330  -0.006704   0.003560  -0.001186   0.023402
     5  H   -0.000645   0.316891  -0.006989   0.039179  -0.016783  -0.034176
     6  O   -0.008356   0.340563  -0.015095   0.017426  -0.011393  -0.101444
     7  H    0.000042   0.102559   0.021331  -0.015190  -0.024115   0.105610
     8  N   -0.001969   0.188366  -0.415620  -0.003016   0.027131  -0.095670
     9  C    0.078979   0.242635   0.066548   0.025030   0.007898  -0.225213
    10  H   -0.006183  -0.047314   0.003551  -0.002760   0.001235   0.001693
    11  O   -0.000122   0.007822   0.000395  -0.000142   0.000335  -0.013317
    12  C   -0.076019  -0.107013  -0.060091  -0.004950  -0.001822   0.006738
    13  H    0.004466  -0.053988  -0.006396   0.000836   0.000140   0.008861
    14  O    0.365713   0.040494  -0.021419   0.003337  -0.000396   0.001878
    15  H   -0.008527  -0.020105   0.000453  -0.000398   0.000042  -0.001894
    16  H   -0.045052   0.041215  -0.001478   0.001924  -0.001065   0.005578
    17  H   -0.000055   0.005824   0.000534   0.000163  -0.000056   0.001330
    18  H   -0.000030   0.019056  -0.002597   0.000792   0.000646  -0.012241
    19  H    0.587843  -0.011918   0.008683   0.000522  -0.000314  -0.000400
    20  C   -0.011918   9.966117  -2.258220   0.094236  -0.089075  -0.952691
    21  C    0.008683  -2.258220  10.488899  -2.724527   0.560003   0.619582
    22  C    0.000522   0.094236  -2.724527   9.701856  -0.688121  -0.529837
    23  N   -0.000314  -0.089075   0.560003  -0.688121   8.264709  -0.194445
    24  C   -0.000400  -0.952691   0.619582  -0.529837  -0.194445   6.805246
    25  H   -0.011019  -1.140277  -0.133317  -0.327173   0.113137   0.057274
    26  H    0.000532   0.619390  -1.000178   0.227808  -0.092763  -0.092209
    27  O   -0.000071   0.132065  -0.127948   0.051345  -0.112192   0.035537
    28  O    0.000025  -0.053649   0.005271   0.014527  -0.201268   0.095268
              25         26         27         28
     1  C    0.145705  -0.002035  -0.000224   0.000507
     2  C   -0.141496   0.001926   0.001558   0.004037
     3  C   -0.205957   0.040023  -0.001463   0.159125
     4  O   -0.010365   0.000549  -0.000158   0.003662
     5  H   -0.014429   0.002678   0.000447  -0.008471
     6  O   -0.008249   0.001376   0.000285   0.007911
     7  H    0.026169  -0.002629   0.000401   0.001825
     8  N    0.117729   0.027298  -0.021369  -0.129852
     9  C   -0.110654  -0.001531   0.000308   0.011917
    10  H   -0.002686  -0.000258   0.000006   0.000505
    11  O    0.001109  -0.000107   0.000001   0.000766
    12  C    0.015908   0.003997   0.000053   0.002468
    13  H   -0.008605   0.000175   0.000004   0.000851
    14  O   -0.061928   0.002927   0.000162   0.000028
    15  H    0.008509  -0.000434   0.000012   0.000110
    16  H   -0.004372   0.001533  -0.000005  -0.000314
    17  H    0.000168   0.000012  -0.000001  -0.000313
    18  H    0.001840   0.000093  -0.000000  -0.001322
    19  H   -0.011019   0.000532  -0.000071   0.000025
    20  C   -1.140277   0.619390   0.132065  -0.053649
    21  C   -0.133317  -1.000178  -0.127948   0.005271
    22  C   -0.327173   0.227808   0.051345   0.014527
    23  N    0.113137  -0.092763  -0.112192  -0.201268
    24  C    0.057274  -0.092209   0.035537   0.095268
    25  H    3.715488  -0.281530   0.007814   0.001703
    26  H   -0.281530   2.178910  -0.010963   0.002366
    27  O    0.007814  -0.010963   8.836585  -0.005388
    28  O    0.001703   0.002366  -0.005388   8.818163
 Mulliken charges:
               1
     1  C    1.212385
     2  C    0.917763
     3  C    1.080509
     4  O   -0.652663
     5  H   -0.500624
     6  O   -0.832709
     7  H   -0.679377
     8  N   -0.116344
     9  C    0.788231
    10  H   -0.367405
    11  O   -0.761786
    12  C    0.965493
    13  H   -0.480647
    14  O   -0.567865
    15  H   -0.254771
    16  H   -0.252403
    17  H    0.101981
    18  H    0.104342
    19  H    0.146685
    20  C    0.623038
    21  C    1.078765
    22  C    0.446121
    23  N   -0.635344
    24  C    0.531334
    25  H   -0.750498
    26  H   -0.626954
    27  O   -0.786801
    28  O   -0.730459
 Sum of Mulliken charges =  -1.00000
 Mulliken charges with hydrogens summed into heavy atoms:
               1
     1  C    0.844980
     2  C    0.417140
     3  C    0.401133
     4  O   -0.548321
     6  O   -0.832709
     8  N   -0.116344
     9  C    0.307584
    11  O   -0.659805
    12  C    0.458320
    14  O   -0.421180
    20  C   -0.127459
    21  C    0.451811
    22  C    0.446121
    23  N   -0.635344
    24  C    0.531334
    27  O   -0.786801
    28  O   -0.730459
 Electronic spatial extent (au):  <R**2>=           4162.5974
 Charge=             -1.0000 electrons
 Dipole moment (field-independent basis, Debye):
    X=            -20.6169    Y=              5.8670    Z=              0.5170  Tot=             21.4417
 Quadrupole moment (field-independent basis, Debye-Ang):
   XX=           -160.6340   YY=           -108.6053   ZZ=           -109.5766
   XY=              0.5823   XZ=              4.4486   YZ=             -2.6675
 Traceless Quadrupole moment (field-independent basis, Debye-Ang):
   XX=            -34.3620   YY=             17.6667   ZZ=             16.6954
   XY=              0.5823   XZ=              4.4486   YZ=             -2.6675
 Octapole moment (field-independent basis, Debye-Ang**2):
  XXX=           -434.5365  YYY=             54.9676  ZZZ=             -5.3185  XYY=            -69.9934
  XXY=            -10.8292  XXZ=            -13.1814  XZZ=            -12.9171  YZZ=              9.5423
  YYZ=             15.2295  XYZ=            -16.1640
 Hexadecapole moment (field-independent basis, Debye-Ang**3):
 XXXX=          -5063.1712 YYYY=          -1131.1386 ZZZZ=           -477.0662 XXXY=            -86.3321
 XXXZ=            -16.2918 YYYX=             -8.6338 YYYZ=            -17.0442 ZZZX=              6.9662
 ZZZY=              8.0230 XXYY=           -890.2842 XXZZ=           -722.5662 YYZZ=           -295.4107
 XXYZ=            -32.0792 YYXZ=             13.7362 ZZXY=             -1.2719
 N-N= 1.306026121778D+03 E-N=-4.761821006280D+03  KE= 9.049062695277D+02
 Calling FoFJK, ICntrl=      2127 FMM=F ISym2X=0 I1Cent= 0 IOpClX= 0 NMat=1 NMatS=1 NMatT=0.
 ***** Axes restored to original set *****
 -------------------------------------------------------------------
 Center     Atomic                   Forces (Hartrees/Bohr)
 Number     Number              X              Y              Z
 -------------------------------------------------------------------
      1        6           0.001562348    0.001736759    0.002056410
      2        6          -0.000033915    0.003229153   -0.004508865
      3        6           0.017665877    0.003515595    0.008844531
      4        8          -0.003854869   -0.002410613    0.003177693
      5        1           0.000663570   -0.000385401   -0.000379270
      6        8          -0.015035008    0.005991830   -0.003360364
      7        1           0.001565492   -0.000899885   -0.000300444
      8        7          -0.032438784    0.000461228   -0.000263917
      9        6           0.007934688   -0.002331492   -0.001851523
     10        1          -0.001637974    0.000006444    0.000302998
     11        8          -0.003801290   -0.002795139   -0.000655621
     12        6           0.001140113   -0.000048645    0.001304667
     13        1          -0.002041705   -0.000101673   -0.000752332
     14        8          -0.003630552    0.001134866    0.000158154
     15        1          -0.001381685    0.000408511    0.000261728
     16        1           0.000537729   -0.000045694   -0.000239320
     17        1           0.000913388    0.000848493   -0.000245609
     18        1           0.002352519    0.000888457   -0.000985023
     19        1           0.000953319   -0.000505828   -0.000676187
     20        6          -0.003088566    0.000391581    0.000921736
     21        6          -0.001028317    0.009742750    0.003203226
     22        6          -0.041300944   -0.056354628   -0.020059589
     23        7           0.002421485   -0.005054065   -0.002189861
     24        6           0.071435326    0.042750245    0.016926093
     25        1           0.000895631    0.000222431    0.000086176
     26        1          -0.003331580    0.005221330    0.001373539
     27        8           0.025392811    0.019693124    0.007579508
     28        8          -0.022829108   -0.025309735   -0.009728534
 -------------------------------------------------------------------
 Cartesian Forces:  Max     0.071435326 RMS     0.014216839

 GradGradGradGradGradGradGradGradGradGradGradGradGradGradGradGradGradGrad
 Berny optimization.
 FormGI is forming the generalized inverse of G from B-inverse, IUseBI=4.
 Internal  Forces:  Max     0.030674875 RMS     0.006874499
 Search for a local minimum.
 Step number   1 out of a maximum of  166
 All quantities printed in internal units (Hartrees-Bohrs-Radians)
 Mixed Optimization -- RFO/linear search
 Second derivative matrix not updated -- first step.
 ITU=  0
     Eigenvalues ---    0.00523   0.00576   0.00854   0.01074   0.01425
     Eigenvalues ---    0.01425   0.01495   0.01554   0.01732   0.01770
     Eigenvalues ---    0.01854   0.01883   0.02088   0.02263   0.02473
     Eigenvalues ---    0.03101   0.03707   0.04368   0.04976   0.05084
     Eigenvalues ---    0.05331   0.05388   0.05634   0.05916   0.06183
     Eigenvalues ---    0.06219   0.07055   0.07743   0.08375   0.09891
     Eigenvalues ---    0.11066   0.13255   0.13690   0.15997   0.16000
     Eigenvalues ---    0.16000   0.16000   0.16000   0.16096   0.16846
     Eigenvalues ---    0.18456   0.20109   0.22044   0.22441   0.24478
     Eigenvalues ---    0.24981   0.24996   0.25000   0.25000   0.26192
     Eigenvalues ---    0.28448   0.28549   0.30917   0.33233   0.33438
     Eigenvalues ---    0.33503   0.33773   0.33991   0.34088   0.34821
     Eigenvalues ---    0.35328   0.37099   0.38680   0.39059   0.40909
     Eigenvalues ---    0.42430   0.42438   0.43553   0.45298   0.46612
     Eigenvalues ---    0.47970   0.49651   0.53989   0.54257   0.55337
     Eigenvalues ---    0.55387   0.95806   0.96776
 RFO step:  Lambda=-2.02393343D-02 EMin= 5.22650204D-03
 Linear search not attempted -- first point.
 Iteration  1 RMS(Cart)=  0.07235825 RMS(Int)=  0.00187840
 Iteration  2 RMS(Cart)=  0.00253552 RMS(Int)=  0.00012215
 Iteration  3 RMS(Cart)=  0.00000455 RMS(Int)=  0.00012211
 Iteration  4 RMS(Cart)=  0.00000000 RMS(Int)=  0.00012211
 Variable       Old X    -DE/DX   Delta X   Delta X   Delta X     New X
                                 (Linear)    (Quad)   (Total)
    R1        2.88690   0.00246   0.00000   0.00799   0.00798   2.89488
    R2        2.89921  -0.00043   0.00000  -0.00380  -0.00400   2.89521
    R3        2.07715   0.00122   0.00000   0.00342   0.00342   2.08056
    R4        2.68380   0.00292   0.00000   0.00656   0.00656   2.69036
    R5        2.90369   0.00183   0.00000   0.00581   0.00598   2.90968
    R6        2.63447   0.00233   0.00000   0.00478   0.00478   2.63925
    R7        2.07181  -0.00036   0.00000  -0.00099  -0.00099   2.07082
    R8        2.67655   0.01120   0.00000   0.02649   0.02663   2.70318
    R9        2.07345   0.00099   0.00000   0.00274   0.00274   2.07619
   R10        2.73388  -0.00623   0.00000  -0.01531  -0.01531   2.71856
   R11        1.82499  -0.00137   0.00000  -0.00243  -0.00243   1.82255
   R12        2.70172  -0.00472   0.00000  -0.01085  -0.01095   2.69077
   R13        2.59586  -0.00845   0.00000  -0.01454  -0.01454   2.58132
   R14        2.63449   0.02509   0.00000   0.05222   0.05226   2.68675
   R15        2.86171   0.00143   0.00000   0.00434   0.00434   2.86605
   R16        2.08289   0.00180   0.00000   0.00507   0.00507   2.08796
   R17        1.81490  -0.00079   0.00000  -0.00137  -0.00137   1.81353
   R18        2.68369  -0.00160   0.00000  -0.00359  -0.00359   2.68010
   R19        2.08644   0.00145   0.00000   0.00410   0.00410   2.09055
   R20        2.08177   0.00034   0.00000   0.00094   0.00094   2.08271
   R21        1.81534  -0.00072   0.00000  -0.00126  -0.00126   1.81408
   R22        2.55019  -0.00561   0.00000  -0.00875  -0.00879   2.54140
   R23        2.05966  -0.00058   0.00000  -0.00157  -0.00157   2.05809
   R24        2.74142   0.01654   0.00000   0.04058   0.04054   2.78196
   R25        2.05146   0.00468   0.00000   0.01252   0.01252   2.06398
   R26        2.64558  -0.01888   0.00000  -0.04143  -0.04143   2.60415
   R27        2.30367   0.02980   0.00000   0.03046   0.03046   2.33413
   R28        2.60183  -0.02166   0.00000  -0.04311  -0.04306   2.55877
   R29        2.29958   0.03067   0.00000   0.03105   0.03105   2.33063
    A1        1.78679   0.00015   0.00000   0.00023   0.00008   1.78687
    A2        1.95849   0.00082   0.00000   0.00933   0.00938   1.96787
    A3        1.84485   0.00079   0.00000   0.01087   0.01094   1.85579
    A4        1.96431  -0.00055   0.00000  -0.00147  -0.00151   1.96280
    A5        1.95655  -0.00019   0.00000  -0.00558  -0.00553   1.95102
    A6        1.94393  -0.00082   0.00000  -0.01122  -0.01134   1.93259
    A7        1.76545   0.00255   0.00000   0.01155   0.01176   1.77722
    A8        2.01432  -0.00232   0.00000  -0.01465  -0.01475   1.99957
    A9        1.89608  -0.00007   0.00000   0.00330   0.00324   1.89931
   A10        1.99712  -0.00022   0.00000   0.00437   0.00432   2.00144
   A11        1.91057  -0.00047   0.00000  -0.00334  -0.00338   1.90718
   A12        1.87631   0.00058   0.00000  -0.00067  -0.00064   1.87567
   A13        1.84181  -0.00588   0.00000  -0.01979  -0.02014   1.82167
   A14        1.93042   0.00110   0.00000  -0.00252  -0.00258   1.92784
   A15        1.99470   0.00402   0.00000   0.02535   0.02516   2.01986
   A16        1.95014   0.00005   0.00000  -0.00786  -0.00785   1.94230
   A17        1.89662   0.00541   0.00000   0.03693   0.03680   1.93341
   A18        1.85203  -0.00441   0.00000  -0.03063  -0.03033   1.82169
   A19        1.87387  -0.00116   0.00000  -0.00642  -0.00642   1.86745
   A20        1.92548   0.00321   0.00000   0.01201   0.01223   1.93771
   A21        2.08703   0.00210   0.00000   0.00529   0.00527   2.09230
   A22        2.07224   0.00281   0.00000   0.00785   0.00782   2.08006
   A23        2.12330  -0.00491   0.00000  -0.01315  -0.01310   2.11020
   A24        1.86224   0.00052   0.00000   0.00229   0.00215   1.86439
   A25        2.00254  -0.00044   0.00000  -0.00086  -0.00094   2.00161
   A26        1.90861   0.00019   0.00000  -0.00079  -0.00076   1.90785
   A27        1.91528   0.00067   0.00000   0.01168   0.01175   1.92703
   A28        1.89027   0.00015   0.00000   0.00172   0.00178   1.89205
   A29        1.88237  -0.00103   0.00000  -0.01358  -0.01362   1.86875
   A30        1.91568  -0.00139   0.00000  -0.00773  -0.00773   1.90795
   A31        1.90321   0.00292   0.00000   0.01253   0.01253   1.91575
   A32        1.89468  -0.00010   0.00000   0.00037   0.00039   1.89506
   A33        1.89044  -0.00134   0.00000  -0.00566  -0.00568   1.88476
   A34        1.93881  -0.00166   0.00000  -0.00973  -0.00973   1.92908
   A35        1.93964  -0.00023   0.00000   0.00219   0.00219   1.94183
   A36        1.89593   0.00041   0.00000   0.00026   0.00026   1.89619
   A37        1.90215   0.00004   0.00000   0.00020   0.00020   1.90236
   A38        2.14746  -0.00975   0.00000  -0.03370  -0.03375   2.11371
   A39        1.99612   0.00562   0.00000   0.02096   0.02098   2.01711
   A40        2.13941   0.00412   0.00000   0.01269   0.01271   2.15213
   A41        2.08891  -0.00039   0.00000   0.00092   0.00083   2.08973
   A42        2.12462  -0.00420   0.00000  -0.02484  -0.02479   2.09983
   A43        2.06963   0.00459   0.00000   0.02391   0.02396   2.09359
   A44        1.97527   0.01802   0.00000   0.06330   0.06325   2.03852
   A45        2.20884  -0.02539   0.00000  -0.09226  -0.09224   2.11660
   A46        2.09906   0.00737   0.00000   0.02897   0.02899   2.12805
   A47        2.24477  -0.02321   0.00000  -0.09206  -0.09200   2.15277
   A48        1.98608   0.02026   0.00000   0.07475   0.07483   2.06092
   A49        2.15738  -0.03055   0.00000  -0.11293  -0.11298   2.04440
   A50        2.13972   0.01029   0.00000   0.03819   0.03815   2.17787
    D1       -0.61123  -0.00060   0.00000   0.00653   0.00641  -0.60482
    D2       -2.77677  -0.00084   0.00000   0.00114   0.00110  -2.77567
    D3        1.39850   0.00003   0.00000   0.00941   0.00939   1.40789
    D4       -2.72144  -0.00045   0.00000   0.00347   0.00343  -2.71801
    D5        1.39620  -0.00068   0.00000  -0.00192  -0.00188   1.39433
    D6       -0.71171   0.00018   0.00000   0.00635   0.00641  -0.70530
    D7        1.43962  -0.00044   0.00000   0.00472   0.00462   1.44424
    D8       -0.72592  -0.00067   0.00000  -0.00068  -0.00069  -0.72661
    D9       -2.83383   0.00020   0.00000   0.00759   0.00760  -2.82623
   D10        0.41895  -0.00060   0.00000  -0.01510  -0.01509   0.40386
   D11       -1.70623  -0.00155   0.00000  -0.03108  -0.03106  -1.73729
   D12        2.45978  -0.00005   0.00000  -0.01224  -0.01221   2.44757
   D13        2.52513   0.00019   0.00000  -0.00457  -0.00459   2.52053
   D14        0.39995  -0.00076   0.00000  -0.02054  -0.02056   0.37938
   D15       -1.71722   0.00075   0.00000  -0.00170  -0.00172  -1.71894
   D16       -1.55048  -0.00152   0.00000  -0.02549  -0.02548  -1.57596
   D17        2.60753  -0.00247   0.00000  -0.04147  -0.04145   2.56608
   D18        0.49036  -0.00097   0.00000  -0.02263  -0.02260   0.46775
   D19        2.99886   0.00054   0.00000   0.01328   0.01332   3.01218
   D20       -1.35120   0.00105   0.00000   0.01689   0.01678  -1.33442
   D21        0.86737  -0.00050   0.00000   0.00144   0.00151   0.86888
   D22        0.61549  -0.00193   0.00000  -0.00725  -0.00711   0.60838
   D23       -1.49639   0.00097   0.00000   0.01557   0.01549  -1.48090
   D24        2.69821   0.00310   0.00000   0.03963   0.03955   2.73776
   D25        2.79270  -0.00315   0.00000  -0.01489  -0.01472   2.77798
   D26        0.68081  -0.00025   0.00000   0.00793   0.00788   0.68870
   D27       -1.40777   0.00189   0.00000   0.03199   0.03194  -1.37583
   D28       -1.38343  -0.00290   0.00000  -0.01524  -0.01511  -1.39854
   D29        2.78787   0.00000   0.00000   0.00758   0.00749   2.79536
   D30        0.69929   0.00214   0.00000   0.03164   0.03155   0.73084
   D31        0.74583   0.00220   0.00000   0.03884   0.03888   0.78471
   D32       -1.29283   0.00069   0.00000   0.03104   0.03099  -1.26184
   D33        2.86444   0.00101   0.00000   0.03294   0.03296   2.89740
   D34       -0.37135   0.00101   0.00000  -0.00340  -0.00353  -0.37488
   D35        1.72763  -0.00130   0.00000  -0.02316  -0.02301   1.70463
   D36       -2.51793  -0.00333   0.00000  -0.04238  -0.04225  -2.56018
   D37       -1.10563   0.00107   0.00000   0.00606   0.00557  -1.10005
   D38        2.07289   0.00116   0.00000   0.00671   0.00618   2.07908
   D39        0.94596  -0.00015   0.00000   0.02209   0.02267   0.96863
   D40       -2.15871  -0.00005   0.00000   0.02274   0.02328  -2.13542
   D41        3.04552   0.00032   0.00000   0.01529   0.01526   3.06077
   D42       -0.05915   0.00041   0.00000   0.01594   0.01587  -0.04328
   D43       -0.03195   0.00009   0.00000   0.01268   0.01279  -0.01916
   D44        2.14752   0.00029   0.00000   0.02029   0.02039   2.16792
   D45       -2.08491  -0.00048   0.00000   0.01151   0.01163  -2.07328
   D46       -3.13432   0.00032   0.00000   0.00282   0.00269  -3.13163
   D47       -0.01311   0.00014   0.00000   0.00016   0.00013  -0.01298
   D48       -0.03077   0.00040   0.00000   0.00263   0.00254  -0.02823
   D49        3.09044   0.00022   0.00000  -0.00003  -0.00002   3.09042
   D50        3.14141   0.00022   0.00000  -0.00142  -0.00149   3.13993
   D51       -0.00329   0.00023   0.00000   0.00222   0.00207  -0.00122
   D52        0.03755   0.00015   0.00000  -0.00117  -0.00128   0.03627
   D53       -3.10715   0.00017   0.00000   0.00246   0.00227  -3.10488
   D54        0.90191  -0.00031   0.00000  -0.01710  -0.01715   0.88476
   D55       -1.21265   0.00002   0.00000  -0.01302  -0.01308  -1.22574
   D56        3.01492   0.00033   0.00000  -0.01040  -0.01047   3.00445
   D57       -1.19413  -0.00118   0.00000  -0.02812  -0.02809  -1.22222
   D58        2.97449  -0.00084   0.00000  -0.02404  -0.02402   2.95047
   D59        0.91887  -0.00053   0.00000  -0.02142  -0.02140   0.89747
   D60        3.03338  -0.00114   0.00000  -0.02882  -0.02877   3.00460
   D61        0.91881  -0.00080   0.00000  -0.02474  -0.02471   0.89411
   D62       -1.13680  -0.00049   0.00000  -0.02212  -0.02209  -1.15889
   D63        3.10599  -0.00082   0.00000  -0.01745  -0.01742   3.08857
   D64       -1.08977  -0.00010   0.00000  -0.01497  -0.01499  -1.10477
   D65        1.02329  -0.00088   0.00000  -0.01979  -0.01980   1.00349
   D66        0.00484   0.00009   0.00000  -0.00149  -0.00140   0.00343
   D67        3.13817  -0.00002   0.00000  -0.00212  -0.00198   3.13619
   D68       -3.11472   0.00029   0.00000   0.00136   0.00132  -3.11339
   D69        0.01862   0.00017   0.00000   0.00073   0.00075   0.01936
   D70        0.00980   0.00010   0.00000   0.00268   0.00284   0.01264
   D71       -3.13675   0.00005   0.00000   0.00220   0.00226  -3.13449
   D72       -3.12379   0.00025   0.00000   0.00352   0.00364  -3.12015
   D73        0.01284   0.00020   0.00000   0.00303   0.00307   0.01591
   D74        0.00032  -0.00019   0.00000  -0.00408  -0.00410  -0.00378
   D75       -3.13666  -0.00004   0.00000  -0.00324  -0.00314  -3.13980
   D76       -0.02333   0.00017   0.00000   0.00356   0.00352  -0.01981
   D77        3.12134   0.00024   0.00000   0.00027  -0.00004   3.12130
         Item               Value     Threshold  Converged?
 Maximum Force            0.030675     0.000450     NO 
 RMS     Force            0.006874     0.000300     NO 
 Maximum Displacement     0.376210     0.001800     NO 
 RMS     Displacement     0.071973     0.001200     NO 
 Predicted change in Energy=-1.097534D-02
 GradGradGradGradGradGradGradGradGradGradGradGradGradGradGradGradGradGrad

                          Input orientation:                          
 ---------------------------------------------------------------------
 Center     Atomic      Atomic             Coordinates (Angstroms)
 Number     Number       Type             X           Y           Z
 ---------------------------------------------------------------------
      1          6           0       -2.736469   -0.401030    0.354631
      2          6           0       -1.327451   -0.565139    0.932963
      3          6           0       -0.461756   -0.565501   -0.340362
      4          8           0       -1.162227   -1.685276    1.750629
      5          1           0       -1.086681    0.319100    1.533795
      6          8           0       -1.125002    0.346030   -1.220952
      7          1           0       -0.414717   -1.574556   -0.772424
      8          7           0        0.915113   -0.189838   -0.159580
      9          6           0       -2.491478    0.507278   -0.854593
     10          1           0       -3.443695    0.038867    1.074697
     11          8           0       -3.161581   -1.701514   -0.038917
     12          6           0       -2.807050    1.972167   -0.620641
     13          1           0       -3.120868    0.170570   -1.697982
     14          8           0       -2.166082    2.417660    0.563471
     15          1           0       -3.903979    2.087070   -0.534730
     16          1           0       -2.461161    2.539504   -1.499940
     17          1           0       -4.084171   -1.668151   -0.301022
     18          1           0       -1.581576   -2.427674    1.299892
     19          1           0       -2.333707    3.356236    0.675370
     20          6           0        1.225918    1.065819    0.279304
     21          6           0        2.504850    1.446824    0.446000
     22          6           0        3.593125    0.501188    0.148256
     23          7           0        3.225124   -0.745350   -0.309732
     24          6           0        1.936855   -1.122837   -0.486647
     25          1           0        0.377453    1.725037    0.457253
     26          1           0        2.738725    2.455762    0.792811
     27          8           0        4.777341    0.818605    0.298298
     28          8           0        1.578359   -2.222897   -0.913752
 ---------------------------------------------------------------------
                    Distance matrix (angstroms):
                    1          2          3          4          5
     1  C    0.000000
     2  C    1.531904   0.000000
     3  C    2.384196   1.539735   0.000000
     4  O    2.465023   1.396633   2.473217   0.000000
     5  H    2.151933   1.095833   2.164606   2.017485   0.000000
     6  O    2.374318   2.347459   1.430462   3.599706   2.755145
     7  H    2.835128   2.181822   1.098673   2.633785   3.058777
     8  N    3.693652   2.522617   1.438601   3.193834   2.670902
     9  C    1.532079   2.387549   2.352671   3.655323   2.777276
    10  H    1.100987   2.205312   3.355535   2.938478   2.417606
    11  O    1.423678   2.366417   2.944564   2.683311   3.295682
    12  C    2.566749   3.322773   3.466803   4.658890   3.214638
    13  H    2.165112   3.267948   3.075030   4.378740   3.821566
    14  O    2.883396   3.120404   3.552590   4.387614   2.551586
    15  H    2.888717   3.978295   4.350036   5.193329   3.916846
    16  H    3.487402   4.104038   3.870827   5.486547   4.002867
    17  H    1.962594   3.215409   3.786723   3.570339   4.037408
    18  H    2.516860   1.915269   2.722521   0.964454   2.800786
    19  H    3.792379   4.056611   4.462727   5.286340   3.393547
    20  C    4.225853   3.099515   2.427640   3.928939   2.734859
    21  C    5.558268   4.355647   3.669954   4.995954   3.918438
    22  C    6.396902   5.095575   4.221212   5.473718   4.884000
    23  N    6.008371   4.722574   3.691391   4.937347   4.808670
    24  C    4.802990   3.603056   2.466851   3.863424   3.911922
    25  H    3.771897   2.894461   2.566520   3.958999   2.297671
    26  H    6.191204   5.067472   4.544798   5.769145   4.443885
    27  O    7.612361   6.291744   5.456352   6.607356   6.013544
    28  O    4.852395   3.821289   2.690317   3.859893   4.422067
                    6          7          8          9         10
     6  O    0.000000
     7  H    2.096266   0.000000
     8  N    2.361299   2.015309   0.000000
     9  C    1.423896   2.941722   3.545967   0.000000
    10  H    3.277299   3.897396   4.535962   2.201882   0.000000
    11  O    3.120465   2.845947   4.349616   2.448087   2.085342
    12  C    2.415364   4.280835   4.329127   1.516647   2.648988
    13  H    2.059569   3.350430   4.334250   1.104903   2.794515
    14  O    2.925691   4.559571   4.100684   2.401322   2.748146
    15  H    3.350349   5.063493   5.343098   2.143178   2.645232
    16  H    2.583503   4.652173   4.543688   2.132448   3.721198
    17  H    3.695927   3.700794   5.215194   2.752381   2.284015
    18  H    3.775785   2.526631   3.656696   3.752822   3.098714
    19  H    3.757439   5.485558   4.881251   3.237629   3.520863
    20  C    2.880224   3.281676   1.365977   3.926414   4.846913
    21  C    4.143223   4.374604   2.360647   5.247626   6.145143
    22  C    4.915234   4.606426   2.782809   6.166696   7.112585
    23  N    4.576573   3.761662   2.380607   5.877541   6.856003
    24  C    3.474441   2.411557   1.421765   4.733159   5.721684
    25  H    2.641099   3.609287   2.082380   3.381515   4.222035
    26  H    4.840929   5.351412   3.351389   5.819412   6.644031
    27  O    6.113027   5.816453   4.017887   7.366262   8.294349
    28  O    3.741913   2.100635   2.267598   4.901115   5.855811
                   11         12         13         14         15
    11  O    0.000000
    12  C    3.736313   0.000000
    13  H    2.501771   2.122474   0.000000
    14  O    4.280361   1.418247   3.327943   0.000000
    15  H    3.892346   1.106271   2.374740   2.082216   0.000000
    16  H    4.539980   1.102124   2.467039   2.087962   1.793892
    17  H    0.959679   3.871061   2.502068   4.595679   3.766799
    18  H    2.194570   4.954679   4.255297   4.935710   5.398362
    19  H    5.174594   1.954315   4.049802   0.959971   2.353908
    20  C    5.197072   4.230390   4.858568   3.662498   5.293529
    21  C    6.500432   5.443344   6.154201   4.772203   6.514970
    22  C    7.107249   6.611900   6.971055   6.083891   7.693377
    23  N    6.463559   6.623344   6.560317   6.311277   7.674460
    24  C    5.150668   5.665831   5.359179   5.520141   6.664919
    25  H    4.950980   3.371052   4.393138   2.638291   4.409735
    26  H    7.265558   5.743460   6.764686   4.910313   6.784085
    27  O    8.336139   7.726458   8.172319   7.130107   8.812960
    28  O    4.848114   6.075877   5.331645   6.143109   6.983946
                   16         17         18         19         20
    16  H    0.000000
    17  H    4.666468   0.000000
    18  H    5.769367   3.066396   0.000000
    19  H    2.327074   5.409430   5.865949   0.000000
    20  C    4.351093   6.000701   4.596534   4.251330   0.000000
    21  C    5.444437   7.326411   5.695590   5.206736   1.344849
    22  C    6.597398   7.990541   6.056569   6.599734   2.437139
    23  N    6.673882   7.367321   5.340924   6.978111   2.761181
[...]
 17578,-0.00006860,-0.00044760,-0.08417145,0.00107278,-0.07642007,0.134
 41991,-0.06606740,0.14103640,-0.00036993,-0.00030504,-0.00065828,0.000
 35179,-0.00020457,0.00097890,-0.00606019,-0.00001197,-0.00194333,0.002
 48345,-0.00005177,-0.00087763,-0.00013100,0.00001531,0.00007858,0.0038
 0746,-0.00159837,0.00066848,0.00098834,0.00024906,0.00030427,0.0095294
 6,0.00867984,0.00216395,-0.00204150,0.00010464,0.00030572,0.00044858,-
 0.00000027,-0.00002053,0.00084933,0.00066350,0.00034483,-0.00000280,0.
 00028402,-0.00023557,0.00047782,0.00002129,0.00025226,0.00047412,-0.00
 057282,-0.00003795,0.00023435,-0.00007927,-0.00007861,-0.00010693,-0.0
 0007828,0.00010518,-0.00012220,-0.00018893,0.00003161,-0.00344595,-0.0
 0044982,0.00104162,-0.00060655,0.00054648,0.00022164,-0.03374813,0.013
 15296,-0.01110235,-0.12624741,0.05986183,-0.02090515,0.85208539,-0.000
 20211,0.00009623,0.00053442,-0.00127984,0.00423316,-0.00194184,0.00059
 108,-0.00080209,0.00103073,0.00630366,-0.00385281,-0.00016497,-0.00006
 382,-0.00052246,-0.00021318,0.00052782,-0.00261999,0.00020329,-0.00121
 143,-0.00067832,-0.00082598,0.01151367,-0.05231778,0.01100034,0.000673
 15,-0.00018167,0.00021082,-0.00009083,0.00001872,-0.00005425,0.0000155
 5,-0.00040000,0.00003907,0.00032488,0.00039450,0.00036728,-0.00002655,
 -0.00010394,0.00000633,-0.00048972,-0.00073043,-0.00013634,-0.00010420
 ,-0.00004934,-0.00006802,0.00004738,-0.00013269,0.00002379,0.00005608,
 0.00001345,-0.00002170,-0.00911647,0.00063832,0.00194008,0.00092623,0.
 00060286,-0.00032163,0.03353038,0.05647187,-0.00040732,0.03821693,-0.1
 8167329,0.02464753,0.08086442,0.56446414,0.00006039,-0.00003303,-0.000
 30564,0.00036563,-0.00108805,0.00100947,-0.00126529,0.00000750,-0.0012
 9594,-0.00181963,0.00115575,-0.00022783,0.00001500,0.00007837,0.000002
 64,0.00083633,-0.00001197,0.00005752,0.00021290,-0.00007600,0.00012547
 ,0.00234189,0.01009041,-0.00852195,-0.00069097,0.00013562,0.00004866,0
 .00013306,-0.00000619,0.00001607,0.00015028,0.00020967,0.00001853,-0.0
 0000119,0.00002033,0.00002614,0.00010451,0.00001791,0.00003422,0.00002
 129,-0.00003894,-0.00008073,0.00004716,-0.00000745,-0.00003511,-0.0000
 3510,0.00002398,-0.00000881,-0.00004468,-0.00003781,0.00001951,0.00233
 541,-0.00028217,-0.00016690,-0.00002854,0.00000395,0.00008456,-0.01565
 074,-0.00610210,0.00170605,-0.01514202,0.02922580,-0.08967602,0.121381
 34,-0.04076550,0.24870155,0.00040041,0.00038221,0.00003244,0.00087690,
 -0.00395657,0.00082591,0.00600965,0.00362215,-0.00051317,-0.00849690,0
 .00375167,0.00174334,0.00008047,0.00064406,0.00018376,-0.00496294,0.00
 306842,-0.00080239,0.00009806,0.00027661,0.00057725,-0.05174785,0.0378
 0025,-0.02410447,0.00121535,0.00013428,-0.00069700,-0.00025916,-0.0000
 3107,0.00008101,-0.00058327,-0.00023109,-0.00025919,-0.00032702,-0.000
 55386,-0.00018835,-0.00042670,0.00007258,-0.00016677,0.00008175,0.0009
 7009,0.00028471,-0.00009647,0.00013259,0.00013856,0.00005088,0.0001493
 8,-0.00007201,0.00005505,0.00016706,0.00000484,0.01217733,-0.00044646,
 -0.00407029,-0.00033265,-0.00081655,-0.00013578,-0.01984324,-0.0309488
 5,0.00011602,0.03139290,0.00662191,0.00352679,-0.10552320,-0.04994219,
 -0.00181141,0.59523123,0.00024642,-0.00015677,-0.00022761,0.00072304,-
 0.00513386,0.00193892,-0.00016459,-0.00746281,0.00098594,-0.00959886,0
 .00517231,0.00133147,0.00006379,0.00077915,0.00016314,0.00232654,0.002
 25371,0.00005407,0.00063002,0.00058058,0.00086117,0.02091172,0.0323826
 5,0.00376046,-0.00026463,-0.00022766,0.00041450,0.00002221,0.00002592,
 0.00001987,-0.00014550,0.00037023,-0.00013422,-0.00004943,-0.00025370,
 -0.00021247,0.00023375,0.00009955,-0.00008775,0.00023642,0.00066499,0.
 00007169,0.00005781,-0.00002247,0.00002888,-0.00002384,0.00013935,-0.0
 0002684,-0.00006553,0.00000750,0.00003076,0.01293376,-0.00103461,-0.00
 466488,-0.00056560,-0.00049221,0.00014942,-0.01240573,-0.01747847,-0.0
 0069939,0.00498334,-0.04031803,0.01175007,-0.02694865,-0.27357402,0.02
 845907,0.19068394,0.47529998,-0.00007300,0.00006947,0.00011432,-0.0007
 9702,-0.00058781,-0.00024092,0.00050024,0.00346376,0.00379326,-0.00072
 383,0.00016747,0.00022084,-0.00001160,0.00006531,-0.00012406,-0.001060
 06,-0.00013260,-0.00008329,0.00050603,-0.00024699,-0.00020970,-0.02152
 615,0.00677894,0.01370485,0.00025495,-0.00000550,-0.00021502,-0.000097
 43,0.00000419,0.00000561,-0.00008760,-0.00009807,0.00001702,-0.0000539
 8,-0.00006358,-0.00007921,-0.00014092,0.00002343,-0.00001709,0.0000091
 6,0.00008948,0.00013324,-0.00001628,0.00001894,0.00003100,0.00001286,-
 0.00000962,0.00001300,0.00003620,0.00002527,-0.00002467,0.00096034,0.0
 0037272,-0.00022634,0.00003285,-0.00008754,-0.00011533,-0.00215057,-0.
 00375288,-0.00073810,0.00166211,0.01102273,0.01769046,-0.00597649,0.02
 514592,-0.06695424,0.08399876,-0.03231930,0.08553016,-0.00054908,0.000
 31860,-0.00083715,-0.00179460,0.00387085,-0.00039682,-0.03215930,0.022
 78750,-0.01059128,0.00551520,-0.00167545,0.00011949,-0.00030317,-0.000
 30612,0.00004411,0.00054380,-0.00562675,0.00099022,-0.00033786,0.00020
 410,-0.00160874,-0.14720320,-0.01072768,-0.02089262,-0.00189121,0.0003
 1582,-0.00051673,0.00054361,-0.00005953,0.00001582,0.00103987,0.000313
 37,0.00048508,0.00012391,0.00056031,0.00011686,0.00009427,-0.00002365,
 0.00028529,0.00000786,-0.00120859,-0.00026231,0.00014489,-0.00007025,-
 0.00014388,-0.00006861,-0.00019240,0.00008842,-0.00002143,-0.00016331,
 0.00003177,-0.01132750,-0.00699856,0.00197158,0.00044239,0.00100789,0.
 00021368,0.04413162,0.04440034,0.00445602,-0.02848682,0.00423574,-0.00
 875333,-0.04299574,-0.06926086,0.00789931,-0.34531048,-0.05425033,-0.0
 5098063,0.69412268,-0.00064940,-0.00018433,0.00201747,-0.00689580,0.01
 725131,-0.00795294,0.01924960,0.03058004,0.00338738,0.03102315,-0.0155
 6979,-0.00332553,0.00033918,-0.00247403,-0.00109402,-0.01200740,-0.004
 64558,-0.00113738,-0.00572552,-0.00279117,-0.00356750,0.01568295,-0.12
 959503,0.01691403,0.00261041,0.00039629,-0.00196188,-0.00088599,-0.000
 01470,-0.00010842,-0.00065144,-0.00162306,-0.00005710,-0.00016622,-0.0
 0001856,0.00037187,-0.00132775,-0.00022673,0.00001518,-0.00046334,-0.0
 0058967,0.00013206,-0.00025060,0.00019804,0.00006590,0.00009959,-0.000
 23719,-0.00003327,0.00023557,0.00001683,-0.00016029,-0.04134136,-0.000
 09658,0.01353261,0.00103548,0.00011092,-0.00044971,0.00244361,-0.05064
 942,0.01014737,0.01111569,0.00248228,0.00274897,-0.04663699,-0.0075118
 4,-0.01139523,-0.03830084,-0.11831501,0.00016649,0.21056738,0.71654434
 ,0.00037820,-0.00019336,-0.00004119,0.00184649,-0.00126900,0.00186459,
 -0.01007746,0.00042944,-0.00604809,-0.00118280,0.00145488,-0.00029189,
 -0.00002272,0.00011817,0.00023363,-0.00003917,0.00041503,-0.00007105,0
 .00018373,0.00079262,0.00134956,-0.02553432,0.00718099,-0.07463465,-0.
 00055986,0.00056325,0.00013987,0.00022462,-0.00000493,-0.00004060,0.00
 026697,0.00032245,-0.00009269,-0.00009710,0.00003612,0.00000955,0.0002
 4734,0.00001009,0.00004323,0.00010419,-0.00007808,-0.00016777,0.000049
 44,-0.00000740,-0.00002842,-0.00004072,0.00002869,-0.00000802,-0.00008
 270,-0.00004145,0.00002508,0.00243381,0.00201401,-0.00189088,-0.000186
 17,0.00016743,0.00025729,0.01078915,0.01993521,0.00034833,-0.00929167,
 0.00034758,-0.00251830,0.00410510,-0.01813715,-0.01519286,-0.05396220,
 -0.00322297,-0.08192941,0.06259322,-0.05830534,0.24856821,-0.00012437,
 -0.00012190,0.00004823,-0.00010442,-0.00002010,0.00015741,-0.00059314,
 -0.00013562,0.00017446,-0.00016096,0.00029811,-0.00018992,0.00004236,0
 .00004834,-0.00001856,-0.00463676,-0.00383494,-0.00161470,0.00025357,0
 .00022887,-0.00005496,0.01142936,-0.00713707,0.00369337,-0.00113654,-0
 .00017296,0.00021795,0.00000774,0.00002127,-0.00002193,0.00009487,0.00
 016643,-0.00000638,-0.00007217,0.00001632,0.00003702,0.00022414,0.0000
 2761,0.00005378,-0.00014824,-0.00014465,-0.00019799,0.00006059,0.00000
 110,-0.00008745,-0.00008375,0.00008369,-0.00003688,-0.00003603,-0.0000
 4214,0.00000887,0.00024833,-0.00004030,-0.00004252,-0.00005507,0.00029
 269,0.00093766,-0.18156671,0.13416666,-0.06439278,-0.01134849,0.021432
 78,-0.00912555,-0.00155201,-0.00533619,-0.00301695,-0.00000265,0.00022
 205,0.00067678,-0.00032945,-0.00184005,-0.00076429,0.19152826,0.000080
 05,-0.00028814,-0.00001602,-0.00004324,-0.00048911,0.00011132,0.003785
 92,-0.00166836,0.00122383,-0.00064121,0.00060475,-0.00009626,0.0000306
 8,0.00004260,0.00008709,0.00058227,0.00180002,-0.00035656,-0.00030022,
 0.00001530,-0.00005123,0.02279730,-0.02446019,0.01113832,-0.00108746,0
 .00065499,0.00010390,0.00001640,0.00007963,-0.00008829,0.00004645,0.00
 022395,-0.00002587,-0.00011075,0.00008442,-0.00012699,0.00030654,0.000
 03970,0.00005132,0.00026328,-0.00018663,-0.00016220,0.00008031,-0.0000
 5693,0.00001934,0.00002603,0.00001475,0.00005405,-0.00005549,-0.000057
 83,0.00001538,0.00097389,-0.00001742,-0.00033502,-0.00056720,0.0004591
 0,0.00042953,0.12570503,-0.18689068,0.06249529,-0.00552122,0.00919148,
 -0.00143421,-0.00220540,0.00030878,0.00197051,0.00098303,0.00069129,-0
 .00039700,-0.00804111,0.00091151,-0.00167835,-0.13822777,0.20173682,0.
 00012881,0.00004925,-0.00011431,0.00024100,0.00043883,0.00048220,-0.00
 002165,0.00009028,-0.00157498,0.00009154,-0.00017417,-0.00014499,0.000
 02560,-0.00007354,-0.00015271,-0.00176535,-0.00206385,-0.00089418,-0.0
 0019179,0.00006424,-0.00001897,-0.00183113,0.00295561,0.00171627,-0.00
 032045,0.00007022,-0.00001981,0.00005661,0.00002360,0.00000427,-0.0000
 1163,-0.00003157,-0.00006037,0.00039697,0.00013596,0.00077783,0.000010
 16,-0.00005084,-0.00001244,-0.00061007,-0.00031990,-0.00039766,-0.0000
 7327,-0.00004062,-0.00012155,-0.00003154,0.00006800,-0.00013013,-0.000
 00315,0.00000122,0.00001701,-0.00014241,-0.00000048,0.00010053,0.00145
 680,0.00021490,-0.00041380,-0.06556135,0.06711372,-0.06923565,-0.00260
 304,0.00495117,0.00675316,-0.00255361,0.00073808,0.01106341,0.00009868
 ,-0.00046584,-0.00215712,0.00042279,-0.00019829,0.00333611,0.07152333,
 -0.07238676,0.05869116,0.00000302,-0.00002866,0.00004947,0.00000931,0.
 00008597,-0.00024020,0.00083930,-0.00154653,-0.00004939,0.00007044,-0.
 00008128,0.00007126,0.00000569,-0.00000154,0.00002496,-0.00004205,0.00
 029207,0.00005312,-0.00047416,-0.00011355,-0.00012282,-0.00473409,-0.0
 0026095,-0.00313189,0.00014638,-0.00003216,-0.00004072,-0.00003974,0.0
 0000058,0.00000085,-0.00004115,-0.00000364,-0.00000093,-0.00003803,-0.
 00006782,-0.00003574,-0.00003056,0.00000307,-0.00000623,0.00004626,0.0
 0012416,0.00004277,0.00000004,0.00001458,0.00000995,-0.00000776,0.0000
 1027,-0.00001258,0.00000358,0.00000300,0.00000021,-0.00012804,0.000038
 58,-0.00000121,-0.00001547,-0.00013774,-0.00001685,-0.00535147,-0.0282
 7653,0.00422876,-0.08530781,-0.09432431,0.00286489,0.01030622,0.015773
 26,-0.00089975,-0.00130428,0.00467735,-0.00140830,-0.00228413,0.000421
 02,-0.00057433,0.00042913,0.00055854,0.00137409,0.08645594,0.00001110,
 -0.00000216,0.00005014,-0.00006895,-0.00014909,-0.00004762,0.00069152,
 0.00009487,0.00055090,-0.00027393,0.00012878,0.00004891,0.00001174,0.0
 0002529,-0.00000016,-0.00026186,0.00015009,-0.00005571,0.00003284,0.00
 006100,0.00005349,-0.00113660,0.00346712,0.00057867,0.00012108,-0.0000
 1823,-0.00003048,-0.00002467,0.00000079,-0.00000079,-0.00003101,-0.000
 01050,-0.00002025,-0.00001510,-0.00004720,-0.00000394,-0.00002886,0.00
 000371,-0.00000859,0.00001011,0.00008226,0.00002834,-0.00000526,0.0000
 0812,0.00000756,0.00000043,0.00000892,-0.00000897,0.00000371,0.0000054
 7,-0.00000025,0.00035951,-0.00000159,-0.00013214,0.00001976,-0.0000790
 8,-0.00003762,0.00345073,-0.00273056,0.00110001,-0.09735247,-0.3119425
 2,0.02738138,-0.01673415,-0.01417776,-0.00082274,0.00296124,-0.0044998
 4,0.00158271,0.00365003,0.00054448,0.00071761,-0.00031422,0.00049140,-
 0.00121269,0.10465882,0.32574980,-0.00008424,0.00002070,0.00021518,-0.
 00057717,0.00008558,-0.00036059,-0.00031247,0.00027074,0.00239814,0.00
 020984,-0.00011450,-0.00001637,0.00001239,-0.00000659,-0.00002574,0.00
 000152,0.00010598,-0.00012663,0.00047480,0.00016025,0.00018822,-0.0035
 3166,0.00078322,0.00728933,-0.00001398,-0.00003273,0.00003154,-0.00004
 572,0.00001450,-0.00003416,0.00000603,-0.00003264,-0.00004557,0.000019
 53,-0.00000497,0.00005127,0.00000205,0.00000208,-0.00000752,-0.0000082
 8,-0.00002327,-0.00008204,0.00000445,-0.00000418,-0.00000278,-0.000003
 13,0.00001158,-0.00001029,0.00000532,-0.00000206,0.00000138,-0.0002095
 1,0.00004184,0.00004814,-0.00006611,0.00003939,0.00009835,-0.00174416,
 -0.00697981,-0.00063956,0.00349527,0.02905526,-0.02995323,0.00501917,0
 .00640624,0.00159623,-0.00122829,0.00196559,0.00103831,-0.00091848,-0.
 00024790,-0.00019690,0.00186171,-0.00118269,-0.00514480,-0.00329211,-0
 .02901670,0.02559807,0.00030496,0.00026358,0.00059578,-0.00038381,-0.0
 0008617,-0.00091664,0.00459070,-0.00043008,0.00184655,-0.00253817,0.00
 029944,0.00096314,0.00011380,0.00007262,-0.00004902,-0.00321130,0.0009
 3480,-0.00053473,-0.00088205,-0.00016704,-0.00010665,-0.00842576,-0.00
 219477,-0.00102797,0.00187597,-0.00032087,-0.00025427,-0.00040904,-0.0
 0000168,0.00002421,-0.00074794,-0.00058057,-0.00030880,0.00005956,-0.0
 0024658,0.00017913,-0.00044548,-0.00001449,-0.00022364,-0.00040923,0.0
 0054493,0.00008755,-0.00019913,0.00005606,0.00007397,0.00009458,0.0000
 6650,-0.00008573,0.00010326,0.00016863,-0.00002497,0.00354413,0.000279
 26,-0.00135982,0.00051434,-0.00050749,-0.00031837,0.00523088,0.0116755
 2,-0.00138522,-0.06776643,0.00843086,-0.02038858,-0.56446913,-0.077008
 60,-0.08940039,-0.05293529,-0.05569013,-0.00391736,0.02316970,0.003180
 99,0.00205642,-0.00225505,0.00003414,0.00002290,0.00086106,0.00126439,
 0.00022190,0.67330216,0.00007638,-0.00003954,-0.00005032,0.00028862,-0
 .00113757,0.00033250,0.00060955,0.00009907,-0.00002521,-0.00199775,0.0
 0109876,0.00021431,0.00002707,0.00016080,0.00007292,-0.00052007,0.0009
 8951,-0.00016852,0.00014168,0.00016525,0.00019538,-0.00522100,0.011557
 40,-0.00340000,0.00000449,0.00002496,-0.00010152,-0.00003455,0.0000015
 0,0.00001091,-0.00008668,0.00007322,-0.00004468,-0.00011255,-0.0001715
 2,-0.00011194,-0.00004171,0.00003036,-0.00002392,0.00013652,0.00031610
 ,0.00007079,0.00001325,0.00002465,0.00003103,-0.00000633,0.00005270,-0
 .00001981,-0.00000908,0.00000622,0.00000297,0.00276852,-0.00017361,-0.
 00081189,-0.00024834,-0.00026118,0.00006253,-0.00206713,-0.01252690,0.
 00182257,0.03058627,0.01567719,0.00790361,-0.07650153,-0.10847170,-0.0
 1076942,-0.07338962,-0.01988841,-0.00945117,0.01628063,-0.00522619,0.0
 0657432,0.00129745,0.00027990,-0.00009660,-0.00175915,0.00313774,-0.00
 136395,0.11783424,0.11911798,0.00004106,0.00003935,0.00011858,-0.00001
 668,0.00027706,-0.00036652,0.00102863,-0.00025544,-0.00016899,0.000015
 09,-0.00023902,0.00027183,-0.00000016,0.00001326,0.00001642,-0.0006575
 4,0.00006952,-0.00006169,-0.00025621,0.00001176,-0.00003851,-0.0008216
 5,-0.00279306,-0.00022633,0.00045409,-0.00007516,-0.00006553,-0.000085
 71,0.00000179,0.00000412,-0.00013259,-0.00011848,-0.00000974,-0.000011
 46,-0.00004286,-0.00003166,-0.00008008,-0.00000482,-0.00003450,-0.0000
 4012,0.00010349,0.00010203,-0.00003733,0.00001001,0.00002082,0.0000245
 4,-0.00000711,0.00000392,0.00002873,0.00003419,-0.00001814,0.00004547,
 0.00008141,-0.00019876,0.00008341,-0.00008544,-0.00011573,0.00110011,0
 .00501399,0.00237389,-0.02445446,0.00348351,0.01809217,-0.08915343,-0.
 01165727,-0.09217067,-0.00191599,-0.00446266,0.01506494,0.00006920,0.0
 0317345,0.00938541,0.00007221,-0.00055032,-0.00245416,0.00087220,-0.00
 056215,-0.00139000,0.11392867,0.00988759,0.05345276,0.00057139,0.00098
 515,-0.00087627,0.00331914,-0.01505606,0.00561056,-0.00397909,-0.00707
 607,-0.00140933,-0.04358721,0.01185689,0.01224684,0.00000662,0.0020464
 8,0.00041939,0.00067486,0.00468241,-0.00032694,0.00058570,0.00279538,0
 .00066892,0.02504695,0.02282373,-0.00376615,-0.00010105,-0.00014375,0.
 00042647,0.00014881,-0.00008420,0.00011128,-0.00036641,0.00021856,-0.0
 0048275,-0.00016098,-0.00045136,-0.00024585,0.00016794,0.00020196,-0.0
 0026980,0.00013938,0.00112023,0.00012239,-0.00000182,0.00002438,0.0000
 8830,0.00001635,0.00025668,-0.00005788,-0.00002010,0.00021903,0.000096
 70,0.01396917,0.00656731,-0.00801731,-0.00063821,-0.00076702,0.0000777
 7,-0.00844192,-0.00938744,-0.00255902,0.00722116,-0.00479555,0.0029420
 6,0.00538636,0.02476831,-0.00609784,-0.05551788,-0.07877936,0.00037093
 ,-0.15481721,-0.14086191,0.01713685,-0.00011254,0.00053121,-0.00012884
 ,0.00062235,-0.00099991,0.00070131,-0.00868731,-0.00806919,-0.00010002
 ,0.21855555,0.00027859,0.00044898,-0.00147166,0.00165017,-0.00910703,0
 .00477213,-0.01264226,-0.00654023,-0.00402960,-0.01880245,0.01617641,0
 .00246388,-0.00015491,0.00177354,0.00058985,0.00307430,0.00235189,-0.0
 0064433,0.00290631,0.00059901,0.00210755,0.00491507,-0.08407292,0.0219
 7953,-0.00199300,-0.00003325,0.00051805,0.00044080,0.00001504,0.000129
 38,0.00036487,0.00099732,0.00007054,-0.00011037,-0.00025515,-0.0004144
 1,0.00051535,0.00018531,-0.00003739,0.00049669,0.00073589,0.00006082,0
 .00017379,-0.00005008,-0.00000769,-0.00006754,0.00021886,-0.00000423,-
 0.00015428,-0.00000846,0.00009479,0.02833354,-0.01251726,-0.00895619,-
 0.00093304,-0.00038532,0.00036150,0.00685539,-0.00200459,0.00329966,0.
 00188712,-0.00509815,0.00084055,0.00812448,0.02055811,0.00003770,-0.05
 380438,-0.02960932,-0.00184477,-0.14990798,-0.42926717,0.04183013,-0.0
 0093548,-0.00351508,0.00020008,-0.00002739,-0.00030130,0.00004906,-0.0
 0785749,-0.00491668,-0.00134659,0.18737411,0.54362163,-0.00025554,-0.0
 0076542,0.00034097,0.00008366,0.00741671,-0.00443185,0.00250368,-0.001
 99986,-0.00432539,0.02163218,-0.00615974,0.00133291,-0.00026664,-0.000
 74447,0.00024061,-0.00202145,0.00214293,0.00137774,0.00021471,0.001383
 77,0.00026082,-0.00088566,0.02777188,0.01321904,0.00170573,0.00031097,
 -0.00032296,-0.00020382,0.00006253,0.00001304,-0.00004287,-0.00016496,
 0.00047245,-0.00023123,-0.00001498,-0.00000711,-0.00019338,-0.00017875
 ,0.00010837,-0.00005847,-0.00022033,0.00024944,-0.00008262,0.00008309,
 0.00006690,0.00002844,-0.00014323,0.00001875,0.00007444,-0.00003329,-0
 .00004518,-0.01402523,-0.00236903,-0.00342317,0.00021248,0.00012079,-0
 .00030956,-0.00459679,-0.00061793,0.00223457,0.00148500,0.00017904,-0.
 00158402,-0.00345974,0.00242123,0.01012668,-0.00168476,-0.00546109,0.0
 1575751,0.01609912,0.03732205,-0.08240813,0.00010808,0.00118788,0.0001
 0569,0.00024054,-0.00013889,-0.00051799,0.00030195,-0.00074252,-0.0015
 5597,-0.01668179,-0.06064836,0.05300583\\-0.00000505,-0.00001366,-0.00
 002016,0.00002221,-0.00001816,0.00000823,0.00001202,0.00000345,0.00002
 565,-0.00000520,0.00000541,-0.00001076,-0.00000318,0.00000395,0.000001
 55,0.00003801,0.00000278,-0.00001122,-0.00000675,-0.00000487,-0.000003
 45,-0.00000760,-0.00002148,-0.00001540,-0.00005258,0.00000119,0.000018
 33,0.00000325,-0.00000058,0.00000369,-0.00000285,0.00001580,0.00000511
 ,0.00000291,-0.00001494,-0.00001465,0.00000654,-0.00000270,0.00000005,
 -0.00001022,0.00000626,0.00001224,0.00000144,0.00000416,0.00000520,0.0
 0000017,0.00000164,0.00000636,0.00000096,-0.00000206,-0.00000005,0.000
 00229,0.00000630,0.00000349,0.00000664,0.00000247,-0.00000428,0.000011
 41,0.00001580,0.00000577,-0.00001523,0.00000797,-0.00000990,0.00001587
 ,-0.00002366,0.00001622,0.00000149,0.00001449,-0.00000753,-0.00000269,
 0.00002451,-0.00000158,-0.00000093,-0.00000403,-0.00000091,0.00000179,
 -0.00000047,-0.00000149,-0.00000780,0.00000349,-0.00000547,-0.00000692
 ,-0.00001305,-0.00000505\\\@
 The archive entry for this job was punched.


 ... THIS SEEMS PLAINLY ABSURD; BUT WHOEVER WISHES TO BECOME A 
 PHILOSOPHER MUST LEARN NOT TO BE FRIGHTENED BY ABSURDITIES.

                          -- BERTRAND RUSSELL
 Job cpu time:       0 days  9 hours 52 minutes 13.9 seconds.
 Elapsed time:       0 days  0 hours 14 minutes 56.7 seconds.
 File lengths (MBytes):  RWF=    600 Int=      0 D2E=      0 Chk=     20 Scr=      1
 Normal termination of Gaussian 16 at Tue Oct 22 01:13:10 2024.
