 Entering Gaussian System, Link 0=g16
 Input=PseudoUridineAmNallgPBE0aVDZ.gjf
 Output=PseudoUridineAmNallgPBE0aVDZ.log
 Initial command:
 /sw/contrib/chem-src/g16/c01/g16/l1.exe "/scr/Gau-27330.inp" -scrdir="/scr/"
 Entering Link 1 = /sw/contrib/chem-src/g16/c01/g16/l1.exe PID=     27332.
  
 Copyright (c) 1988-2019, Gaussian, Inc.  All Rights Reserved.
  
 This is part of the Gaussian(R) 16 program.  It is based on
 the Gaussian(R) 09 system (copyright 2009, Gaussian, Inc.),
 the Gaussian(R) 03 system (copyright 2003, Gaussian, Inc.),
 the Gaussian(R) 98 system (copyright 1998, Gaussian, Inc.),
 the Gaussian(R) 94 system (copyright 1995, Gaussian, Inc.),
 the Gaussian 92(TM) system (copyright 1992, Gaussian, Inc.),
 the Gaussian 90(TM) system (copyright 1990, Gaussian, Inc.),
 the Gaussian 88(TM) system (copyright 1988, Gaussian, Inc.),
 the Gaussian 86(TM) system (copyright 1986, Carnegie Mellon
 University), and the Gaussian 82(TM) system (copyright 1983,
 Carnegie Mellon University). Gaussian is a federally registered
 trademark of Gaussian, Inc.
  
 This software contains proprietary and confidential information,
 including trade secrets, belonging to Gaussian, Inc.
  
 This software is provided under written license and may be
 used, copied, transmitted, or stored only in accord with that
 written license.
  
 The following legend is applicable only to US Government
 contracts under FAR:
  
                    RESTRICTED RIGHTS LEGEND
  
 Use, reproduction and disclosure by the US Government is
 subject to restrictions as set forth in subparagraphs (a)
 and (c) of the Commercial Computer Software - Restricted
 Rights clause in FAR 52.227-19.
  
 Gaussian, Inc.
 340 Quinnipiac St., Bldg. 40, Wallingford CT 06492
  
  
 ---------------------------------------------------------------
 Warning -- This program may not be used in any manner that
 competes with the business of Gaussian, Inc. or will provide
 assistance to any competitor of Gaussian, Inc.  The licensee
 of this program is prohibited from giving any competitor of
 Gaussian, Inc. access to this program.  By using this program,
 the user acknowledges that Gaussian, Inc. is engaged in the
 business of creating and licensing software in the field of
 computational chemistry and represents and warrants to the
 licensee that it is not a competitor of Gaussian, Inc. and that
 it will not use this program in any manner prohibited above.
 ---------------------------------------------------------------
  

 Cite this work as:
 Gaussian 16, Revision C.01,
 M. J. Frisch, G. W. Trucks, H. B. Schlegel, G. E. Scuseria, 
 M. A. Robb, J. R. Cheeseman, G. Scalmani, V. Barone, 
 G. A. Petersson, H. Nakatsuji, X. Li, M. Caricato, A. V. Marenich, 
 J. Bloino, B. G. Janesko, R. Gomperts, B. Mennucci, H. P. Hratchian, 
 J. V. Ortiz, A. F. Izmaylov, J. L. Sonnenberg, D. Williams-Young, 
 F. Ding, F. Lipparini, F. Egidi, J. Goings, B. Peng, A. Petrone, 
 T. Henderson, D. Ranasinghe, V. G. Zakrzewski, J. Gao, N. Rega, 
 G. Zheng, W. Liang, M. Hada, M. Ehara, K. Toyota, R. Fukuda, 
 J. Hasegawa, M. Ishida, T. Nakajima, Y. Honda, O. Kitao, H. Nakai, 
 T. Vreven, K. Throssell, J. A. Montgomery, Jr., J. E. Peralta, 
 F. Ogliaro, M. J. Bearpark, J. J. Heyd, E. N. Brothers, K. N. Kudin, 
 V. N. Staroverov, T. A. Keith, R. Kobayashi, J. Normand, 
 K. Raghavachari, A. P. Rendell, J. C. Burant, S. S. Iyengar, 
 J. Tomasi, M. Cossi, J. M. Millam, M. Klene, C. Adamo, R. Cammi, 
 J. W. Ochterski, R. L. Martin, K. Morokuma, O. Farkas, 
 J. B. Foresman, and D. J. Fox, Gaussian, Inc., Wallingford CT, 2019.
 
 ******************************************
 Gaussian 16:  EM64L-G16RevC.01  3-Jul-2019
                27-Oct-2024 
 ******************************************
 %nprocshared=40
 Will use up to   40 processors via shared memory.
 %mem=50gb
 ------------------------------------------------------
 # PBE1PBE/aug-cc-pVDZ opt freq EmpiricalDispersion=GD3
 ------------------------------------------------------
 1/18=20,19=15,26=3,38=1/1,3;
 2/9=110,12=2,17=6,18=5,40=1/2;
 3/5=16,7=10,11=2,25=1,30=1,71=1,74=-13,124=31/1,2,3;
 4//1;
 5/5=2,38=5/2;
 6/7=2,8=2,9=2,10=2,28=1/1;
 7//1,2,3,16;
 1/18=20,19=15,26=3/3(2);
 2/9=110/2;
 99//99;
 2/9=110/2;
 3/5=16,7=10,11=2,25=1,30=1,71=1,74=-13,124=31/1,2,3;
 4/5=5,16=3,69=1/1;
 5/5=2,38=5/2;
 7//1,2,3,16;
 1/18=20,19=15,26=3/3(-5);
 2/9=110/2;
 6/7=2,8=2,9=2,10=2,19=2,28=1/1;
 99/9=1/99;
 ----
 blah
 ----
 Symbolic Z-matrix:
 Charge =  0 Multiplicity = 2
 C                     2.28265  -0.19914  -0.65508 
 C                     1.23528  -1.31961  -0.57088 
 C                     0.37329  -0.96555   0.65209 
 O                     1.86524  -2.57992  -0.32308 
 H                     0.62352  -1.37904  -1.48077 
 O                     1.06892   0.08807   1.34943 
 H                     0.35518  -1.86098   1.29574 
 C                    -1.02879  -0.554     0.36598 
 C                     2.33243   0.34588   0.77597 
 H                     1.93233   0.57909  -1.33901 
 O                     3.54302  -0.63228  -1.13783 
 C                     2.60931   1.83588   0.87292 
 H                     3.12832  -0.196     1.33355 
 O                     1.795     2.62311   0.04556 
 H                     3.66015   2.01237   0.58649 
 H                     2.49736   2.12607   1.93508 
 H                     3.85998  -1.28989  -0.50753 
 H                     2.33592  -2.81356  -1.12991 
 H                     0.94852   2.15924  -0.13542 
 C                    -2.12991  -1.24358   0.85889 
 N                    -3.41984  -0.98346   0.65549 
 C                    -3.71575   0.09748  -0.12324 
 N                    -2.63225   0.84123  -0.6252 
 C                    -1.29021   0.59606  -0.43583 
 H                    -1.93011  -2.11811   1.49378 
 H                    -2.87216   1.64818  -1.18624 
 O                    -4.85564   0.46947  -0.41469 
 O                    -0.43955   1.35252  -0.95972 
 

 GradGradGradGradGradGradGradGradGradGradGradGradGradGradGradGradGradGrad
 Berny optimization.
 Initialization pass.
                           ----------------------------
                           !    Initial Parameters    !
                           ! (Angstroms and Degrees)  !
 --------------------------                            --------------------------
 ! Name  Definition              Value          Derivative Info.                !
 --------------------------------------------------------------------------------
 ! R1    R(1,2)                  1.5361         estimate D2E/DX2                !
 ! R2    R(1,9)                  1.5321         estimate D2E/DX2                !
 ! R3    R(1,10)                 1.0937         estimate D2E/DX2                !
 ! R4    R(1,11)                 1.4175         estimate D2E/DX2                !
 ! R5    R(2,3)                  1.5375         estimate D2E/DX2                !
 ! R6    R(2,4)                  1.4306         estimate D2E/DX2                !
 ! R7    R(2,5)                  1.098          estimate D2E/DX2                !
 ! R8    R(3,6)                  1.4423         estimate D2E/DX2                !
 ! R9    R(3,7)                  1.1029         estimate D2E/DX2                !
 ! R10   R(3,8)                  1.489          estimate D2E/DX2                !
 ! R11   R(4,18)                 0.9629         estimate D2E/DX2                !
 ! R12   R(6,9)                  1.4113         estimate D2E/DX2                !
 ! R13   R(8,20)                 1.3896         estimate D2E/DX2                !
 ! R14   R(8,24)                 1.4261         estimate D2E/DX2                !
 ! R15   R(9,12)                 1.5186         estimate D2E/DX2                !
 ! R16   R(9,13)                 1.1126         estimate D2E/DX2                !
 ! R17   R(11,17)                0.9645         estimate D2E/DX2                !
 ! R18   R(12,14)                1.4026         estimate D2E/DX2                !
 ! R19   R(12,15)                1.1034         estimate D2E/DX2                !
 ! R20   R(12,16)                1.1068         estimate D2E/DX2                !
 ! R21   R(14,19)                0.9821         estimate D2E/DX2                !
 ! R22   R(20,21)                1.3315         estimate D2E/DX2                !
 ! R23   R(20,25)                1.099          estimate D2E/DX2                !
 ! R24   R(21,22)                1.3647         estimate D2E/DX2                !
 ! R25   R(22,23)                1.4068         estimate D2E/DX2                !
 ! R26   R(22,27)                1.234          estimate D2E/DX2                !
 ! R27   R(23,24)                1.3773         estimate D2E/DX2                !
 ! R28   R(23,26)                1.0117         estimate D2E/DX2                !
 ! R29   R(24,28)                1.2531         estimate D2E/DX2                !
 ! A1    A(2,1,9)              103.323          estimate D2E/DX2                !
 ! A2    A(2,1,10)             109.5675         estimate D2E/DX2                !
 ! A3    A(2,1,11)             113.7064         estimate D2E/DX2                !
 ! A4    A(9,1,10)             109.9606         estimate D2E/DX2                !
 ! A5    A(9,1,11)             113.4483         estimate D2E/DX2                !
 ! A6    A(10,1,11)            106.8144         estimate D2E/DX2                !
 ! A7    A(1,2,3)              104.9452         estimate D2E/DX2                !
 ! A8    A(1,2,4)              110.6009         estimate D2E/DX2                !
 ! A9    A(1,2,5)              111.9589         estimate D2E/DX2                !
 ! A10   A(3,2,4)              108.1776         estimate D2E/DX2                !
 ! A11   A(3,2,5)              111.0524         estimate D2E/DX2                !
 ! A12   A(4,2,5)              109.9491         estimate D2E/DX2                !
 ! A13   A(2,3,6)              106.4027         estimate D2E/DX2                !
 ! A14   A(2,3,7)              106.6452         estimate D2E/DX2                !
 ! A15   A(2,3,8)              116.0226         estimate D2E/DX2                !
 ! A16   A(6,3,7)              108.5927         estimate D2E/DX2                !
 ! A17   A(6,3,8)              110.1903         estimate D2E/DX2                !
 ! A18   A(7,3,8)              108.7283         estimate D2E/DX2                !
 ! A19   A(2,4,18)             106.4922         estimate D2E/DX2                !
 ! A20   A(3,6,9)              111.6407         estimate D2E/DX2                !
 ! A21   A(3,8,20)             122.7407         estimate D2E/DX2                !
 ! A22   A(3,8,24)             120.234          estimate D2E/DX2                !
 ! A23   A(20,8,24)            117.0238         estimate D2E/DX2                !
 ! A24   A(1,9,6)              106.5856         estimate D2E/DX2                !
 ! A25   A(1,9,12)             114.4931         estimate D2E/DX2                !
 ! A26   A(1,9,13)             108.5457         estimate D2E/DX2                !
 ! A27   A(6,9,12)             108.4531         estimate D2E/DX2                !
 ! A28   A(6,9,13)             110.3536         estimate D2E/DX2                !
 ! A29   A(12,9,13)            108.3873         estimate D2E/DX2                !
 ! A30   A(1,11,17)            106.1403         estimate D2E/DX2                !
 ! A31   A(9,12,14)            114.0275         estimate D2E/DX2                !
 ! A32   A(9,12,15)            108.3013         estimate D2E/DX2                !
 ! A33   A(9,12,16)            107.4632         estimate D2E/DX2                !
 ! A34   A(14,12,15)           108.06           estimate D2E/DX2                !
 ! A35   A(14,12,16)           111.1127         estimate D2E/DX2                !
 ! A36   A(15,12,16)           107.6692         estimate D2E/DX2                !
 ! A37   A(12,14,19)           110.1216         estimate D2E/DX2                !
 ! A38   A(8,20,21)            128.0627         estimate D2E/DX2                !
 ! A39   A(8,20,25)            117.1129         estimate D2E/DX2                !
 ! A40   A(21,20,25)           114.8237         estimate D2E/DX2                !
 ! A41   A(20,21,22)           116.8695         estimate D2E/DX2                !
 ! A42   A(21,22,23)           117.0877         estimate D2E/DX2                !
 ! A43   A(21,22,27)           125.0191         estimate D2E/DX2                !
 ! A44   A(23,22,27)           117.893          estimate D2E/DX2                !
 ! A45   A(22,23,24)           127.3934         estimate D2E/DX2                !
 ! A46   A(22,23,26)           115.9079         estimate D2E/DX2                !
 ! A47   A(24,23,26)           116.6985         estimate D2E/DX2                !
 ! A48   A(8,24,23)            113.5442         estimate D2E/DX2                !
 ! A49   A(8,24,28)            126.6853         estimate D2E/DX2                !
 ! A50   A(23,24,28)           119.7685         estimate D2E/DX2                !
 ! D1    D(9,1,2,3)             22.9028         estimate D2E/DX2                !
 ! D2    D(9,1,2,4)            -93.5383         estimate D2E/DX2                !
 ! D3    D(9,1,2,5)            143.467          estimate D2E/DX2                !
 ! D4    D(10,1,2,3)           -94.2582         estimate D2E/DX2                !
 ! D5    D(10,1,2,4)           149.3006         estimate D2E/DX2                !
 ! D6    D(10,1,2,5)            26.306          estimate D2E/DX2                !
 ! D7    D(11,1,2,3)           146.311          estimate D2E/DX2                !
 ! D8    D(11,1,2,4)            29.8698         estimate D2E/DX2                !
 ! D9    D(11,1,2,5)           -93.1248         estimate D2E/DX2                !
 ! D10   D(2,1,9,6)            -26.8922         estimate D2E/DX2                !
 ! D11   D(2,1,9,12)          -146.8008         estimate D2E/DX2                !
 ! D12   D(2,1,9,13)            91.9703         estimate D2E/DX2                !
 ! D13   D(10,1,9,6)            89.9918         estimate D2E/DX2                !
 ! D14   D(10,1,9,12)          -29.9168         estimate D2E/DX2                !
 ! D15   D(10,1,9,13)         -151.1456         estimate D2E/DX2                !
 ! D16   D(11,1,9,6)          -150.4706         estimate D2E/DX2                !
 ! D17   D(11,1,9,12)           89.6208         estimate D2E/DX2                !
 ! D18   D(11,1,9,13)          -31.6081         estimate D2E/DX2                !
 ! D19   D(2,1,11,17)          -61.4116         estimate D2E/DX2                !
 ! D20   D(9,1,11,17)           56.285          estimate D2E/DX2                !
 ! D21   D(10,1,11,17)         177.6034         estimate D2E/DX2                !
 ! D22   D(1,2,3,6)            -11.565          estimate D2E/DX2                !
 ! D23   D(1,2,3,7)           -127.3445         estimate D2E/DX2                !
 ! D24   D(1,2,3,8)            111.3974         estimate D2E/DX2                !
 ! D25   D(4,2,3,6)            106.5309         estimate D2E/DX2                !
 ! D26   D(4,2,3,7)             -9.2486         estimate D2E/DX2                !
 ! D27   D(4,2,3,8)           -130.5067         estimate D2E/DX2                !
 ! D28   D(5,2,3,6)           -132.7268         estimate D2E/DX2                !
 ! D29   D(5,2,3,7)            111.4936         estimate D2E/DX2                !
 ! D30   D(5,2,3,8)             -9.7645         estimate D2E/DX2                !
 ! D31   D(1,2,4,18)           -70.3291         estimate D2E/DX2                !
 ! D32   D(3,2,4,18)           175.2517         estimate D2E/DX2                !
 ! D33   D(5,2,4,18)            53.8251         estimate D2E/DX2                !
 ! D34   D(2,3,6,9)             -5.7532         estimate D2E/DX2                !
 ! D35   D(7,3,6,9)            108.7071         estimate D2E/DX2                !
 ! D36   D(8,3,6,9)           -132.3037         estimate D2E/DX2                !
 ! D37   D(2,3,8,20)           119.7304         estimate D2E/DX2                !
 ! D38   D(2,3,8,24)           -60.7261         estimate D2E/DX2                !
 ! D39   D(6,3,8,20)          -119.3152         estimate D2E/DX2                !
 ! D40   D(6,3,8,24)            60.2282         estimate D2E/DX2                !
 ! D41   D(7,3,8,20)            -0.4088         estimate D2E/DX2                !
 ! D42   D(7,3,8,24)           179.1347         estimate D2E/DX2                !
 ! D43   D(3,6,9,1)             20.8714         estimate D2E/DX2                !
 ! D44   D(3,6,9,12)           144.6106         estimate D2E/DX2                !
 ! D45   D(3,6,9,13)           -96.8038         estimate D2E/DX2                !
 ! D46   D(3,8,20,21)         -178.9226         estimate D2E/DX2                !
 ! D47   D(3,8,20,25)            0.7659         estimate D2E/DX2                !
 ! D48   D(24,8,20,21)           1.5202         estimate D2E/DX2                !
 ! D49   D(24,8,20,25)        -178.7913         estimate D2E/DX2                !
 ! D50   D(3,8,24,23)          179.2834         estimate D2E/DX2                !
 ! D51   D(3,8,24,28)           -0.1941         estimate D2E/DX2                !
 ! D52   D(20,8,24,23)          -1.1477         estimate D2E/DX2                !
 ! D53   D(20,8,24,28)         179.3748         estimate D2E/DX2                !
 ! D54   D(1,9,12,14)           49.5754         estimate D2E/DX2                !
 ! D55   D(1,9,12,15)          -70.753          estimate D2E/DX2                !
 ! D56   D(1,9,12,16)          173.195          estimate D2E/DX2                !
 ! D57   D(6,9,12,14)          -69.2864         estimate D2E/DX2                !
 ! D58   D(6,9,12,15)          170.3853         estimate D2E/DX2                !
 ! D59   D(6,9,12,16)           54.3333         estimate D2E/DX2                !
 ! D60   D(13,9,12,14)         170.8913         estimate D2E/DX2                !
 ! D61   D(13,9,12,15)          50.563          estimate D2E/DX2                !
 ! D62   D(13,9,12,16)         -65.4891         estimate D2E/DX2                !
 ! D63   D(9,12,14,19)          25.752          estimate D2E/DX2                !
 ! D64   D(15,12,14,19)        146.2154         estimate D2E/DX2                !
 ! D65   D(16,12,14,19)        -95.8718         estimate D2E/DX2                !
 ! D66   D(8,20,21,22)          -0.5564         estimate D2E/DX2                !
 ! D67   D(25,20,21,22)        179.7491         estimate D2E/DX2                !
 ! D68   D(20,21,22,23)         -0.6302         estimate D2E/DX2                !
 ! D69   D(20,21,22,27)        179.5478         estimate D2E/DX2                !
 ! D70   D(21,22,23,24)          0.8863         estimate D2E/DX2                !
 ! D71   D(21,22,23,26)       -178.934          estimate D2E/DX2                !
 ! D72   D(27,22,23,24)       -179.2786         estimate D2E/DX2                !
 ! D73   D(27,22,23,26)          0.9012         estimate D2E/DX2                !
 ! D74   D(22,23,24,8)           0.058          estimate D2E/DX2                !
 ! D75   D(22,23,24,28)        179.5753         estimate D2E/DX2                !
 ! D76   D(26,23,24,8)         179.877          estimate D2E/DX2                !
 ! D77   D(26,23,24,28)         -0.6057         estimate D2E/DX2                !
 --------------------------------------------------------------------------------
 Trust Radius=3.00D-01 FncErr=1.00D-07 GrdErr=1.00D-06 EigMax=2.50D+02 EigMin=1.00D-04
 Number of steps in this run=    166 maximum allowed number of steps=    168.
 GradGradGradGradGradGradGradGradGradGradGradGradGradGradGradGradGradGrad

                          Input orientation:                          
 ---------------------------------------------------------------------
 Center     Atomic      Atomic             Coordinates (Angstroms)
 Number     Number       Type             X           Y           Z
 ---------------------------------------------------------------------
      1          6           0        2.282651   -0.199141   -0.655075
      2          6           0        1.235283   -1.319610   -0.570877
      3          6           0        0.373286   -0.965553    0.652085
      4          8           0        1.865239   -2.579921   -0.323084
      5          1           0        0.623519   -1.379036   -1.480772
      6          8           0        1.068918    0.088067    1.349426
      7          1           0        0.355175   -1.860984    1.295740
      8          6           0       -1.028791   -0.553996    0.365978
      9          6           0        2.332434    0.345884    0.775968
     10          1           0        1.932327    0.579090   -1.339011
     11          8           0        3.543017   -0.632282   -1.137834
     12          6           0        2.609310    1.835876    0.872918
     13          1           0        3.128323   -0.195999    1.333546
     14          8           0        1.794996    2.623108    0.045560
     15          1           0        3.660145    2.012371    0.586487
     16          1           0        2.497363    2.126074    1.935075
     17          1           0        3.859978   -1.289893   -0.507530
     18          1           0        2.335916   -2.813562   -1.129906
     19          1           0        0.948515    2.159243   -0.135423
     20          6           0       -2.129914   -1.243577    0.858893
     21          7           0       -3.419841   -0.983459    0.655487
     22          6           0       -3.715749    0.097479   -0.123244
     23          7           0       -2.632248    0.841231   -0.625199
     24          6           0       -1.290208    0.596057   -0.435825
     25          1           0       -1.930111   -2.118112    1.493780
     26          1           0       -2.872156    1.648181   -1.186243
     27          8           0       -4.855640    0.469470   -0.414687
     28          8           0       -0.439553    1.352522   -0.959718
 ---------------------------------------------------------------------
                    Distance matrix (angstroms):
                    1          2          3          4          5
     1  C    0.000000
     2  C    1.536073   0.000000
     3  C    2.437566   1.537541   0.000000
     4  O    2.439788   1.430605   2.404800   0.000000
     5  H    2.196963   1.098042   2.186930   2.079479   0.000000
     6  O    2.360860   2.386796   1.442326   3.248011   3.218818
     7  H    3.206644   2.133526   1.102913   2.327607   2.830778
     8  C    3.483406   2.567079   1.488978   3.599248   2.611763
     9  C    1.532127   2.406575   2.360821   3.160146   3.314908
    10  H    1.093681   2.163553   2.963274   3.319030   2.359519
    11  O    1.417459   2.473762   3.655417   2.696675   3.032939
    12  C    2.565690   3.732236   3.591180   4.635011   4.451840
    13  H    2.160968   2.910830   2.940549   3.165895   3.948925
    14  O    2.948523   4.029677   3.907380   5.216545   4.440631
    15  H    2.886131   4.280367   4.435739   5.013796   4.999630
    16  H    3.487349   4.443577   3.964331   5.257875   5.240715
    17  H    1.923401   2.625628   3.688756   2.382683   3.380801
    18  H    2.657724   1.937988   3.231493   0.962853   2.261255
    19  H    2.758973   3.517709   3.273440   4.830660   3.799343
    20  C    4.780552   3.657126   2.527069   4.375401   3.615768
    21  N    5.903486   4.825676   3.793171   5.606992   4.590081
    22  C    6.029231   5.169259   4.295507   6.193209   4.780400
    23  N    5.023893   4.430573   3.732179   5.658882   4.032569
    24  C    3.666842   3.172716   2.527724   4.478436   2.941982
    25  H    5.103664   3.862659   2.709701   4.233077   3.989388
    26  H    5.501525   5.104656   4.554553   6.408182   4.633631
    27  O    7.173564   6.350161   5.526207   7.380880   5.880025
    28  O    3.148152   3.177509   2.938042   4.602334   2.977084
                    6          7          8          9         10
     6  O    0.000000
     7  H    2.076322   0.000000
     8  C    2.404121   2.118499   0.000000
     9  C    1.411310   3.008319   3.503671   0.000000
    10  H    2.866055   3.922153   3.599874   2.165088   0.000000
    11  O    3.581415   4.194559   4.813420   2.466771   2.025393
    12  C    2.377962   4.350480   4.382266   1.518597   2.632574
    13  H    2.078965   3.234804   4.283217   1.112641   3.028817
    14  O    2.941715   4.872691   4.262679   2.451139   2.472631
    15  H    3.316546   5.140890   5.349858   2.139135   2.957565
    16  H    2.556739   4.571034   4.698787   2.130682   3.664978
    17  H    3.624510   3.982659   5.020421   2.580024   2.810747
    18  H    4.021420   3.273301   4.320250   3.689779   3.422966
    19  H    2.551283   4.308423   3.394526   2.456448   2.216618
    20  C    3.499489   2.597632   1.389590   4.737701   4.965350
    21  N    4.666763   3.928195   2.446502   5.905111   5.921595
    22  C    5.006185   4.735136   2.807757   6.119706   5.797482
    23  N    4.262045   4.462810   2.345243   5.182346   4.627482
    24  C    3.001775   3.426755   1.426131   3.828128   3.346754
    25  H    3.725888   2.308217   2.128561   4.975522   5.497093
    26  H    4.939194   5.374955   3.264501   5.712618   4.924363
    27  O    6.193380   5.958957   4.037536   7.287067   6.851488
    28  O    3.034218   4.005659   2.395722   3.421964   2.523465
                   11         12         13         14         15
    11  O    0.000000
    12  C    3.317640   0.000000
    13  H    2.543626   2.147107   0.000000
    14  O    3.879892   1.402627   3.374023   0.000000
    15  H    3.159302   1.103380   2.391198   2.035776   0.000000
    16  H    4.259658   1.106763   2.480317   2.076205   1.784287
    17  H    0.964469   3.638714   2.263070   4.458883   3.484502
    18  H    2.493018   5.069844   3.680780   5.588532   5.290484
    19  H    3.940670   1.969659   3.529391   0.982067   2.809922
    20  C    6.045060   5.651856   5.382543   5.569352   6.648322
    21  N    7.198661   6.659323   6.630106   6.369761   7.688040
    22  C    7.365570   6.634812   7.003548   6.064289   7.653388
    23  N    6.369296   5.541444   6.172253   4.819283   6.514136
    24  C    5.036040   4.296068   4.825085   3.722788   5.249482
    25  H    6.252057   6.051928   5.413682   6.201043   7.009639
    26  H    6.808620   5.858485   6.764324   4.924442   6.778360
    27  O    8.501426   7.697433   8.200173   7.005779   8.712146
    28  O    4.453317   3.589951   4.515165   2.760105   4.430990
                   16         17         18         19         20
    16  H    0.000000
    17  H    4.414960   0.000000
    18  H    5.815512   2.243142   0.000000
    19  H    2.585922   4.528976   5.257629   0.000000
    20  C    5.824466   6.143945   5.134570   4.695165   0.000000
    21  N    6.805868   7.378501   6.298067   5.439177   1.331521
    22  C    6.852345   7.711298   6.790448   5.099645   2.297367
    23  N    5.875265   6.834072   6.188287   3.846934   2.607929
    24  C    4.723115   5.485104   5.025537   2.746939   2.401178
    25  H    6.149015   6.181935   5.056319   5.407084   1.099006
    26  H    6.229185   7.376622   6.858159   3.995364   3.618808
    27  O    7.895085   8.891905   7.937778   6.051573   3.462097
    28  O    4.195675   5.066833   5.008837   1.804714   3.592269
                   21         22         23         24         25
    21  N    0.000000
    22  C    1.364702   0.000000
    23  N    2.364308   1.406805   0.000000
    24  C    2.867258   2.495904   1.377332   0.000000
    25  H    2.051699   3.272936   3.706856   3.391101   0.000000
    26  H    3.258444   2.060653   1.011679   2.042707   4.717514
    27  O    2.306034   1.233964   2.264066   3.567741   4.347016
    28  O    4.116772   3.606700   2.276232   1.253123   4.504078
                   26         27         28
    26  H    0.000000
    27  O    2.432872   0.000000
    28  O    2.460952   4.536371   0.000000
 Stoichiometry    C9H11N2O6(2)
 Framework group  C1[X(C9H11N2O6)]
 Deg. of freedom    78
 Full point group                 C1      NOp   1
 Largest Abelian subgroup         C1      NOp   1
 Largest concise Abelian subgroup C1      NOp   1
                         Standard orientation:                         
 ---------------------------------------------------------------------
 Center     Atomic      Atomic             Coordinates (Angstroms)
 Number     Number       Type             X           Y           Z
 ---------------------------------------------------------------------
      1          6           0        2.282651   -0.199141   -0.655075
      2          6           0        1.235283   -1.319610   -0.570877
      3          6           0        0.373286   -0.965553    0.652085
      4          8           0        1.865239   -2.579921   -0.323084
      5          1           0        0.623519   -1.379036   -1.480772
      6          8           0        1.068918    0.088067    1.349426
      7          1           0        0.355175   -1.860984    1.295740
      8          6           0       -1.028791   -0.553996    0.365978
      9          6           0        2.332434    0.345884    0.775968
     10          1           0        1.932327    0.579090   -1.339011
     11          8           0        3.543017   -0.632282   -1.137834
     12          6           0        2.609310    1.835876    0.872918
     13          1           0        3.128323   -0.195999    1.333546
     14          8           0        1.794996    2.623108    0.045560
     15          1           0        3.660145    2.012371    0.586487
     16          1           0        2.497363    2.126074    1.935075
     17          1           0        3.859978   -1.289893   -0.507530
     18          1           0        2.335916   -2.813562   -1.129906
     19          1           0        0.948515    2.159243   -0.135423
     20          6           0       -2.129914   -1.243577    0.858893
     21          7           0       -3.419841   -0.983459    0.655487
     22          6           0       -3.715749    0.097479   -0.123244
     23          7           0       -2.632248    0.841231   -0.625199
     24          6           0       -1.290208    0.596057   -0.435825
     25          1           0       -1.930111   -2.118112    1.493780
     26          1           0       -2.872156    1.648181   -1.186243
     27          8           0       -4.855640    0.469470   -0.414687
     28          8           0       -0.439553    1.352522   -0.959718
 ---------------------------------------------------------------------
 Rotational constants (GHZ):           0.9070578           0.3050162           0.2615172
 Standard basis: Aug-CC-pVDZ (5D, 7F)
 There are   524 symmetry adapted cartesian basis functions of A   symmetry.
 There are   490 symmetry adapted basis functions of A   symmetry.
   490 basis functions,   852 primitive gaussians,   524 cartesian basis functions
    64 alpha electrons       63 beta electrons
       nuclear repulsion energy      1304.9730982160 Hartrees.
 NAtoms=   28 NActive=   28 NUniq=   28 SFac= 1.00D+00 NAtFMM=   60 NAOKFM=F Big=F
 Integral buffers will be    131072 words long.
 Raffenetti 2 integral format.
 Two-electron integral symmetry is turned on.
 Nuclear repulsion after empirical dispersion term =     1304.9532213140 Hartrees.
 One-electron integrals computed using PRISM.
 NBasis=   490 RedAO= T EigKep=  2.50D-06  NBF=   490
 NBsUse=   490 1.00D-06 EigRej= -1.00D+00 NBFU=   490
 ExpMin= 2.97D-02 ExpMax= 1.17D+04 ExpMxC= 4.01D+02 IAcc=3 IRadAn=         5 AccDes= 0.00D+00
 Harris functional with IExCor= 1009 and IRadAn=       5 diagonalized for initial guess.
 HarFok:  IExCor= 1009 AccDes= 0.00D+00 IRadAn=         5 IDoV= 1 UseB2=F ITyADJ=14
 ICtDFT=  3500011 ScaDFX=  1.000000  1.000000  1.000000  1.000000
 FoFCou: FMM=F IPFlag=           0 FMFlag=      100000 FMFlg1=           0
         NFxFlg=           0 DoJE=T BraDBF=F KetDBF=T FulRan=T
         wScrn=  0.000000 ICntrl=       500 IOpCl=  0 I1Cent=   200000004 NGrid=           0
         NMat0=    1 NMatS0=      1 NMatT0=    0 NMatD0=    1 NMtDS0=    0 NMtDT0=    0
 Petite list used in FoFCou.
 Initial guess <Sx>= 0.0000 <Sy>= 0.0000 <Sz>= 0.5000 <S**2>= 0.7500 S= 0.5000
 Requested convergence on RMS density matrix=1.00D-08 within 128 cycles.
 Requested convergence on MAX density matrix=1.00D-06.
 Requested convergence on             energy=1.00D-06.
 No special actions if energy rises.
 Restarting incremental Fock formation.
 SCF Done:  E(UPBE1PBE) =  -909.551148470     A.U. after   22 cycles
            NFock= 22  Conv=0.62D-08     -V/T= 2.0054
 <Sx>= 0.0000 <Sy>= 0.0000 <Sz>= 0.5000 <S**2>= 0.7851 S= 0.5174
 <L.S>= 0.000000000000E+00
 Annihilation of the first spin contaminant:
 S**2 before annihilation     0.7851,   after     0.7507

 **********************************************************************

            Population analysis using the SCF Density.

 **********************************************************************

 Orbital symmetries:
 Alpha Orbitals:
       Occupied  (A) (A) (A) (A) (A) (A) (A) (A) (A) (A) (A) (A)
                 (A) (A) (A) (A) (A) (A) (A) (A) (A) (A) (A) (A)
                 (A) (A) (A) (A) (A) (A) (A) (A) (A) (A) (A) (A)
                 (A) (A) (A) (A) (A) (A) (A) (A) (A) (A) (A) (A)
                 (A) (A) (A) (A) (A) (A) (A) (A) (A) (A) (A) (A)
                 (A) (A) (A) (A)
       Virtual   (A) (A) (A) (A) (A) (A) (A) (A) (A) (A) (A) (A)
                 (A) (A) (A) (A) (A) (A) (A) (A) (A) (A) (A) (A)
                 (A) (A) (A) (A) (A) (A) (A) (A) (A) (A) (A) (A)
                 (A) (A) (A) (A) (A) (A) (A) (A) (A) (A) (A) (A)
                 (A) (A) (A) (A) (A) (A) (A) (A) (A) (A) (A) (A)
                 (A) (A) (A) (A) (A) (A) (A) (A) (A) (A) (A) (A)
                 (A) (A) (A) (A) (A) (A) (A) (A) (A) (A) (A) (A)
                 (A) (A) (A) (A) (A) (A) (A) (A) (A) (A) (A) (A)
                 (A) (A) (A) (A) (A) (A) (A) (A) (A) (A) (A) (A)
                 (A) (A) (A) (A) (A) (A) (A) (A) (A) (A) (A) (A)
                 (A) (A) (A) (A) (A) (A) (A) (A) (A) (A) (A) (A)
                 (A) (A) (A) (A) (A) (A) (A) (A) (A) (A) (A) (A)
                 (A) (A) (A) (A) (A) (A) (A) (A) (A) (A) (A) (A)
                 (A) (A) (A) (A) (A) (A) (A) (A) (A) (A) (A) (A)
                 (A) (A) (A) (A) (A) (A) (A) (A) (A) (A) (A) (A)
                 (A) (A) (A) (A) (A) (A) (A) (A) (A) (A) (A) (A)
                 (A) (A) (A) (A) (A) (A) (A) (A) (A) (A) (A) (A)
                 (A) (A) (A) (A) (A) (A) (A) (A) (A) (A) (A) (A)
                 (A) (A) (A) (A) (A) (A) (A) (A) (A) (A) (A) (A)
                 (A) (A) (A) (A) (A) (A) (A) (A) (A) (A) (A) (A)
                 (A) (A) (A) (A) (A) (A) (A) (A) (A) (A) (A) (A)
                 (A) (A) (A) (A) (A) (A) (A) (A) (A) (A) (A) (A)
                 (A) (A) (A) (A) (A) (A) (A) (A) (A) (A) (A) (A)
                 (A) (A) (A) (A) (A) (A) (A) (A) (A) (A) (A) (A)
                 (A) (A) (A) (A) (A) (A) (A) (A) (A) (A) (A) (A)
                 (A) (A) (A) (A) (A) (A) (A) (A) (A) (A) (A) (A)
                 (A) (A) (A) (A) (A) (A) (A) (A) (A) (A) (A) (A)
                 (A) (A) (A) (A) (A) (A) (A) (A) (A) (A) (A) (A)
                 (A) (A) (A) (A) (A) (A) (A) (A) (A) (A) (A) (A)
                 (A) (A) (A) (A) (A) (A) (A) (A) (A) (A) (A) (A)
                 (A) (A) (A) (A) (A) (A) (A) (A) (A) (A) (A) (A)
                 (A) (A) (A) (A) (A) (A) (A) (A) (A) (A) (A) (A)
                 (A) (A) (A) (A) (A) (A) (A) (A) (A) (A) (A) (A)
                 (A) (A) (A) (A) (A) (A) (A) (A) (A) (A) (A) (A)
                 (A) (A) (A) (A) (A) (A) (A) (A) (A) (A) (A) (A)
                 (A) (A) (A) (A) (A) (A)
 Beta  Orbitals:
       Occupied  (A) (A) (A) (A) (A) (A) (A) (A) (A) (A) (A) (A)
                 (A) (A) (A) (A) (A) (A) (A) (A) (A) (A) (A) (A)
                 (A) (A) (A) (A) (A) (A) (A) (A) (A) (A) (A) (A)
                 (A) (A) (A) (A) (A) (A) (A) (A) (A) (A) (A) (A)
                 (A) (A) (A) (A) (A) (A) (A) (A) (A) (A) (A) (A)
                 (A) (A) (A)
       Virtual   (A) (A) (A) (A) (A) (A) (A) (A) (A) (A) (A) (A)
                 (A) (A) (A) (A) (A) (A) (A) (A) (A) (A) (A) (A)
                 (A) (A) (A) (A) (A) (A) (A) (A) (A) (A) (A) (A)
                 (A) (A) (A) (A) (A) (A) (A) (A) (A) (A) (A) (A)
                 (A) (A) (A) (A) (A) (A) (A) (A) (A) (A) (A) (A)
                 (A) (A) (A) (A) (A) (A) (A) (A) (A) (A) (A) (A)
                 (A) (A) (A) (A) (A) (A) (A) (A) (A) (A) (A) (A)
                 (A) (A) (A) (A) (A) (A) (A) (A) (A) (A) (A) (A)
                 (A) (A) (A) (A) (A) (A) (A) (A) (A) (A) (A) (A)
                 (A) (A) (A) (A) (A) (A) (A) (A) (A) (A) (A) (A)
                 (A) (A) (A) (A) (A) (A) (A) (A) (A) (A) (A) (A)
                 (A) (A) (A) (A) (A) (A) (A) (A) (A) (A) (A) (A)
                 (A) (A) (A) (A) (A) (A) (A) (A) (A) (A) (A) (A)
                 (A) (A) (A) (A) (A) (A) (A) (A) (A) (A) (A) (A)
                 (A) (A) (A) (A) (A) (A) (A) (A) (A) (A) (A) (A)
                 (A) (A) (A) (A) (A) (A) (A) (A) (A) (A) (A) (A)
                 (A) (A) (A) (A) (A) (A) (A) (A) (A) (A) (A) (A)
                 (A) (A) (A) (A) (A) (A) (A) (A) (A) (A) (A) (A)
                 (A) (A) (A) (A) (A) (A) (A) (A) (A) (A) (A) (A)
                 (A) (A) (A) (A) (A) (A) (A) (A) (A) (A) (A) (A)
                 (A) (A) (A) (A) (A) (A) (A) (A) (A) (A) (A) (A)
                 (A) (A) (A) (A) (A) (A) (A) (A) (A) (A) (A) (A)
                 (A) (A) (A) (A) (A) (A) (A) (A) (A) (A) (A) (A)
                 (A) (A) (A) (A) (A) (A) (A) (A) (A) (A) (A) (A)
                 (A) (A) (A) (A) (A) (A) (A) (A) (A) (A) (A) (A)
                 (A) (A) (A) (A) (A) (A) (A) (A) (A) (A) (A) (A)
                 (A) (A) (A) (A) (A) (A) (A) (A) (A) (A) (A) (A)
                 (A) (A) (A) (A) (A) (A) (A) (A) (A) (A) (A) (A)
                 (A) (A) (A) (A) (A) (A) (A) (A) (A) (A) (A) (A)
                 (A) (A) (A) (A) (A) (A) (A) (A) (A) (A) (A) (A)
                 (A) (A) (A) (A) (A) (A) (A) (A) (A) (A) (A) (A)
                 (A) (A) (A) (A) (A) (A) (A) (A) (A) (A) (A) (A)
                 (A) (A) (A) (A) (A) (A) (A) (A) (A) (A) (A) (A)
                 (A) (A) (A) (A) (A) (A) (A) (A) (A) (A) (A) (A)
                 (A) (A) (A) (A) (A) (A) (A) (A) (A) (A) (A) (A)
                 (A) (A) (A) (A) (A) (A) (A)
 The electronic state is 2-A.
 Alpha  occ. eigenvalues --  -19.26696 -19.26558 -19.25576 -19.25435 -19.25426
 Alpha  occ. eigenvalues --  -19.20954 -14.48389 -14.46732 -10.40440 -10.39491
 Alpha  occ. eigenvalues --  -10.34083 -10.33549 -10.33045 -10.32455 -10.30322
 Alpha  occ. eigenvalues --  -10.30101 -10.27839  -1.14167  -1.12385  -1.11321
 Alpha  occ. eigenvalues --   -1.09620  -1.07584  -1.04306  -1.03503  -0.97884
 Alpha  occ. eigenvalues --   -0.89666  -0.81927  -0.80394  -0.74010  -0.72151
 Alpha  occ. eigenvalues --   -0.69666  -0.65698  -0.63683  -0.61642  -0.60612
 Alpha  occ. eigenvalues --   -0.57380  -0.56604  -0.54457  -0.53791  -0.53093
 Alpha  occ. eigenvalues --   -0.51872  -0.50339  -0.49982  -0.48550  -0.47548
 Alpha  occ. eigenvalues --   -0.47224  -0.46243  -0.44661  -0.43848  -0.43094
 Alpha  occ. eigenvalues --   -0.41758  -0.41235  -0.38122  -0.36564  -0.35998
 Alpha  occ. eigenvalues --   -0.35735  -0.34673  -0.34189  -0.33924  -0.32886
 Alpha  occ. eigenvalues --   -0.32250  -0.30360  -0.29668  -0.27760
 Alpha virt. eigenvalues --   -0.07944  -0.03627  -0.02073  -0.00790  -0.00319
 Alpha virt. eigenvalues --    0.00508   0.01797   0.02637   0.02814   0.03145
 Alpha virt. eigenvalues --    0.03567   0.04546   0.05072   0.05566   0.05629
 Alpha virt. eigenvalues --    0.05716   0.06561   0.07113   0.07384   0.07484
 Alpha virt. eigenvalues --    0.08060   0.08538   0.08757   0.08838   0.09487
 Alpha virt. eigenvalues --    0.09509   0.10148   0.10492   0.11090   0.11314
 Alpha virt. eigenvalues --    0.11763   0.11810   0.12074   0.12439   0.12728
 Alpha virt. eigenvalues --    0.13112   0.13701   0.13871   0.14166   0.14412
 Alpha virt. eigenvalues --    0.14850   0.15092   0.15691   0.15721   0.16743
 Alpha virt. eigenvalues --    0.16911   0.17385   0.17903   0.18306   0.18635
 Alpha virt. eigenvalues --    0.18754   0.19500   0.19884   0.20102   0.20607
 Alpha virt. eigenvalues --    0.20738   0.21303   0.21823   0.22240   0.22399
 Alpha virt. eigenvalues --    0.22692   0.22931   0.23404   0.23548   0.23982
 Alpha virt. eigenvalues --    0.24394   0.24573   0.25187   0.25512   0.25780
 Alpha virt. eigenvalues --    0.25961   0.26290   0.26412   0.26752   0.26872
 Alpha virt. eigenvalues --    0.27131   0.27762   0.28387   0.28726   0.29224
 Alpha virt. eigenvalues --    0.29608   0.29859   0.30039   0.30490   0.30567
 Alpha virt. eigenvalues --    0.30996   0.31412   0.32011   0.32169   0.32844
 Alpha virt. eigenvalues --    0.33088   0.33375   0.33495   0.34203   0.34737
 Alpha virt. eigenvalues --    0.35359   0.35772   0.36121   0.36639   0.37086
 Alpha virt. eigenvalues --    0.37655   0.37773   0.37964   0.38895   0.39294
 Alpha virt. eigenvalues --    0.39506   0.40358   0.40640   0.41102   0.41753
 Alpha virt. eigenvalues --    0.42299   0.42677   0.43218   0.43742   0.44410
 Alpha virt. eigenvalues --    0.44591   0.44933   0.45375   0.46026   0.46937
 Alpha virt. eigenvalues --    0.47607   0.48207   0.49139   0.49819   0.50520
 Alpha virt. eigenvalues --    0.50886   0.51107   0.51985   0.52708   0.53046
 Alpha virt. eigenvalues --    0.53276   0.53952   0.54592   0.55105   0.55763
 Alpha virt. eigenvalues --    0.56036   0.56581   0.56956   0.57207   0.57553
 Alpha virt. eigenvalues --    0.57867   0.58456   0.59100   0.59539   0.60249
 Alpha virt. eigenvalues --    0.60584   0.61466   0.61702   0.62392   0.63185
 Alpha virt. eigenvalues --    0.63452   0.64331   0.64495   0.64810   0.65402
 Alpha virt. eigenvalues --    0.65755   0.66754   0.67509   0.67768   0.67958
 Alpha virt. eigenvalues --    0.68481   0.68759   0.69841   0.70209   0.70509
 Alpha virt. eigenvalues --    0.70957   0.71459   0.72227   0.72880   0.73755
 Alpha virt. eigenvalues --    0.74528   0.74669   0.75336   0.75649   0.75945
 Alpha virt. eigenvalues --    0.77277   0.77480   0.78411   0.78963   0.80110
 Alpha virt. eigenvalues --    0.80519   0.81158   0.82085   0.82110   0.82406
 Alpha virt. eigenvalues --    0.82909   0.83734   0.84122   0.85153   0.86420
 Alpha virt. eigenvalues --    0.86797   0.87666   0.88911   0.89497   0.90206
 Alpha virt. eigenvalues --    0.91329   0.91825   0.92887   0.93647   0.93983
 Alpha virt. eigenvalues --    0.94607   0.95643   0.96323   0.96778   0.97436
 Alpha virt. eigenvalues --    0.98946   0.99459   1.00353   1.01744   1.02321
 Alpha virt. eigenvalues --    1.02672   1.03267   1.05203   1.06676   1.07088
 Alpha virt. eigenvalues --    1.07537   1.08165   1.09643   1.10667   1.10827
 Alpha virt. eigenvalues --    1.11774   1.12117   1.13291   1.13820   1.14181
 Alpha virt. eigenvalues --    1.16181   1.17827   1.18245   1.18515   1.19467
 Alpha virt. eigenvalues --    1.21295   1.21595   1.22454   1.23519   1.23918
 Alpha virt. eigenvalues --    1.25700   1.26237   1.26482   1.27503   1.28810
 Alpha virt. eigenvalues --    1.29881   1.31007   1.31903   1.32034   1.33094
 Alpha virt. eigenvalues --    1.34487   1.35309   1.36411   1.37527   1.37875
 Alpha virt. eigenvalues --    1.39553   1.40228   1.41843   1.42606   1.43628
 Alpha virt. eigenvalues --    1.44072   1.44937   1.46738   1.48626   1.49083
 Alpha virt. eigenvalues --    1.50071   1.50647   1.51406   1.51702   1.52611
 Alpha virt. eigenvalues --    1.53557   1.54703   1.55405   1.56448   1.57086
 Alpha virt. eigenvalues --    1.58288   1.59390   1.60169   1.62280   1.63538
 Alpha virt. eigenvalues --    1.63983   1.64569   1.66143   1.66604   1.68025
 Alpha virt. eigenvalues --    1.68169   1.69874   1.70455   1.72331   1.73407
 Alpha virt. eigenvalues --    1.73508   1.74876   1.75901   1.76009   1.76778
 Alpha virt. eigenvalues --    1.78318   1.79542   1.80242   1.80927   1.81515
 Alpha virt. eigenvalues --    1.82313   1.83630   1.85448   1.85719   1.86362
 Alpha virt. eigenvalues --    1.87563   1.88285   1.88769   1.90746   1.91867
 Alpha virt. eigenvalues --    1.93578   1.94626   1.95196   1.96458   1.96934
 Alpha virt. eigenvalues --    1.99141   2.00866   2.01159   2.02158   2.03108
 Alpha virt. eigenvalues --    2.03882   2.05323   2.05831   2.06720   2.08619
 Alpha virt. eigenvalues --    2.08925   2.09447   2.10771   2.11450   2.12695
 Alpha virt. eigenvalues --    2.13601   2.14145   2.15250   2.17353   2.18461
 Alpha virt. eigenvalues --    2.19627   2.20914   2.21135   2.23036   2.23928
 Alpha virt. eigenvalues --    2.25284   2.26720   2.27879   2.30148   2.31353
 Alpha virt. eigenvalues --    2.31847   2.33381   2.34681   2.35651   2.37131
 Alpha virt. eigenvalues --    2.38979   2.39539   2.40950   2.42310   2.42839
 Alpha virt. eigenvalues --    2.44117   2.46111   2.46686   2.47570   2.50057
 Alpha virt. eigenvalues --    2.50502   2.51601   2.53861   2.55520   2.58042
 Alpha virt. eigenvalues --    2.58390   2.60697   2.61607   2.62910   2.63443
 Alpha virt. eigenvalues --    2.67538   2.69150   2.70114   2.71958   2.75202
 Alpha virt. eigenvalues --    2.75657   2.77113   2.77861   2.80318   2.81625
 Alpha virt. eigenvalues --    2.85720   2.86790   2.88817   2.91190   2.95543
 Alpha virt. eigenvalues --    2.98692   2.99382   3.03861   3.06729   3.13244
 Alpha virt. eigenvalues --    3.18625   3.21811   3.23599   3.27300   3.32542
 Alpha virt. eigenvalues --    3.34396   3.36818   3.37710   3.39159   3.40612
 Alpha virt. eigenvalues --    3.43807   3.44982   3.46396   3.47989   3.48713
 Alpha virt. eigenvalues --    3.49717   3.51565   3.51858   3.56519   3.56712
 Alpha virt. eigenvalues --    3.58247   3.59695   3.62207   3.62977   3.63475
 Alpha virt. eigenvalues --    3.64177   3.67413   3.70872   3.72603   3.73675
 Alpha virt. eigenvalues --    3.76466   3.77544   3.85224   3.91142   3.96407
 Alpha virt. eigenvalues --    3.99724   4.00833   4.06057   4.17928   4.21865
 Alpha virt. eigenvalues --    4.99918
  Beta  occ. eigenvalues --  -19.26689 -19.26462 -19.25560 -19.25109 -19.24765
  Beta  occ. eigenvalues --  -19.20940 -14.48409 -14.45930 -10.40621 -10.39594
  Beta  occ. eigenvalues --  -10.34375 -10.33606 -10.32384 -10.32219 -10.30306
  Beta  occ. eigenvalues --  -10.30101 -10.27838  -1.13491  -1.12124  -1.10664
  Beta  occ. eigenvalues --   -1.09498  -1.07547  -1.04232  -1.02389  -0.97275
  Beta  occ. eigenvalues --   -0.88132  -0.81743  -0.80103  -0.73888  -0.72001
  Beta  occ. eigenvalues --   -0.69388  -0.65520  -0.63574  -0.61305  -0.60345
  Beta  occ. eigenvalues --   -0.57293  -0.56404  -0.54094  -0.53214  -0.52761
  Beta  occ. eigenvalues --   -0.51212  -0.50208  -0.49530  -0.48323  -0.47211
  Beta  occ. eigenvalues --   -0.46947  -0.44763  -0.44130  -0.43785  -0.42703
  Beta  occ. eigenvalues --   -0.41669  -0.39003  -0.37819  -0.36323  -0.35568
  Beta  occ. eigenvalues --   -0.35165  -0.34213  -0.33490  -0.32490  -0.32219
  Beta  occ. eigenvalues --   -0.30843  -0.29752  -0.27717
  Beta virt. eigenvalues --   -0.20336  -0.06798  -0.02085  -0.01682  -0.00743
  Beta virt. eigenvalues --   -0.00314   0.00521   0.01843   0.02668   0.02829
  Beta virt. eigenvalues --    0.03174   0.03608   0.04611   0.05120   0.05650
  Beta virt. eigenvalues --    0.05666   0.05961   0.06890   0.07201   0.07473
  Beta virt. eigenvalues --    0.07888   0.08075   0.08570   0.08817   0.08887
  Beta virt. eigenvalues --    0.09529   0.09741   0.10226   0.10536   0.11145
  Beta virt. eigenvalues --    0.11381   0.11787   0.11929   0.12159   0.12449
  Beta virt. eigenvalues --    0.12820   0.13305   0.13740   0.13901   0.14263
  Beta virt. eigenvalues --    0.14514   0.14986   0.15263   0.15711   0.15776
  Beta virt. eigenvalues --    0.16928   0.16980   0.17461   0.18023   0.18347
  Beta virt. eigenvalues --    0.18696   0.18953   0.19586   0.19919   0.20180
  Beta virt. eigenvalues --    0.20708   0.20891   0.21446   0.21855   0.22308
  Beta virt. eigenvalues --    0.22496   0.22768   0.23034   0.23413   0.23642
  Beta virt. eigenvalues --    0.24064   0.24425   0.24691   0.25261   0.25840
  Beta virt. eigenvalues --    0.25873   0.26065   0.26392   0.26538   0.26796
  Beta virt. eigenvalues --    0.26955   0.27194   0.27845   0.28422   0.28870
  Beta virt. eigenvalues --    0.29281   0.29698   0.29957   0.30076   0.30578
  Beta virt. eigenvalues --    0.30616   0.31048   0.31443   0.32059   0.32289
  Beta virt. eigenvalues --    0.33028   0.33206   0.33513   0.33633   0.34297
  Beta virt. eigenvalues --    0.34796   0.35440   0.35876   0.36205   0.36723
  Beta virt. eigenvalues --    0.37222   0.37712   0.37937   0.38018   0.38964
  Beta virt. eigenvalues --    0.39381   0.39539   0.40451   0.40726   0.41235
  Beta virt. eigenvalues --    0.41901   0.42345   0.42775   0.43277   0.43812
  Beta virt. eigenvalues --    0.44531   0.44674   0.45081   0.45488   0.46148
  Beta virt. eigenvalues --    0.47036   0.47811   0.48320   0.49269   0.49944
  Beta virt. eigenvalues --    0.50596   0.50990   0.51193   0.52066   0.52807
  Beta virt. eigenvalues --    0.53137   0.53354   0.54031   0.54737   0.55315
  Beta virt. eigenvalues --    0.56011   0.56275   0.56682   0.57099   0.57366
  Beta virt. eigenvalues --    0.57682   0.58065   0.58500   0.59200   0.59621
  Beta virt. eigenvalues --    0.60381   0.60683   0.61560   0.61906   0.62422
  Beta virt. eigenvalues --    0.63339   0.63666   0.64448   0.64640   0.64888
  Beta virt. eigenvalues --    0.65479   0.65858   0.66879   0.67628   0.67857
  Beta virt. eigenvalues --    0.68129   0.68635   0.68923   0.69893   0.70326
  Beta virt. eigenvalues --    0.70583   0.71066   0.71599   0.72285   0.73011
  Beta virt. eigenvalues --    0.73815   0.74631   0.74763   0.75389   0.75808
  Beta virt. eigenvalues --    0.75985   0.77365   0.77572   0.78612   0.79046
  Beta virt. eigenvalues --    0.80270   0.80662   0.81269   0.82168   0.82282
  Beta virt. eigenvalues --    0.82589   0.82955   0.83960   0.84378   0.85266
  Beta virt. eigenvalues --    0.86595   0.86920   0.87751   0.89128   0.89691
  Beta virt. eigenvalues --    0.90507   0.91501   0.92066   0.92965   0.93823
  Beta virt. eigenvalues --    0.94250   0.94756   0.95959   0.96605   0.97162
  Beta virt. eigenvalues --    0.97595   0.99132   0.99640   1.00524   1.01928
  Beta virt. eigenvalues --    1.02550   1.02987   1.03601   1.05612   1.06835
  Beta virt. eigenvalues --    1.07479   1.07691   1.08443   1.09788   1.10867
  Beta virt. eigenvalues --    1.11027   1.11976   1.12276   1.13389   1.13896
  Beta virt. eigenvalues --    1.14369   1.16273   1.17938   1.18451   1.18755
  Beta virt. eigenvalues --    1.19646   1.21388   1.21784   1.22670   1.23694
  Beta virt. eigenvalues --    1.24141   1.25792   1.26454   1.26486   1.27655
  Beta virt. eigenvalues --    1.28997   1.30120   1.31268   1.32010   1.32240
  Beta virt. eigenvalues --    1.33327   1.34703   1.35631   1.36785   1.37758
  Beta virt. eigenvalues --    1.38010   1.39699   1.40588   1.42329   1.42861
  Beta virt. eigenvalues --    1.43919   1.44294   1.45238   1.46965   1.48742
  Beta virt. eigenvalues --    1.49397   1.50326   1.50657   1.51778   1.52280
  Beta virt. eigenvalues --    1.52831   1.54097   1.54953   1.55694   1.56587
  Beta virt. eigenvalues --    1.57129   1.58421   1.59587   1.60315   1.62444
  Beta virt. eigenvalues --    1.63644   1.64225   1.64776   1.66291   1.66950
  Beta virt. eigenvalues --    1.68218   1.68473   1.70122   1.70615   1.72442
  Beta virt. eigenvalues --    1.73516   1.73809   1.74949   1.75988   1.76172
  Beta virt. eigenvalues --    1.77000   1.78456   1.79665   1.80401   1.81046
  Beta virt. eigenvalues --    1.81678   1.82409   1.83644   1.85564   1.85802
  Beta virt. eigenvalues --    1.86426   1.87772   1.88550   1.88933   1.90958
  Beta virt. eigenvalues --    1.92099   1.93802   1.95083   1.95431   1.96568
  Beta virt. eigenvalues --    1.97158   1.99246   2.01089   2.01333   2.02389
  Beta virt. eigenvalues --    2.03363   2.04106   2.05544   2.06137   2.06920
  Beta virt. eigenvalues --    2.08759   2.09012   2.09663   2.10835   2.11572
  Beta virt. eigenvalues --    2.12880   2.13745   2.14252   2.15330   2.17491
  Beta virt. eigenvalues --    2.18597   2.19807   2.21016   2.21425   2.23210
  Beta virt. eigenvalues --    2.24245   2.25628   2.26995   2.27976   2.30436
  Beta virt. eigenvalues --    2.31447   2.32101   2.33470   2.34774   2.35781
  Beta virt. eigenvalues --    2.37387   2.39829   2.40009   2.41228   2.42534
  Beta virt. eigenvalues --    2.42952   2.44358   2.46559   2.46860   2.47660
  Beta virt. eigenvalues --    2.50422   2.51034   2.51740   2.53985   2.55709
  Beta virt. eigenvalues --    2.58489   2.58646   2.61548   2.61717   2.63012
  Beta virt. eigenvalues --    2.63591   2.67591   2.69358   2.70213   2.72056
  Beta virt. eigenvalues --    2.75321   2.75784   2.77173   2.77906   2.80418
  Beta virt. eigenvalues --    2.81685   2.85778   2.86830   2.89249   2.91368
  Beta virt. eigenvalues --    2.95748   2.98820   2.99708   3.04117   3.06931
  Beta virt. eigenvalues --    3.13403   3.18712   3.22369   3.23789   3.27383
  Beta virt. eigenvalues --    3.34269   3.34637   3.37752   3.38076   3.40465
  Beta virt. eigenvalues --    3.41347   3.43930   3.45109   3.46864   3.48042
  Beta virt. eigenvalues --    3.48865   3.49814   3.51837   3.52184   3.56648
  Beta virt. eigenvalues --    3.57078   3.58324   3.60015   3.62387   3.63170
  Beta virt. eigenvalues --    3.63716   3.64475   3.67635   3.71036   3.72762
  Beta virt. eigenvalues --    3.74127   3.76910   3.77864   3.85635   3.91329
  Beta virt. eigenvalues --    3.96680   3.99898   4.01123   4.06174   4.17989
  Beta virt. eigenvalues --    4.22123   5.00029
          Condensed to atoms (all electrons):
               1          2          3          4          5          6
     1  C    7.779639  -2.084101   1.023729   0.203436   0.618110   0.007717
     2  C   -2.084101   9.049672  -3.291847  -0.463407  -0.892181   0.140180
     3  C    1.023729  -3.291847  18.928268   0.099563  -0.214375  -0.414870
     4  O    0.203436  -0.463407   0.099563   8.674511  -0.056389   0.009830
     5  H    0.618110  -0.892181  -0.214375  -0.056389   2.263569   0.013635
     6  O    0.007717   0.140180  -0.414870   0.009830   0.013635   9.414349
     7  H    0.005728   0.417778  -1.471267  -0.026303   0.074627  -0.108078
     8  C   -0.205085   1.024650  -4.260033   0.002377  -0.192042   0.003149
     9  C   -1.298286   1.104622  -3.379646   0.020451   0.029044  -0.225759
    10  H   -0.613962   0.326008   0.067305  -0.022051  -0.229823   0.064578
    11  O   -0.274416   0.046522   0.005942  -0.014773   0.037422  -0.018758
    12  C    0.075373  -0.263451   0.504449   0.019182   0.010218   0.023254
    13  H    0.317226  -0.177425   0.292130   0.007462  -0.016535  -0.129545
    14  O   -0.077440   0.039197  -0.023852  -0.001286  -0.004960  -0.019057
    15  H    0.019238   0.047431   0.008839   0.000515   0.003987   0.095602
    16  H   -0.038726  -0.024726  -0.008889   0.001017  -0.000316  -0.063099
    17  H   -0.146857   0.019687  -0.001787  -0.015135   0.002847   0.008710
    18  H   -0.119927   0.193791  -0.046070   0.290149  -0.105718   0.002541
    19  H   -0.028963   0.008052  -0.054436  -0.001259  -0.001753   0.029283
    20  C    0.090076  -0.448533  -1.102520  -0.013683   0.049280  -0.065851
    21  N   -0.007688   0.012262   0.120094  -0.001818  -0.004096  -0.000780
    22  C   -0.020198   0.040358  -0.487973   0.001897   0.003772   0.000286
    23  N    0.005884  -0.083840   0.451614  -0.000554  -0.017269  -0.010695
    24  C   -0.165150   0.401900  -2.010388  -0.031039   0.029199   0.047696
    25  H   -0.002372   0.098302  -0.108451  -0.003697   0.009770   0.048670
    26  H   -0.002752   0.004100  -0.012727   0.000083   0.001283  -0.001455
    27  O    0.000948  -0.001352   0.017451  -0.000038  -0.000717   0.000001
    28  O    0.068432  -0.059349   0.106060   0.000005   0.026292   0.000489
               7          8          9         10         11         12
     1  C    0.005728  -0.205085  -1.298286  -0.613962  -0.274416   0.075373
     2  C    0.417778   1.024650   1.104622   0.326008   0.046522  -0.263451
     3  C   -1.471267  -4.260033  -3.379646   0.067305   0.005942   0.504449
     4  O   -0.026303   0.002377   0.020451  -0.022051  -0.014773   0.019182
     5  H    0.074627  -0.192042   0.029044  -0.229823   0.037422   0.010218
     6  O   -0.108078   0.003149  -0.225759   0.064578  -0.018758   0.023254
     7  H    2.215650   0.423343   0.112772  -0.011482   0.003853  -0.015363
     8  C    0.423343  12.914956   0.834068  -0.064236  -0.004630  -0.228636
     9  C    0.112772   0.834068   9.479346  -0.447703   0.185664  -0.307896
    10  H   -0.011482  -0.064236  -0.447703   2.499287  -0.226958  -0.011879
    11  O    0.003853  -0.004630   0.185664  -0.226958   8.589522  -0.000302
    12  C   -0.015363  -0.228636  -0.307896  -0.011879  -0.000302   4.873559
    13  H    0.021833  -0.066009  -0.993122   0.097971  -0.064292  -0.020861
    14  O    0.000346  -0.000478   0.011756   0.028521   0.003381   0.063567
    15  H   -0.001239   0.000434  -0.115942  -0.022623   0.005688   0.100238
    16  H   -0.002759   0.015215   0.296203   0.022052   0.001187   0.099900
    17  H   -0.004526  -0.008379   0.005133   0.042685   0.307734   0.007535
    18  H   -0.008389   0.015208  -0.012756   0.023396  -0.015718  -0.005835
    19  H    0.002888   0.008860   0.033129  -0.001572  -0.002785  -0.054170
    20  C   -0.016045  -2.921429  -0.057857  -0.005870   0.000350  -0.058821
    21  N   -0.012088   0.183847  -0.002369   0.000284  -0.000105   0.002812
    22  C    0.006192   0.161097   0.023064  -0.002162   0.000260  -0.012419
    23  N   -0.005605  -0.130135  -0.025398  -0.001580   0.000686   0.005438
    24  C   -0.028666  -2.862547   0.121344   0.053645  -0.009005  -0.029303
    25  H   -0.067174   0.079656   0.036863  -0.000134  -0.000365  -0.001636
    26  H    0.000655   0.207396   0.001518  -0.000947  -0.000001   0.000222
    27  O    0.000346  -0.010573  -0.000645   0.000503  -0.000005   0.000207
    28  O    0.008231  -0.022894  -0.044733  -0.030924   0.002745   0.027400
              13         14         15         16         17         18
     1  C    0.317226  -0.077440   0.019238  -0.038726  -0.146857  -0.119927
     2  C   -0.177425   0.039197   0.047431  -0.024726   0.019687   0.193791
     3  C    0.292130  -0.023852   0.008839  -0.008889  -0.001787  -0.046070
     4  O    0.007462  -0.001286   0.000515   0.001017  -0.015135   0.290149
     5  H   -0.016535  -0.004960   0.003987  -0.000316   0.002847  -0.105718
     6  O   -0.129545  -0.019057   0.095602  -0.063099   0.008710   0.002541
     7  H    0.021833   0.000346  -0.001239  -0.002759  -0.004526  -0.008389
     8  C   -0.066009  -0.000478   0.000434   0.015215  -0.008379   0.015208
     9  C   -0.993122   0.011756  -0.115942   0.296203   0.005133  -0.012756
    10  H    0.097971   0.028521  -0.022623   0.022052   0.042685   0.023396
    11  O   -0.064292   0.003381   0.005688   0.001187   0.307734  -0.015718
    12  C   -0.020861   0.063567   0.100238   0.099900   0.007535  -0.005835
    13  H    2.345111   0.023573  -0.107652  -0.019992  -0.011574   0.008832
    14  O    0.023573   8.469382  -0.108671  -0.055507  -0.001206   0.000591
    15  H   -0.107652  -0.108671   1.592473  -0.282006   0.007790  -0.000616
    16  H   -0.019992  -0.055507  -0.282006   1.318175  -0.001134  -0.000503
    17  H   -0.011574  -0.001206   0.007790  -0.001134   0.694560   0.022545
    18  H    0.008832   0.000591  -0.000616  -0.000503   0.022545   0.639025
    19  H   -0.001269   0.207356   0.009665  -0.034724   0.000770   0.000421
    20  C    0.007854   0.000784  -0.003188  -0.000583  -0.000660  -0.003437
    21  N    0.000237   0.000347   0.000047   0.000165  -0.000034   0.000289
    22  C    0.001324  -0.000516  -0.000579  -0.000199  -0.000169   0.000253
    23  N   -0.001873  -0.004671   0.001153  -0.001846  -0.000088  -0.000400
    24  C    0.025430   0.018863  -0.018653   0.011889   0.002190   0.004488
    25  H    0.002409  -0.000118   0.000277   0.000024  -0.000096   0.001400
    26  H   -0.000004   0.000053  -0.000052   0.000331   0.000047  -0.000006
    27  O   -0.000028   0.000047   0.000013  -0.000018   0.000002   0.000003
    28  O    0.004635  -0.048606   0.003618  -0.004470  -0.001343  -0.000216
              19         20         21         22         23         24
     1  C   -0.028963   0.090076  -0.007688  -0.020198   0.005884  -0.165150
     2  C    0.008052  -0.448533   0.012262   0.040358  -0.083840   0.401900
     3  C   -0.054436  -1.102520   0.120094  -0.487973   0.451614  -2.010388
     4  O   -0.001259  -0.013683  -0.001818   0.001897  -0.000554  -0.031039
     5  H   -0.001753   0.049280  -0.004096   0.003772  -0.017269   0.029199
     6  O    0.029283  -0.065851  -0.000780   0.000286  -0.010695   0.047696
     7  H    0.002888  -0.016045  -0.012088   0.006192  -0.005605  -0.028666
     8  C    0.008860  -2.921429   0.183847   0.161097  -0.130135  -2.862547
     9  C    0.033129  -0.057857  -0.002369   0.023064  -0.025398   0.121344
    10  H   -0.001572  -0.005870   0.000284  -0.002162  -0.001580   0.053645
    11  O   -0.002785   0.000350  -0.000105   0.000260   0.000686  -0.009005
    12  C   -0.054170  -0.058821   0.002812  -0.012419   0.005438  -0.029303
    13  H   -0.001269   0.007854   0.000237   0.001324  -0.001873   0.025430
    14  O    0.207356   0.000784   0.000347  -0.000516  -0.004671   0.018863
    15  H    0.009665  -0.003188   0.000047  -0.000579   0.001153  -0.018653
    16  H   -0.034724  -0.000583   0.000165  -0.000199  -0.001846   0.011889
    17  H    0.000770  -0.000660  -0.000034  -0.000169  -0.000088   0.002190
    18  H    0.000421  -0.003437   0.000289   0.000253  -0.000400   0.004488
    19  H    0.614614   0.005924   0.000261   0.001391  -0.004962   0.006560
    20  C    0.005924  13.088188  -0.631261  -0.507118   0.281930  -1.690513
    21  N    0.000261  -0.631261   7.860491  -0.060914  -0.011606   0.192089
    22  C    0.001391  -0.507118  -0.060914   6.236214  -0.010815  -0.058204
    23  N   -0.004962   0.281930  -0.011606  -0.010815   7.668643  -0.710250
    24  C    0.006560  -1.690513   0.192089  -0.058204  -0.710250  12.227410
    25  H   -0.000313  -0.454797  -0.038583  -0.017897  -0.027789   0.111749
    26  H   -0.001749  -0.153824   0.029882  -0.167178   0.403977  -0.277611
    27  O   -0.000084   0.005319  -0.044247   0.077222  -0.172400   0.140279
    28  O    0.034550  -0.050300  -0.003004   0.000293  -0.191543   0.050852
              25         26         27         28
     1  C   -0.002372  -0.002752   0.000948   0.068432
     2  C    0.098302   0.004100  -0.001352  -0.059349
     3  C   -0.108451  -0.012727   0.017451   0.106060
     4  O   -0.003697   0.000083  -0.000038   0.000005
     5  H    0.009770   0.001283  -0.000717   0.026292
     6  O    0.048670  -0.001455   0.000001   0.000489
     7  H   -0.067174   0.000655   0.000346   0.008231
     8  C    0.079656   0.207396  -0.010573  -0.022894
     9  C    0.036863   0.001518  -0.000645  -0.044733
    10  H   -0.000134  -0.000947   0.000503  -0.030924
    11  O   -0.000365  -0.000001  -0.000005   0.002745
    12  C   -0.001636   0.000222   0.000207   0.027400
    13  H    0.002409  -0.000004  -0.000028   0.004635
    14  O   -0.000118   0.000053   0.000047  -0.048606
    15  H    0.000277  -0.000052   0.000013   0.003618
    16  H    0.000024   0.000331  -0.000018  -0.004470
    17  H   -0.000096   0.000047   0.000002  -0.001343
    18  H    0.001400  -0.000006   0.000003  -0.000216
    19  H   -0.000313  -0.001749  -0.000084   0.034550
    20  C   -0.454797  -0.153824   0.005319  -0.050300
    21  N   -0.038583   0.029882  -0.044247  -0.003004
    22  C   -0.017897  -0.167178   0.077222   0.000293
    23  N   -0.027789   0.403977  -0.172400  -0.191543
    24  C    0.111749  -0.277611   0.140279   0.050852
    25  H    1.954213  -0.003052   0.002099  -0.004332
    26  H   -0.003052   1.060085  -0.002701  -0.022910
    27  O    0.002099  -0.002701   8.557534  -0.002390
    28  O   -0.004332  -0.022910  -0.002390   8.988516
          Atomic-Atomic Spin Densities.
               1          2          3          4          5          6
     1  C    0.014477   0.009535   0.017821   0.000671  -0.010674  -0.001202
     2  C    0.009535   0.032050  -0.017784   0.002632  -0.000548  -0.001770
     3  C    0.017821  -0.017784  -0.139012  -0.002139   0.036840  -0.042823
     4  O    0.000671   0.002632  -0.002139   0.002463  -0.006408   0.000508
     5  H   -0.010674  -0.000548   0.036840  -0.006408   0.019624  -0.008951
     6  O   -0.001202  -0.001770  -0.042823   0.000508  -0.008951   0.055681
     7  H   -0.000028  -0.003734  -0.015616  -0.002276   0.000413  -0.002350
     8  C   -0.007147   0.004358  -0.051807   0.006609  -0.037761   0.005878
     9  C   -0.006530   0.008887  -0.062017   0.002649  -0.008697   0.010211
    10  H    0.004567  -0.004619   0.007266  -0.000333   0.001756  -0.001235
    11  O   -0.003935  -0.000378   0.000636  -0.000241   0.000619  -0.000192
    12  C   -0.006964   0.002187   0.003902  -0.000463  -0.001040  -0.001922
    13  H    0.000786   0.001326  -0.001180  -0.000196  -0.000096   0.001807
    14  O   -0.000039  -0.000469   0.005411  -0.000053   0.000586  -0.001236
    15  H    0.001073  -0.000143   0.000005   0.000005  -0.000223   0.000169
    16  H   -0.000300   0.000049  -0.000182  -0.000027   0.000023  -0.000943
    17  H   -0.001663  -0.000025   0.001833  -0.000480   0.000966  -0.000296
    18  H   -0.000307  -0.002269   0.000324  -0.000756   0.001603   0.000033
    19  H   -0.000180   0.000080   0.000584   0.000036   0.000024  -0.000799
    20  C    0.007694   0.001784   0.071919  -0.000956   0.002520   0.006117
    21  N   -0.000494  -0.000905   0.006043   0.000069   0.000995  -0.000104
    22  C    0.000360  -0.001868   0.012304  -0.000109  -0.000429  -0.000049
    23  N    0.000328  -0.001838  -0.000185  -0.000069   0.000173   0.000522
    24  C   -0.002439  -0.001809   0.118043   0.000386   0.001118  -0.005680
    25  H   -0.000232   0.006119  -0.002701   0.000390  -0.000306   0.002455
    26  H    0.000053  -0.000458   0.001573  -0.000019   0.000137  -0.000264
    27  O   -0.000001   0.000342  -0.000862   0.000004  -0.000067  -0.000030
    28  O   -0.004796   0.002330  -0.012351  -0.000061   0.000095   0.007707
               7          8          9         10         11         12
     1  C   -0.000028  -0.007147  -0.006530   0.004567  -0.003935  -0.006964
     2  C   -0.003734   0.004358   0.008887  -0.004619  -0.000378   0.002187
     3  C   -0.015616  -0.051807  -0.062017   0.007266   0.000636   0.003902
     4  O   -0.002276   0.006609   0.002649  -0.000333  -0.000241  -0.000463
     5  H    0.000413  -0.037761  -0.008697   0.001756   0.000619  -0.001040
     6  O   -0.002350   0.005878   0.010211  -0.001235  -0.000192  -0.001922
     7  H   -0.005074  -0.000118  -0.001131  -0.000059  -0.000055  -0.000422
     8  C   -0.000118   0.503440   0.030949  -0.002447  -0.000548  -0.001009
     9  C   -0.001131   0.030949   0.038473  -0.004641   0.001147  -0.003291
    10  H   -0.000059  -0.002447  -0.004641   0.000650  -0.000280  -0.000075
    11  O   -0.000055  -0.000548   0.001147  -0.000280   0.007691   0.000802
    12  C   -0.000422  -0.001009  -0.003291  -0.000075   0.000802   0.005779
    13  H   -0.000244  -0.000360  -0.000699  -0.000301   0.000057   0.001645
    14  O    0.000237  -0.001834  -0.003636   0.000169   0.000106   0.000339
    15  H   -0.000022   0.000273  -0.000235   0.000067  -0.000215  -0.001090
    16  H   -0.000065  -0.000115   0.001931  -0.000021   0.000010  -0.000768
    17  H    0.000132  -0.000439  -0.001910   0.000436  -0.000008  -0.000396
    18  H    0.000201   0.000352  -0.000528   0.000028   0.000303   0.000096
    19  H    0.000092  -0.000305  -0.000043  -0.000006   0.000096  -0.000198
    20  C    0.022414   0.306972  -0.003606  -0.000229  -0.000160   0.000333
    21  N    0.001479  -0.012869  -0.000231  -0.000039   0.000010   0.000219
    22  C   -0.000187  -0.024707   0.000732   0.000065  -0.000013   0.000100
    23  N   -0.000499  -0.026656  -0.000472   0.000133  -0.000001  -0.000032
    24  C    0.003481   0.063995  -0.008397  -0.000688   0.000116   0.000806
    25  H    0.005100   0.051607   0.000966  -0.000039  -0.000015   0.000195
    26  H    0.000057   0.000771  -0.000363   0.000041   0.000003   0.000047
    27  O   -0.000062   0.005372  -0.000033  -0.000011   0.000000  -0.000003
    28  O   -0.000877  -0.008315   0.006392  -0.000518   0.000158   0.000900
              13         14         15         16         17         18
     1  C    0.000786  -0.000039   0.001073  -0.000300  -0.001663  -0.000307
     2  C    0.001326  -0.000469  -0.000143   0.000049  -0.000025  -0.002269
     3  C   -0.001180   0.005411   0.000005  -0.000182   0.001833   0.000324
     4  O   -0.000196  -0.000053   0.000005  -0.000027  -0.000480  -0.000756
     5  H   -0.000096   0.000586  -0.000223   0.000023   0.000966   0.001603
     6  O    0.001807  -0.001236   0.000169  -0.000943  -0.000296   0.000033
     7  H   -0.000244   0.000237  -0.000022  -0.000065   0.000132   0.000201
     8  C   -0.000360  -0.001834   0.000273  -0.000115  -0.000439   0.000352
     9  C   -0.000699  -0.003636  -0.000235   0.001931  -0.001910  -0.000528
    10  H   -0.000301   0.000169   0.000067  -0.000021   0.000436   0.000028
    11  O    0.000057   0.000106  -0.000215   0.000010  -0.000008   0.000303
    12  C    0.001645   0.000339  -0.001090  -0.000768  -0.000396   0.000096
    13  H   -0.000730  -0.000010   0.000242   0.000140   0.000089   0.000007
    14  O   -0.000010   0.006366  -0.000071  -0.000028  -0.000017  -0.000002
    15  H    0.000242  -0.000071   0.001950  -0.000333  -0.000011  -0.000013
    16  H    0.000140  -0.000028  -0.000333   0.000383  -0.000009   0.000000
    17  H    0.000089  -0.000017  -0.000011  -0.000009   0.001006   0.000396
    18  H    0.000007  -0.000002  -0.000013   0.000000   0.000396   0.001778
    19  H    0.000079   0.001296  -0.000214  -0.000032  -0.000056  -0.000006
    20  C   -0.000358   0.000046   0.000065   0.000041   0.000152  -0.000062
    21  N   -0.000070  -0.000022   0.000006   0.000009   0.000008  -0.000079
    22  C   -0.000007  -0.000062   0.000015   0.000000   0.000010  -0.000018
    23  N    0.000042  -0.000218   0.000007  -0.000068   0.000006  -0.000011
    24  C   -0.000587   0.001588  -0.000087   0.000238   0.000089  -0.000005
    25  H    0.000051  -0.000039   0.000022   0.000018  -0.000011   0.000071
    26  H   -0.000012   0.000075  -0.000004   0.000006   0.000003  -0.000006
    27  O   -0.000001   0.000008  -0.000001   0.000002  -0.000000   0.000007
    28  O    0.000075  -0.003937   0.000065  -0.000020  -0.000080   0.000047
              19         20         21         22         23         24
     1  C   -0.000180   0.007694  -0.000494   0.000360   0.000328  -0.002439
     2  C    0.000080   0.001784  -0.000905  -0.001868  -0.001838  -0.001809
     3  C    0.000584   0.071919   0.006043   0.012304  -0.000185   0.118043
     4  O    0.000036  -0.000956   0.000069  -0.000109  -0.000069   0.000386
     5  H    0.000024   0.002520   0.000995  -0.000429   0.000173   0.001118
     6  O   -0.000799   0.006117  -0.000104  -0.000049   0.000522  -0.005680
     7  H    0.000092   0.022414   0.001479  -0.000187  -0.000499   0.003481
     8  C   -0.000305   0.306972  -0.012869  -0.024707  -0.026656   0.063995
     9  C   -0.000043  -0.003606  -0.000231   0.000732  -0.000472  -0.008397
    10  H   -0.000006  -0.000229  -0.000039   0.000065   0.000133  -0.000688
    11  O    0.000096  -0.000160   0.000010  -0.000013  -0.000001   0.000116
    12  C   -0.000198   0.000333   0.000219   0.000100  -0.000032   0.000806
    13  H    0.000079  -0.000358  -0.000070  -0.000007   0.000042  -0.000587
    14  O    0.001296   0.000046  -0.000022  -0.000062  -0.000218   0.001588
    15  H   -0.000214   0.000065   0.000006   0.000015   0.000007  -0.000087
    16  H   -0.000032   0.000041   0.000009   0.000000  -0.000068   0.000238
    17  H   -0.000056   0.000152   0.000008   0.000010   0.000006   0.000089
    18  H   -0.000006  -0.000062  -0.000079  -0.000018  -0.000011  -0.000005
    19  H   -0.000710  -0.000548   0.000124   0.000170  -0.000001   0.001690
    20  C   -0.000548  -0.845209  -0.035261   0.063886   0.006323   0.143657
    21  N    0.000124  -0.035261   0.461796   0.009975   0.001841  -0.008737
    22  C    0.000170   0.063886   0.009975  -0.208115   0.023576   0.019271
    23  N   -0.000001   0.006323   0.001841   0.023576  -0.028479   0.027869
    24  C    0.001690   0.143657  -0.008737   0.019271   0.027869  -0.458453
    25  H   -0.000012  -0.078163  -0.004783   0.002369  -0.001590  -0.000626
    26  H    0.000034   0.006136   0.000423  -0.003850  -0.003610  -0.002018
    27  O   -0.000018  -0.005748  -0.015865  -0.004995  -0.002556  -0.005877
    28  O   -0.003334   0.011559   0.001233  -0.001374   0.003801  -0.033307
              25         26         27         28
     1  C   -0.000232   0.000053  -0.000001  -0.004796
     2  C    0.006119  -0.000458   0.000342   0.002330
     3  C   -0.002701   0.001573  -0.000862  -0.012351
     4  O    0.000390  -0.000019   0.000004  -0.000061
     5  H   -0.000306   0.000137  -0.000067   0.000095
     6  O    0.002455  -0.000264  -0.000030   0.007707
     7  H    0.005100   0.000057  -0.000062  -0.000877
     8  C    0.051607   0.000771   0.005372  -0.008315
     9  C    0.000966  -0.000363  -0.000033   0.006392
    10  H   -0.000039   0.000041  -0.000011  -0.000518
    11  O   -0.000015   0.000003   0.000000   0.000158
    12  C    0.000195   0.000047  -0.000003   0.000900
    13  H    0.000051  -0.000012  -0.000001   0.000075
    14  O   -0.000039   0.000075   0.000008  -0.003937
    15  H    0.000022  -0.000004  -0.000001   0.000065
    16  H    0.000018   0.000006   0.000002  -0.000020
    17  H   -0.000011   0.000003  -0.000000  -0.000080
    18  H    0.000071  -0.000006   0.000007   0.000047
    19  H   -0.000012   0.000034  -0.000018  -0.003334
    20  C   -0.078163   0.006136  -0.005748   0.011559
    21  N   -0.004783   0.000423  -0.015865   0.001233
    22  C    0.002369  -0.003850  -0.004995  -0.001374
    23  N   -0.001590  -0.003610  -0.002556   0.003801
    24  C   -0.000626  -0.002018  -0.005877  -0.033307
    25  H    0.017619   0.000110  -0.000107   0.000494
    26  H    0.000110   0.002636  -0.000491  -0.002626
    27  O   -0.000107  -0.000491   0.284917  -0.000163
    28  O    0.000494  -0.002626  -0.000163   0.154077
 Mulliken charges and spin densities:
               1          2
     1  C    0.870386   0.010436
     2  C    0.815699   0.033064
     3  C    1.263686  -0.064153
     4  O   -0.679050   0.001837
     5  H   -0.436883  -0.007709
     6  O   -0.852021   0.021242
     7  H   -0.515262   0.000787
     8  C    1.102851   0.804139
     9  C    0.617137  -0.004123
    10  H   -0.532327  -0.000361
    11  O   -0.558843   0.005715
    12  C    1.197219  -0.000321
    13  H   -0.545844   0.001494
    14  O   -0.521395   0.004553
    15  H   -0.235785   0.001303
    16  H   -0.226659  -0.000060
    17  H    0.070754  -0.000271
    18  H    0.116660   0.001184
    19  H    0.224317  -0.002157
    20  C    0.656585  -0.318682
    21  N   -0.584513   0.404773
    22  C    0.792718  -0.112950
    23  N   -0.406005  -0.001662
    24  C    0.445743  -0.146362
    25  H   -0.614628  -0.001038
    26  H   -0.062662  -0.001612
    27  O   -0.566777   0.253761
    28  O   -0.835102   0.117174
 Sum of Mulliken charges =  -0.00000   1.00000
 Mulliken charges and spin densities with hydrogens summed into heavy atoms:
               1          2
     1  C    0.338059   0.010075
     2  C    0.378817   0.025356
     3  C    0.748424  -0.063367
     4  O   -0.562390   0.003021
     6  O   -0.852021   0.021242
     8  C    1.102851   0.804139
     9  C    0.071292  -0.002629
    11  O   -0.488089   0.005444
    12  C    0.734775   0.000923
    14  O   -0.297078   0.002396
    20  C    0.041957  -0.319720
    21  N   -0.584513   0.404773
    22  C    0.792718  -0.112950
    23  N   -0.468667  -0.003274
    24  C    0.445743  -0.146362
    27  O   -0.566777   0.253761
    28  O   -0.835102   0.117174
 Electronic spatial extent (au):  <R**2>=           4151.8644
 Charge=             -0.0000 electrons
 Dipole moment (field-independent basis, Debye):
    X=              1.9597    Y=             -3.7980    Z=              0.3158  Tot=              4.2854
 Quadrupole moment (field-independent basis, Debye-Ang):
   XX=           -117.9817   YY=           -102.8118   ZZ=            -97.2663
   XY=             -9.0475   XZ=              4.2963   YZ=              2.8035
 Traceless Quadrupole moment (field-independent basis, Debye-Ang):
   XX=            -11.9617   YY=              3.2081   ZZ=              8.7536
   XY=             -9.0475   XZ=              4.2963   YZ=              2.8035
 Octapole moment (field-independent basis, Debye-Ang**2):
  XXX=            172.5165  YYY=            -24.7096  ZZZ=             -8.7247  XYY=             -6.6517
  XXY=             -7.1328  XXZ=             13.6786  XZZ=             -3.8794  YZZ=             -5.5546
  YYZ=             -7.1806  XYZ=             12.8941
 Hexadecapole moment (field-independent basis, Debye-Ang**3):
 XXXX=          -4464.8085 YYYY=          -1179.4460 ZZZZ=           -448.6335 XXXY=           -109.0640
 XXXZ=             76.2822 YYYX=           -111.2597 YYYZ=             25.1696 ZZZX=              9.4610
 ZZZY=              2.0399 XXYY=           -763.5052 XXZZ=           -704.2248 YYZZ=           -225.0620
 XXYZ=             31.9258 YYXZ=            -14.3344 ZZXY=            -17.9704
 N-N= 1.304953221314D+03 E-N=-4.739357856446D+03  KE= 9.046293338222D+02
                          Isotropic Fermi Contact Couplings
        Atom                 a.u.       MegaHertz       Gauss      10(-4) cm-1
     1  C(13)              0.00084       0.94772       0.33817       0.31613
     2  C(13)              0.01480      16.63720       5.93657       5.54957
     3  C(13)             -0.01917     -21.54814      -7.68891      -7.18769
     4  O(17)              0.00207      -1.25194      -0.44672      -0.41760
     5  H(1)               0.00011       0.49351       0.17610       0.16462
     6  O(17)              0.01567      -9.49816      -3.38918      -3.16825
     7  H(1)               0.00161       7.18444       2.56359       2.39647
     8  C(13)              0.07044      79.19084      28.25726      26.41522
     9  C(13)             -0.00111      -1.24237      -0.44331      -0.41441
    10  H(1)              -0.00010      -0.44556      -0.15899      -0.14862
    11  O(17)              0.00103      -0.62347      -0.22247      -0.20797
    12  C(13)             -0.00023      -0.25487      -0.09094      -0.08502
    13  H(1)               0.00091       4.06186       1.44937       1.35489
    14  O(17)              0.00033      -0.20056      -0.07157      -0.06690
    15  H(1)               0.00065       2.90745       1.03745       0.96982
    16  H(1)              -0.00001      -0.05687      -0.02029      -0.01897
    17  H(1)              -0.00009      -0.39895      -0.14236      -0.13308
    18  H(1)               0.00034       1.53394       0.54735       0.51167
    19  H(1)              -0.00022      -0.99869      -0.35636      -0.33313
[...]
 00001973,0.00000710,0.00001632,-0.00041592,-0.00007551,-0.00029407,-0.
 05126545,0.05271642,-0.07636575,0.09238400,-0.16739038,0.17562964,-0.0
 0042239,0.00055548,0.00012836,-0.00045434,0.00012205,-0.00022977,-0.00
 234974,-0.00053655,0.00055077,0.00057934,-0.00071664,-0.00005981,0.000
 09489,0.00005042,0.00020435,0.00166754,0.00034326,0.00032357,0.0006306
 1,-0.00035037,0.00031022,0.01985975,0.00295171,-0.00055559,-0.00084380
 ,-0.00014748,0.00016169,-0.00011375,-0.00007755,0.00013184,0.00053854,
 -0.00029757,-0.00015929,-0.00036486,0.00023959,-0.00043492,0.00022229,
 -0.00011672,0.00003932,0.00082521,0.00007206,0.00045393,0.00011247,-0.
 00001511,-0.00001045,-0.00000902,-0.00001151,0.00011939,-0.00014256,0.
 00003216,0.00001914,-0.00007480,0.00012257,0.00003386,-0.00098799,-0.0
 0045184,-0.00044148,-0.05742296,0.03328727,-0.02618477,-0.05933196,-0.
 03640389,0.02575381,0.89071533,0.00087738,0.00202063,0.00007669,-0.001
 44407,-0.00175252,-0.00217000,-0.00063033,0.00010904,0.00454217,-0.000
 49231,0.00016960,0.00052482,0.00021180,0.00040145,-0.00017413,-0.00180
 587,-0.00210192,0.00019742,0.00089138,-0.00021717,0.00015824,-0.006487
 63,-0.01301653,0.00242898,0.00026802,0.00007573,-0.00049373,-0.0004899
 4,-0.00012468,0.00018641,-0.00114415,-0.00052341,0.00023348,-0.0009549
 9,0.00125267,-0.00103581,-0.00016609,-0.00017047,0.00011363,0.00179010
 ,-0.00066655,0.00106497,0.00017372,-0.00021818,0.00012564,0.00007100,-
 0.00013678,0.00019431,0.00031832,0.00005955,0.00013112,-0.00015140,0.0
 0004037,-0.00016020,-0.00222005,-0.00053465,-0.00124358,0.02898571,-0.
 00829348,0.00350225,0.01696704,-0.17099581,0.06297706,-0.05835379,0.45
 006492,-0.00064636,-0.00118334,0.00013168,0.00078087,0.00120201,0.0012
 9989,-0.00034100,0.00106124,-0.00166917,0.00013112,-0.00021348,-0.0004
 4070,-0.00012010,-0.00030283,-0.00004714,0.00204598,0.00125974,-0.0003
 3712,-0.00047193,0.00030227,-0.00017633,0.00694455,0.00406978,-0.00913
 074,-0.00050050,-0.00009028,0.00064192,0.00036941,0.00013753,-0.000112
 55,0.00068863,0.00020089,-0.00027604,0.00064436,-0.00073702,0.00060465
 ,0.00021868,0.00011221,-0.00010656,-0.00094718,0.00042696,-0.00073405,
 -0.00008339,0.00015870,-0.00007259,-0.00006193,0.00004722,-0.00013279,
 -0.00018574,0.00002210,-0.00004364,0.00017574,0.00001213,0.00011676,0.
 00118827,0.00021005,0.00083410,-0.02332142,0.00291942,-0.00911361,-0.0
 0920722,0.06003996,-0.11642556,0.07921342,-0.16229038,0.32260065,0.000
 48815,-0.00167789,0.00043125,0.00081441,-0.00030737,0.00098835,0.00234
 364,-0.00028872,-0.00135646,-0.00025631,0.00102069,-0.00023391,-0.0002
 0905,-0.00043863,-0.00010540,-0.00013210,0.00141859,-0.00121798,-0.000
 66056,0.00041035,-0.00019176,-0.01899992,0.02154923,-0.01554202,0.0008
 4338,-0.00013105,0.00044546,0.00070237,0.00020793,-0.00048888,-0.00041
 467,0.00085990,-0.00011296,0.00114132,-0.00120969,0.00154235,-0.000129
 72,0.00026149,-0.00019508,-0.00263267,-0.00009237,-0.00179420,-0.00028
 928,0.00018729,-0.00014534,-0.00010104,0.00011638,-0.00039136,-0.00005
 702,-0.00007333,-0.00005532,0.00005598,-0.00024005,-0.00004967,0.00356
 062,0.00200428,0.00242282,-0.00706387,-0.00003239,-0.00000929,0.013662
 44,-0.00713830,0.00519147,-0.15242483,-0.03090667,0.01352951,0.7297323
 1,-0.00015199,-0.00083656,0.00026741,-0.00029471,0.00027587,0.00115610
 ,-0.00221896,-0.00537849,0.00309944,0.00016877,0.00017011,-0.00041660,
 -0.00012335,-0.00018840,-0.00022119,0.00025969,0.00149274,-0.00053951,
 0.00167746,-0.00020186,0.00028846,0.03432067,-0.00075183,0.00931087,-0
 .00031886,0.00010549,0.00032756,0.00033926,0.00011736,-0.00022494,0.00
 022453,0.00037896,-0.00020514,0.00057612,-0.00064835,0.00049577,-0.000
 00815,0.00002886,-0.00006278,-0.00100558,0.00022645,-0.00066152,-0.000
 07969,0.00012494,-0.00004159,-0.00003156,0.00005374,-0.00010738,-0.000
 16802,-0.00003603,-0.00002573,0.00000851,-0.00005707,-0.00003350,0.000
 93226,0.00035497,0.00079517,-0.00794821,0.00005175,-0.00060298,-0.0152
 6942,-0.03122718,0.02916943,-0.05808954,-0.17043515,0.07149176,-0.0315
 0338,0.58150150,0.00011120,0.00031004,-0.00007875,-0.00002283,-0.00014
 819,-0.00080554,0.00148278,0.00462482,-0.00091344,-0.00007368,-0.00002
 090,0.00033070,-0.00004758,0.00009669,0.00018555,-0.00013692,-0.001281
 53,0.00071837,-0.00109986,-0.00000857,-0.00022181,-0.02496924,0.009235
 86,0.00369809,0.00038667,0.00025984,-0.00031808,-0.00010627,0.00001198
 ,0.00009531,-0.00019513,-0.00011336,0.00013328,-0.00036332,0.00042982,
 -0.00040137,-0.00007191,-0.00005365,0.00004456,0.00078964,-0.00002693,
 0.00056712,0.00006152,-0.00008876,0.00007062,0.00006768,-0.00002982,0.
 00010952,0.00007410,-0.00001204,-0.00000865,-0.00004499,0.00003359,0.0
 0001154,-0.00094354,-0.00066180,-0.00077468,0.00500528,0.00019576,0.00
 039756,0.01011056,0.02956601,-0.00511993,0.03342305,0.07433580,-0.1037
 2822,0.05546160,-0.35378724,0.30624453,-0.00141947,0.00250510,-0.00012
 276,-0.00167302,0.00096744,-0.00380578,-0.00195569,0.03285295,-0.01801
 219,0.00080440,-0.00194410,0.00124539,0.00013791,0.00142749,0.00152811
 ,0.00292772,-0.00469338,0.00290472,-0.00593829,0.00018051,-0.00032250,
 -0.11470287,0.04279297,-0.03276883,-0.00165239,-0.00040091,-0.00055776
 ,-0.00106413,-0.00058630,0.00069055,0.00072414,-0.00138840,0.00016172,
 -0.00185640,0.00147378,-0.00204874,0.00070560,-0.00027422,0.00022326,0
 .00353746,0.00011287,0.00177504,0.00038187,-0.00027542,0.00014971,0.00
 008868,-0.00010371,0.00049714,0.00012228,0.00014382,0.00004996,-0.0000
 6520,0.00040683,0.00039703,-0.00581900,-0.00295268,-0.00170420,0.02176
 515,-0.02477045,0.01635536,-0.00313437,0.01763065,-0.01156210,-0.06008
 200,-0.04734545,0.02888083,-0.26986972,0.06106653,-0.05107697,0.760015
 35,0.00111459,0.00283914,-0.00082291,-0.00130869,-0.00172587,-0.002366
 63,0.01093823,0.00149763,0.00737147,-0.00044432,-0.00003113,0.00090248
 ,0.00078201,0.00031965,0.00026731,-0.00006416,-0.00411560,0.00127166,-
 0.00127643,0.00100056,0.00009708,0.03543440,-0.15375476,0.05112853,-0.
 00038250,-0.00067775,-0.00033939,-0.00093282,-0.00034536,0.00063512,-0
 .00111828,-0.00094133,0.00054289,-0.00206584,0.00213393,-0.00181813,0.
 00010125,-0.00022178,0.00010141,0.00373821,-0.00040254,0.00186678,0.00
 031327,-0.00041814,0.00013398,0.00009555,-0.00018533,0.00033189,0.0004
 5920,0.00003012,0.00014589,-0.00008419,0.00011633,0.00001319,-0.004684
 78,-0.00221803,-0.00175782,-0.02103462,-0.01784914,0.01738978,0.014987
 05,-0.00715345,0.00207052,0.00040274,0.02828513,-0.02566781,0.02858028
 ,-0.13078969,0.05301749,0.14195810,0.58637898,-0.00041703,-0.00215357,
 0.00017725,0.00064125,0.00213528,0.00310087,-0.00684826,-0.00084391,-0
 .00053131,-0.00035660,0.00030595,-0.00084929,-0.00008270,-0.00074896,-
 0.00087234,0.00243761,0.00559429,-0.00093529,0.00085822,0.00026174,0.0
 0106721,-0.02877631,0.05334224,-0.11559835,-0.00120871,-0.00037380,0.0
 0102232,0.00050541,0.00029629,-0.00042049,0.00093988,0.00047683,-0.000
 50637,0.00121969,-0.00136272,0.00119837,0.00029423,0.00007031,-0.00014
 533,-0.00313308,0.00000220,-0.00175475,-0.00019996,0.00031618,-0.00018
 169,-0.00015979,0.00006662,-0.00029229,-0.00027328,0.00009327,-0.00002
 928,0.00016699,-0.00003832,0.00002627,0.00388057,0.00184607,0.00237909
 ,0.01716423,0.01689169,-0.00073055,-0.01109936,0.00164483,-0.00746086,
 -0.00186520,-0.02691185,0.00734108,-0.02974842,0.05589748,-0.09117572,
 -0.08008378,-0.27382033,0.37480925,-0.00003031,-0.00004183,0.00003165,
 -0.00015772,-0.00010287,-0.00003592,0.00112976,-0.00217592,0.00161120,
 0.00005139,0.00007453,-0.00008413,0.00004409,-0.00000651,-0.00008231,0
 .00022190,0.00068757,-0.00014662,-0.00037139,0.00066466,-0.00052984,0.
 00643214,-0.01865962,0.01242226,-0.00019462,0.00001607,0.00008271,0.00
 001493,0.00000402,-0.00001122,0.00006383,0.00002579,-0.00003252,0.0000
 5272,-0.00006193,0.00002205,0.00001529,-0.00001080,-0.00000324,-0.0000
 4551,0.00005566,-0.00004078,0.00000066,0.00001628,-0.00000834,-0.00000
 648,0.00000304,-0.00000073,-0.00003706,-0.00000489,0.00000364,-0.00000
 564,0.00002560,-0.00000796,0.00006064,-0.00001179,0.00005001,-0.061396
 02,0.03892577,-0.02762335,-0.01635168,0.03053602,-0.02081956,-0.002782
 29,-0.00121423,-0.00036619,0.00075414,0.00092812,-0.00046699,-0.004846
 92,-0.00053291,-0.00024009,0.07838335,0.00010145,-0.00007026,-0.000053
 53,0.00014443,0.00017472,0.00001101,0.00145324,-0.00089675,-0.00104255
 ,0.00004702,0.00001435,-0.00003924,0.00006845,-0.00004671,-0.00009129,
 0.00002282,0.00024806,-0.00016248,-0.00098003,0.00058677,-0.00043157,0
 .00563079,-0.00900205,0.01231526,-0.00016569,0.00001658,-0.00003415,0.
 00002850,0.00001606,-0.00002117,0.00004378,0.00004982,-0.00003915,0.00
 005195,-0.00006058,0.00005990,-0.00002418,-0.00001448,0.00000204,-0.00
 007455,0.00004776,-0.00006802,0.00000057,0.00001310,-0.00001278,-0.000
 00460,0.00000302,-0.00001444,-0.00002585,-0.00000079,0.00000459,-0.000
 00065,0.00001923,0.00000134,0.00009808,0.00000600,0.00008471,0.0381478
 9,-0.23434588,0.12891789,0.00877129,-0.00207647,-0.00045620,-0.0011082
 2,0.00638631,0.00537338,-0.00009602,-0.00017003,-0.00074235,-0.0035247
 6,0.00227202,0.00199048,-0.04925597,0.23962032,-0.00002595,-0.00006638
 ,-0.00011840,0.00025471,0.00050475,0.00017002,0.00001125,-0.00153517,-
 0.00183075,-0.00010249,-0.00028948,-0.00002116,-0.00004740,0.00002120,
 0.00000232,-0.00049779,-0.00027004,0.00028276,0.00070388,-0.00005316,0
 .00019836,-0.00405710,0.01091527,0.00110517,0.00006902,-0.00013305,-0.
 00004970,-0.00001354,0.00000891,0.00001003,0.00003818,-0.00004534,0.00
 000666,-0.00010275,0.00006335,-0.00001598,-0.00000328,0.00000274,0.000
 00222,0.00006896,-0.00003196,0.00002959,0.00000492,-0.00002672,0.00000
 088,-0.00000059,-0.00000860,0.00000569,0.00002735,0.00001866,0.0000034
 5,0.00008350,0.00001092,0.00000506,-0.00007617,-0.00002039,-0.00003506
 ,-0.02740339,0.12892872,-0.13373699,-0.00640231,0.00105743,-0.00392396
 ,-0.00019180,0.00516377,0.01053265,0.00000803,-0.00061264,-0.00085354,
 0.00176545,0.00222706,0.00477525,0.03612096,-0.14494358,0.12688448,-0.
 00004951,0.00008541,-0.00003947,0.00007407,0.00005167,-0.00019988,0.00
 067195,0.00159190,-0.00091898,0.00000928,-0.00004663,0.00008437,0.0000
 0338,0.00002680,0.00007567,0.00013737,-0.00026917,0.00017534,-0.000545
 54,0.00006773,-0.00008011,-0.00642277,-0.00035624,-0.00025597,0.000039
 96,-0.00000424,-0.00004879,-0.00004299,-0.00001200,0.00002986,0.000032
 18,-0.00005656,0.00002665,-0.00010644,0.00010208,-0.00010422,0.0000146
 7,-0.00000871,0.00001090,0.00018674,-0.00004896,0.00013473,0.00001885,
 -0.00002053,0.00000827,0.00000544,-0.00000639,0.00002941,0.00000711,0.
 00000444,-0.00000100,-0.00000767,0.00001988,0.00001885,-0.00017949,-0.
 00003765,-0.00014917,-0.00165795,0.00014170,-0.00019007,-0.00316550,-0
 .00577155,0.00331541,0.01791699,-0.01901402,0.01422441,-0.10280833,0.0
 8353848,-0.06179038,-0.00226117,0.03091062,-0.02177278,0.00016118,0.00
 001518,0.00005286,0.09506890,0.00012862,0.00003276,0.00000575,0.000097
 06,-0.00020779,0.00001639,-0.00027631,0.00034507,0.00016485,-0.0001049
 5,0.00010020,-0.00003742,0.00001263,-0.00003478,-0.00004924,-0.0001744
 8,-0.00005010,-0.00008101,-0.00002571,-0.00005359,-0.00006115,-0.00008
 461,0.00336761,0.00146014,0.00014428,0.00000684,0.00000903,0.00003361,
 0.00002777,-0.00001361,-0.00015527,0.00001263,0.00000315,-0.00001006,0
 .00004049,0.00001999,-0.00003349,0.00000088,-0.00000740,-0.00006964,-0
 .00018578,-0.00005420,-0.00001007,-0.00000347,-0.00000388,-0.00000423,
 -0.00000436,-0.00001939,0.00003188,0.00000363,0.00001078,0.00003633,-0
 .00001543,-0.00000221,0.00018048,0.00026917,0.00013168,-0.00068001,0.0
 0018441,-0.00078412,-0.00293567,0.00076099,0.00296536,0.00592003,-0.01
 374454,0.00892870,0.08319684,-0.28343823,0.18567594,0.00434946,0.00076
 422,0.00077160,0.00018632,-0.00034113,-0.00036804,-0.09047862,0.293725
 15,-0.00010021,-0.00000691,0.00001182,0.00003992,0.00011606,0.00008715
 ,0.00020050,0.00033356,0.00019707,0.00002969,-0.00010263,-0.00004177,-
 0.00000744,0.00000552,0.00001074,0.00007112,-0.00020315,-0.00004201,0.
 00001092,-0.00005030,-0.00003795,-0.00043636,0.00145846,0.00439142,-0.
 00010486,0.00002317,-0.00000471,-0.00002704,0.00000139,0.00003388,0.00
 009640,-0.00005647,-0.00004494,-0.00002731,0.00004021,-0.00003885,0.00
 001942,-0.00000999,0.00000644,0.00010466,-0.00003372,-0.00002196,0.000
 01713,-0.00000274,0.00000303,-0.00001098,-0.00000535,-0.00000220,-0.00
 000874,0.00001288,0.00000523,0.00002182,0.00002021,0.00002704,-0.00017
 058,-0.00000650,0.00003586,0.00029869,-0.00064778,-0.00032025,0.001355
 91,0.00265743,0.00361516,-0.00316595,0.00672734,-0.00592950,-0.0616262
 4,0.18685270,-0.15056603,-0.00309840,0.00197766,-0.00006207,-0.0000676
 5,-0.00036225,-0.00066370,0.06652357,-0.19434249,0.15419941,0.00064343
 ,-0.00001496,0.00004957,0.00000257,-0.00083683,-0.00022570,0.00127653,
 0.00041537,0.00036796,-0.00046709,0.00074678,0.00010356,-0.00002978,-0
 .00003163,-0.00017708,-0.00132311,-0.00030833,-0.00024763,-0.00026217,
 0.00007261,-0.00008478,-0.01212474,-0.00157189,0.00012554,0.00073133,0
 .00003623,-0.00013525,0.00008698,0.00003558,-0.00012707,-0.00073960,0.
 00023199,0.00013072,0.00017187,-0.00005171,0.00030185,-0.00019990,0.00
 007195,-0.00003475,-0.00054076,-0.00023521,-0.00033965,-0.00008020,-0.
 00001546,0.00000135,0.00000535,-0.00000139,-0.00010232,0.00014736,-0.0
 0003308,0.00001366,-0.00001094,-0.00013233,-0.00008196,0.00065232,0.00
 051872,0.00041267,0.02601343,0.00740576,-0.00311947,-0.05566269,0.0562
 7879,-0.04206320,-0.60736760,0.09884165,-0.09831228,-0.10820884,-0.013
 25301,0.00076429,0.02282900,-0.01524905,0.01054329,-0.00160602,0.00057
 299,-0.00033939,-0.00085379,0.00247805,-0.00135132,0.74730397,-0.00041
 723,-0.00056956,-0.00000835,0.00033554,0.00070390,0.00061119,-0.000056
 77,0.00000970,-0.00124701,0.00024234,-0.00018359,-0.00015334,-0.000051
 40,-0.00009655,0.00007827,0.00088358,0.00065818,-0.00002675,-0.0002755
 4,0.00011007,-0.00008512,0.00056843,0.00102166,-0.00073257,-0.00029880
 ,-0.00001999,0.00020454,0.00010799,0.00001958,-0.00002794,0.00051331,0
 .00009484,-0.00009880,0.00026275,-0.00036683,0.00021718,0.00010443,0.0
 0003571,-0.00002418,-0.00038302,0.00028316,-0.00022435,-0.00002945,0.0
 0007162,-0.00003301,-0.00002338,0.00003666,-0.00002731,-0.00013014,-0.
 00000937,-0.00003997,0.00002451,0.00001888,0.00005847,0.00042944,-0.00
 000550,0.00024537,-0.00198251,-0.00507215,0.00480138,0.05463106,-0.013
 77772,0.02640115,0.11149561,-0.11078117,0.03072073,-0.03732911,0.02170
 891,-0.00252142,0.00771587,-0.00322321,0.00635015,0.00168449,-0.000767
 19,-0.00058984,0.00291678,0.00090862,-0.00256841,-0.13597945,0.1103868
 4,0.00034458,0.00042170,0.00001453,-0.00026053,-0.00064703,-0.00055924
 ,0.00003693,0.00000946,0.00083575,-0.00014409,0.00024080,0.00016447,0.
 00004695,0.00006839,-0.00002472,-0.00067754,-0.00038716,0.00002551,0.0
 0017916,-0.00010073,0.00004977,-0.00122359,-0.00127879,-0.00007328,0.0
 0027472,-0.00000590,-0.00013965,-0.00008372,-0.00004152,0.00000453,-0.
 00040357,-0.00002002,0.00011476,-0.00013705,0.00018997,-0.00011387,-0.
 00007891,-0.00000912,0.00001460,0.00014998,-0.00015821,0.00014999,0.00
 000319,-0.00004346,0.00001790,0.00001910,-0.00001359,0.00001848,0.0000
 9102,-0.00001194,0.00001817,-0.00006352,-0.00004040,-0.00006697,-0.000
 17006,0.00004136,-0.00015842,0.00307639,0.00547516,-0.00088601,-0.0410
 9389,0.02660807,0.00067669,-0.10640878,0.02983025,-0.10116966,0.016833
 74,-0.00101803,0.02281273,-0.00391755,0.00557567,0.00284951,-0.0011030
 5,-0.00067119,-0.00140341,-0.00188125,-0.00264311,-0.00150988,0.134101
 72,-0.06096882,0.07962266,-0.00011321,-0.00319510,0.00134045,0.0014511
 2,0.00030659,0.00221461,-0.00320199,-0.00562672,-0.00115609,-0.0003336
 1,0.00126461,-0.00071609,-0.00041721,-0.00062112,-0.00069824,-0.001440
 16,0.00577816,-0.00463854,0.00075154,0.00010892,-0.00014669,0.00725303
 ,-0.02485051,0.01843665,0.00171186,0.00015295,0.00081682,0.00013668,0.
 00121856,-0.00109856,-0.00016685,0.00143983,-0.00053251,0.00188692,-0.
 00198667,0.00210012,-0.00035061,0.00032726,-0.00018053,-0.00543273,-0.
 00148906,-0.00338440,-0.00046277,0.00037091,-0.00022269,-0.00018844,0.
 00017591,-0.00051035,-0.00029287,-0.00002414,-0.00009129,0.00009285,-0
 .00029709,-0.00013618,0.00221891,0.00262209,0.00178027,0.00514501,0.00
 377451,-0.00177135,-0.00334648,-0.00672663,0.00405373,0.01201195,0.023
 42488,-0.01447055,-0.08984081,-0.05357595,0.03367122,-0.33769892,-0.22
 063690,0.14761400,0.00044562,0.00006208,0.00005488,0.00375308,-0.00175
 247,0.00141331,-0.01038693,-0.00495933,0.00248964,0.41681504,-0.000915
 33,-0.00151606,-0.00020527,-0.00013603,0.00150150,0.00056181,-0.003780
 96,-0.00087003,-0.00420893,0.00083754,-0.00021507,-0.00007683,0.000179
 76,-0.00023459,0.00042613,0.00204773,0.00282578,0.00109736,-0.00005565
 ,0.00041141,-0.00014789,-0.03212597,-0.03542938,0.03817921,-0.00073840
 ,-0.00019333,0.00025649,0.00071716,-0.00068594,-0.00024386,0.00104230,
 0.00058263,0.00001274,0.00182726,-0.00306122,0.00257162,0.00012913,0.0
 0037000,-0.00008817,-0.00604930,0.00101264,-0.00332219,-0.00051698,0.0
 0051166,-0.00039131,-0.00020874,0.00032684,-0.00051858,-0.00027135,-0.
 00013666,-0.00014827,-0.00005197,-0.00004617,0.00009258,0.00585650,0.0
 0124626,0.00293701,0.01151173,-0.00364618,0.00317469,-0.00433357,-0.00
 022092,0.00008452,0.00108183,0.00484762,0.00178838,-0.02834828,0.01756
 722,0.00170292,-0.22732458,-0.30158459,0.15789996,-0.00175466,-0.00168
 180,0.00007162,-0.00334145,-0.00247125,-0.00182791,0.00000785,-0.00119
 553,-0.00040182,0.28471442,0.32198517,0.00038157,0.00152306,-0.0006982
 5,-0.00073416,-0.00119198,-0.00235468,0.00140967,-0.00155651,-0.000202
 82,0.00043987,-0.00043799,0.00094525,0.00045249,0.00074660,0.00076458,
 -0.00435950,0.00160786,-0.00302278,0.00009535,-0.00003335,0.00008367,0
 .02316322,0.03743027,-0.00631764,0.00200260,-0.00006512,-0.00089999,-0
 .00081860,-0.00038649,0.00021079,-0.00036867,-0.00038623,0.00067252,-0
 .00041932,0.00026153,-0.00002348,-0.00041082,0.00005405,0.00023021,0.0
 0041038,-0.00024436,0.00096118,-0.00008510,-0.00010529,-0.00005576,0.0
 0007941,0.00004592,0.00013968,0.00019687,-0.00013925,-0.00005474,-0.00
 023067,0.00009959,-0.00004865,-0.00120847,-0.00027078,-0.00223168,-0.0
 0855478,0.00304274,-0.00194809,0.00320880,-0.00003547,0.00012593,-0.00
 115890,0.00196532,0.00554258,0.01640970,-0.00059137,0.01954628,0.15245
 728,0.15952518,-0.17720050,0.00132602,0.00042536,-0.00136194,0.0027217
 7,-0.00169608,-0.00333845,-0.00017435,-0.00031123,-0.00128493,-0.18623
 164,-0.19927600,0.17182171\\0.00000036,-0.00000654,-0.00000162,-0.0000
 0366,0.00001392,0.00000832,0.00000782,-0.00001751,-0.00001960,0.000001
 90,-0.00000288,0.00000221,0.00000360,-0.00000269,-0.00000301,-0.000019
 29,0.00001207,0.00001391,-0.00000028,-0.00000135,0.00000067,0.00000081
 ,0.00000043,-0.00000441,0.00002287,-0.00000324,-0.00000456,-0.00000197
 ,0.00000045,0.00000155,-0.00000865,-0.00000544,-0.00000180,0.00000715,
 -0.00000037,0.00000265,-0.00000479,-0.00000197,-0.00000167,-0.00000624
 ,-0.00000197,-0.00001010,-0.00000237,0.00000414,0.00000487,-0.00000219
 ,-0.00000311,0.00000020,0.00000340,0.00000099,0.00000226,-0.00000075,0
 .00000047,-0.00000035,0.00000099,0.00000823,0.00000346,-0.00001331,0.0
 0000624,0.00000786,0.00001064,-0.00001412,0.00001417,-0.00002745,0.000
 02301,-0.00001363,0.00000931,-0.00000207,-0.00000620,0.00000475,-0.000
 00015,0.00000163,0.00000200,-0.00000162,-0.00000379,-0.00000207,0.0000
 0149,-0.00000001,0.00001887,-0.00000764,0.00000281,-0.00000146,0.00000
 123,0.00000418\\\@
 The archive entry for this job was punched.


 One man practicing sportsmanship is far better than 50 preaching it.
 -- Knute K. Rockne
 Job cpu time:       0 days 17 hours 33 minutes 53.2 seconds.
 Elapsed time:       0 days  0 hours 26 minutes 35.5 seconds.
 File lengths (MBytes):  RWF=   1167 Int=      0 D2E=      0 Chk=     28 Scr=      1
 Normal termination of Gaussian 16 at Mon Oct 28 00:59:32 2024.
