 Entering Gaussian System, Link 0=g16
 Input=PseudoUridineAmNallgPBE0aVDZ.gjf
 Output=PseudoUridineAmNallgPBE0aVDZ.log
 Initial command:
 /sw/contrib/chem-src/g16/c01/g16/l1.exe "/scr/Gau-36255.inp" -scrdir="/scr/"
 Entering Link 1 = /sw/contrib/chem-src/g16/c01/g16/l1.exe PID=     36256.
  
 Copyright (c) 1988-2019, Gaussian, Inc.  All Rights Reserved.
  
 This is part of the Gaussian(R) 16 program.  It is based on
 the Gaussian(R) 09 system (copyright 2009, Gaussian, Inc.),
 the Gaussian(R) 03 system (copyright 2003, Gaussian, Inc.),
 the Gaussian(R) 98 system (copyright 1998, Gaussian, Inc.),
 the Gaussian(R) 94 system (copyright 1995, Gaussian, Inc.),
 the Gaussian 92(TM) system (copyright 1992, Gaussian, Inc.),
 the Gaussian 90(TM) system (copyright 1990, Gaussian, Inc.),
 the Gaussian 88(TM) system (copyright 1988, Gaussian, Inc.),
 the Gaussian 86(TM) system (copyright 1986, Carnegie Mellon
 University), and the Gaussian 82(TM) system (copyright 1983,
 Carnegie Mellon University). Gaussian is a federally registered
 trademark of Gaussian, Inc.
  
 This software contains proprietary and confidential information,
 including trade secrets, belonging to Gaussian, Inc.
  
 This software is provided under written license and may be
 used, copied, transmitted, or stored only in accord with that
 written license.
  
 The following legend is applicable only to US Government
 contracts under FAR:
  
                    RESTRICTED RIGHTS LEGEND
  
 Use, reproduction and disclosure by the US Government is
 subject to restrictions as set forth in subparagraphs (a)
 and (c) of the Commercial Computer Software - Restricted
 Rights clause in FAR 52.227-19.
  
 Gaussian, Inc.
 340 Quinnipiac St., Bldg. 40, Wallingford CT 06492
  
  
 ---------------------------------------------------------------
 Warning -- This program may not be used in any manner that
 competes with the business of Gaussian, Inc. or will provide
 assistance to any competitor of Gaussian, Inc.  The licensee
 of this program is prohibited from giving any competitor of
 Gaussian, Inc. access to this program.  By using this program,
 the user acknowledges that Gaussian, Inc. is engaged in the
 business of creating and licensing software in the field of
 computational chemistry and represents and warrants to the
 licensee that it is not a competitor of Gaussian, Inc. and that
 it will not use this program in any manner prohibited above.
 ---------------------------------------------------------------
  

 Cite this work as:
 Gaussian 16, Revision C.01,
 M. J. Frisch, G. W. Trucks, H. B. Schlegel, G. E. Scuseria, 
 M. A. Robb, J. R. Cheeseman, G. Scalmani, V. Barone, 
 G. A. Petersson, H. Nakatsuji, X. Li, M. Caricato, A. V. Marenich, 
 J. Bloino, B. G. Janesko, R. Gomperts, B. Mennucci, H. P. Hratchian, 
 J. V. Ortiz, A. F. Izmaylov, J. L. Sonnenberg, D. Williams-Young, 
 F. Ding, F. Lipparini, F. Egidi, J. Goings, B. Peng, A. Petrone, 
 T. Henderson, D. Ranasinghe, V. G. Zakrzewski, J. Gao, N. Rega, 
 G. Zheng, W. Liang, M. Hada, M. Ehara, K. Toyota, R. Fukuda, 
 J. Hasegawa, M. Ishida, T. Nakajima, Y. Honda, O. Kitao, H. Nakai, 
 T. Vreven, K. Throssell, J. A. Montgomery, Jr., J. E. Peralta, 
 F. Ogliaro, M. J. Bearpark, J. J. Heyd, E. N. Brothers, K. N. Kudin, 
 V. N. Staroverov, T. A. Keith, R. Kobayashi, J. Normand, 
 K. Raghavachari, A. P. Rendell, J. C. Burant, S. S. Iyengar, 
 J. Tomasi, M. Cossi, J. M. Millam, M. Klene, C. Adamo, R. Cammi, 
 J. W. Ochterski, R. L. Martin, K. Morokuma, O. Farkas, 
 J. B. Foresman, and D. J. Fox, Gaussian, Inc., Wallingford CT, 2019.
 
 ******************************************
 Gaussian 16:  EM64L-G16RevC.01  3-Jul-2019
                27-Oct-2024 
 ******************************************
 %nprocshared=40
 Will use up to   40 processors via shared memory.
 %mem=50gb
 ------------------------------------------------------
 # PBE1PBE/aug-cc-pVDZ opt freq EmpiricalDispersion=GD3
 ------------------------------------------------------
 1/18=20,19=15,26=3,38=1/1,3;
 2/9=110,12=2,17=6,18=5,40=1/2;
 3/5=16,7=10,11=2,25=1,30=1,71=1,74=-13,124=31/1,2,3;
 4//1;
 5/5=2,38=5/2;
 6/7=2,8=2,9=2,10=2,28=1/1;
 7//1,2,3,16;
 1/18=20,19=15,26=3/3(2);
 2/9=110/2;
 99//99;
 2/9=110/2;
 3/5=16,7=10,11=2,25=1,30=1,71=1,74=-13,124=31/1,2,3;
 4/5=5,16=3,69=1/1;
 5/5=2,38=5/2;
 7//1,2,3,16;
 1/18=20,19=15,26=3/3(-5);
 2/9=110/2;
 6/7=2,8=2,9=2,10=2,19=2,28=1/1;
 99/9=1/99;
 ----
 blah
 ----
 Symbolic Z-matrix:
 Charge = -1 Multiplicity = 1
 C                     2.38969  -0.25989  -0.61819 
 C                     1.22953  -1.27878  -0.59585 
 C                     0.403    -0.88316   0.64111 
 O                     1.69452  -2.6028   -0.38508 
 H                     0.63488  -1.22519  -1.51845 
 O                     1.04798   0.22907   1.25039 
 H                     0.42568  -1.75024   1.32337 
 C                    -1.02076  -0.51499   0.37088 
 C                     2.39367   0.32073   0.799 
 H                     2.16275   0.53719  -1.33351 
 O                     3.62032  -0.81752  -1.01334 
 C                     2.80484   1.77682   0.88551 
 H                     3.05698  -0.28811   1.44554 
 O                     2.08202   2.59794  -0.00044 
 H                     3.86833   1.86128   0.61993 
 H                     2.68502   2.1109    1.93139 
 H                     3.84791  -1.50003  -0.37091 
 H                     2.18039  -2.86526  -1.17472 
 H                     1.1678    2.28229  -0.03597 
 C                    -2.05969  -1.17561   0.92977 
 N                    -3.36251  -0.84118   0.68063 
 C                    -3.74065   0.20305  -0.14537 
 N                    -2.66667   0.8713   -0.69598 
 C                    -1.30961   0.60879  -0.51392 
 H                    -1.90895  -2.01451   1.60826 
 H                    -2.89829   1.64713  -1.30538 
 O                    -4.90055   0.49273  -0.35643 
 O                    -0.47349   1.2956   -1.08338 
 

 GradGradGradGradGradGradGradGradGradGradGradGradGradGradGradGradGradGrad
 Berny optimization.
 Initialization pass.
                           ----------------------------
                           !    Initial Parameters    !
                           ! (Angstroms and Degrees)  !
 --------------------------                            --------------------------
 ! Name  Definition              Value          Derivative Info.                !
 --------------------------------------------------------------------------------
 ! R1    R(1,2)                  1.5442         estimate D2E/DX2                !
 ! R2    R(1,9)                  1.5315         estimate D2E/DX2                !
 ! R3    R(1,10)                 1.0948         estimate D2E/DX2                !
 ! R4    R(1,11)                 1.4077         estimate D2E/DX2                !
 ! R5    R(2,3)                  1.5394         estimate D2E/DX2                !
 ! R6    R(2,4)                  1.419          estimate D2E/DX2                !
 ! R7    R(2,5)                  1.0989         estimate D2E/DX2                !
 ! R8    R(3,6)                  1.4228         estimate D2E/DX2                !
 ! R9    R(3,7)                  1.1035         estimate D2E/DX2                !
 ! R10   R(3,8)                  1.4952         estimate D2E/DX2                !
 ! R11   R(4,18)                 0.9636         estimate D2E/DX2                !
 ! R12   R(6,9)                  1.4223         estimate D2E/DX2                !
 ! R13   R(8,20)                 1.3521         estimate D2E/DX2                !
 ! R14   R(8,24)                 1.4592         estimate D2E/DX2                !
 ! R15   R(9,12)                 1.5155         estimate D2E/DX2                !
 ! R16   R(9,13)                 1.1085         estimate D2E/DX2                !
 ! R17   R(11,17)                0.9645         estimate D2E/DX2                !
 ! R18   R(12,14)                1.4077         estimate D2E/DX2                !
 ! R19   R(12,15)                1.0994         estimate D2E/DX2                !
 ! R20   R(12,16)                1.1045         estimate D2E/DX2                !
 ! R21   R(14,19)                0.9678         estimate D2E/DX2                !
 ! R22   R(20,21)                1.3679         estimate D2E/DX2                !
 ! R23   R(20,25)                1.0894         estimate D2E/DX2                !
 ! R24   R(21,22)                1.3841         estimate D2E/DX2                !
 ! R25   R(22,23)                1.3796         estimate D2E/DX2                !
 ! R26   R(22,27)                1.214          estimate D2E/DX2                !
 ! R27   R(23,24)                1.3942         estimate D2E/DX2                !
 ! R28   R(23,26)                1.0134         estimate D2E/DX2                !
 ! R29   R(24,28)                1.2227         estimate D2E/DX2                !
 ! A1    A(2,1,9)              103.8102         estimate D2E/DX2                !
 ! A2    A(2,1,10)             109.518          estimate D2E/DX2                !
 ! A3    A(2,1,11)             113.5464         estimate D2E/DX2                !
 ! A4    A(9,1,10)             109.2162         estimate D2E/DX2                !
 ! A5    A(9,1,11)             114.0585         estimate D2E/DX2                !
 ! A6    A(10,1,11)            106.632          estimate D2E/DX2                !
 ! A7    A(1,2,3)              104.2078         estimate D2E/DX2                !
 ! A8    A(1,2,4)              111.8139         estimate D2E/DX2                !
 ! A9    A(1,2,5)              111.2357         estimate D2E/DX2                !
 ! A10   A(3,2,4)              107.24           estimate D2E/DX2                !
 ! A11   A(3,2,5)              111.8103         estimate D2E/DX2                !
 ! A12   A(4,2,5)              110.3353         estimate D2E/DX2                !
 ! A13   A(2,3,6)              107.5542         estimate D2E/DX2                !
 ! A14   A(2,3,7)              106.4883         estimate D2E/DX2                !
 ! A15   A(2,3,8)              115.4239         estimate D2E/DX2                !
 ! A16   A(6,3,7)              109.8866         estimate D2E/DX2                !
 ! A17   A(6,3,8)              108.4554         estimate D2E/DX2                !
 ! A18   A(7,3,8)              108.9521         estimate D2E/DX2                !
 ! A19   A(2,4,18)             107.3165         estimate D2E/DX2                !
 ! A20   A(3,6,9)              110.0822         estimate D2E/DX2                !
 ! A21   A(3,8,20)             122.4557         estimate D2E/DX2                !
 ! A22   A(3,8,24)             119.1911         estimate D2E/DX2                !
 ! A23   A(20,8,24)            118.3483         estimate D2E/DX2                !
 ! A24   A(1,9,6)              105.4729         estimate D2E/DX2                !
 ! A25   A(1,9,12)             114.6947         estimate D2E/DX2                !
 ! A26   A(1,9,13)             109.4543         estimate D2E/DX2                !
 ! A27   A(6,9,12)             107.4867         estimate D2E/DX2                !
 ! A28   A(6,9,13)             110.2216         estimate D2E/DX2                !
 ! A29   A(12,9,13)            109.3954         estimate D2E/DX2                !
 ! A30   A(1,11,17)            107.4348         estimate D2E/DX2                !
 ! A31   A(9,12,14)            112.6561         estimate D2E/DX2                !
 ! A32   A(9,12,15)            108.8122         estimate D2E/DX2                !
 ! A33   A(9,12,16)            108.3758         estimate D2E/DX2                !
 ! A34   A(14,12,15)           107.4493         estimate D2E/DX2                !
 ! A35   A(14,12,16)           111.336          estimate D2E/DX2                !
 ! A36   A(15,12,16)           108.087          estimate D2E/DX2                !
 ! A37   A(12,14,19)           108.5366         estimate D2E/DX2                !
 ! A38   A(8,20,21)            122.4847         estimate D2E/DX2                !
 ! A39   A(8,20,25)            121.8272         estimate D2E/DX2                !
 ! A40   A(21,20,25)           115.6879         estimate D2E/DX2                !
 ! A41   A(20,21,22)           123.5962         estimate D2E/DX2                !
 ! A42   A(21,22,23)           113.0145         estimate D2E/DX2                !
 ! A43   A(21,22,27)           123.0112         estimate D2E/DX2                !
 ! A44   A(23,22,27)           123.9743         estimate D2E/DX2                !
 ! A45   A(22,23,24)           127.9119         estimate D2E/DX2                !
 ! A46   A(22,23,26)           115.6542         estimate D2E/DX2                !
 ! A47   A(24,23,26)           116.4339         estimate D2E/DX2                !
 ! A48   A(8,24,23)            114.6384         estimate D2E/DX2                !
 ! A49   A(8,24,28)            125.4243         estimate D2E/DX2                !
 ! A50   A(23,24,28)           119.936          estimate D2E/DX2                !
 ! D1    D(9,1,2,3)             17.4274         estimate D2E/DX2                !
 ! D2    D(9,1,2,4)            -98.081          estimate D2E/DX2                !
 ! D3    D(9,1,2,5)            138.0621         estimate D2E/DX2                !
 ! D4    D(10,1,2,3)           -99.1065         estimate D2E/DX2                !
 ! D5    D(10,1,2,4)           145.385          estimate D2E/DX2                !
 ! D6    D(10,1,2,5)            21.5282         estimate D2E/DX2                !
 ! D7    D(11,1,2,3)           141.8334         estimate D2E/DX2                !
 ! D8    D(11,1,2,4)            26.325          estimate D2E/DX2                !
 ! D9    D(11,1,2,5)           -97.5319         estimate D2E/DX2                !
 ! D10   D(2,1,9,6)            -28.6126         estimate D2E/DX2                !
 ! D11   D(2,1,9,12)          -146.6767         estimate D2E/DX2                !
 ! D12   D(2,1,9,13)            89.9516         estimate D2E/DX2                !
 ! D13   D(10,1,9,6)            88.1328         estimate D2E/DX2                !
 ! D14   D(10,1,9,12)          -29.9312         estimate D2E/DX2                !
 ! D15   D(10,1,9,13)         -153.3029         estimate D2E/DX2                !
 ! D16   D(11,1,9,6)          -152.6868         estimate D2E/DX2                !
 ! D17   D(11,1,9,12)           89.2492         estimate D2E/DX2                !
 ! D18   D(11,1,9,13)          -34.1225         estimate D2E/DX2                !
 ! D19   D(2,1,11,17)          -61.3799         estimate D2E/DX2                !
 ! D20   D(9,1,11,17)           57.2867         estimate D2E/DX2                !
 ! D21   D(10,1,11,17)         177.9205         estimate D2E/DX2                !
 ! D22   D(1,2,3,6)             -0.6549         estimate D2E/DX2                !
 ! D23   D(1,2,3,7)           -118.4108         estimate D2E/DX2                !
 ! D24   D(1,2,3,8)            120.5434         estimate D2E/DX2                !
 ! D25   D(4,2,3,6)            118.0252         estimate D2E/DX2                !
 ! D26   D(4,2,3,7)              0.2692         estimate D2E/DX2                !
 ! D27   D(4,2,3,8)           -120.7766         estimate D2E/DX2                !
 ! D28   D(5,2,3,6)           -120.904          estimate D2E/DX2                !
 ! D29   D(5,2,3,7)            121.34           estimate D2E/DX2                !
 ! D30   D(5,2,3,8)              0.2942         estimate D2E/DX2                !
 ! D31   D(1,2,4,18)           -68.7266         estimate D2E/DX2                !
 ! D32   D(3,2,4,18)           177.6319         estimate D2E/DX2                !
 ! D33   D(5,2,4,18)            55.6349         estimate D2E/DX2                !
 ! D34   D(2,3,6,9)            -18.3365         estimate D2E/DX2                !
 ! D35   D(7,3,6,9)             97.1937         estimate D2E/DX2                !
 ! D36   D(8,3,6,9)           -143.8057         estimate D2E/DX2                !
 ! D37   D(2,3,8,20)           120.6713         estimate D2E/DX2                !
 ! D38   D(2,3,8,24)           -60.1518         estimate D2E/DX2                !
 ! D39   D(6,3,8,20)          -118.6188         estimate D2E/DX2                !
 ! D40   D(6,3,8,24)            60.5581         estimate D2E/DX2                !
 ! D41   D(7,3,8,20)             0.9689         estimate D2E/DX2                !
 ! D42   D(7,3,8,24)          -179.8542         estimate D2E/DX2                !
 ! D43   D(3,6,9,1)             29.8069         estimate D2E/DX2                !
 ! D44   D(3,6,9,12)           152.6068         estimate D2E/DX2                !
 ! D45   D(3,6,9,13)           -88.2434         estimate D2E/DX2                !
 ! D46   D(3,8,20,21)         -179.8509         estimate D2E/DX2                !
 ! D47   D(3,8,20,25)           -0.0466         estimate D2E/DX2                !
 ! D48   D(24,8,20,21)           0.9657         estimate D2E/DX2                !
 ! D49   D(24,8,20,25)        -179.2301         estimate D2E/DX2                !
 ! D50   D(3,8,24,23)         -179.8026         estimate D2E/DX2                !
 ! D51   D(3,8,24,28)            0.6199         estimate D2E/DX2                !
 ! D52   D(20,8,24,23)          -0.5918         estimate D2E/DX2                !
 ! D53   D(20,8,24,28)         179.8307         estimate D2E/DX2                !
 ! D54   D(1,9,12,14)           51.3635         estimate D2E/DX2                !
 ! D55   D(1,9,12,15)          -67.6798         estimate D2E/DX2                !
 ! D56   D(1,9,12,16)          175.0125         estimate D2E/DX2                !
 ! D57   D(6,9,12,14)          -65.5556         estimate D2E/DX2                !
 ! D58   D(6,9,12,15)          175.4011         estimate D2E/DX2                !
 ! D59   D(6,9,12,16)           58.0934         estimate D2E/DX2                !
 ! D60   D(13,9,12,14)         174.7667         estimate D2E/DX2                !
 ! D61   D(13,9,12,15)          55.7234         estimate D2E/DX2                !
 ! D62   D(13,9,12,16)         -61.5843         estimate D2E/DX2                !
 ! D63   D(9,12,14,19)          37.4965         estimate D2E/DX2                !
 ! D64   D(15,12,14,19)        157.3307         estimate D2E/DX2                !
 ! D65   D(16,12,14,19)        -84.4946         estimate D2E/DX2                !
 ! D66   D(8,20,21,22)          -0.7736         estimate D2E/DX2                !
 ! D67   D(25,20,21,22)        179.4109         estimate D2E/DX2                !
 ! D68   D(20,21,22,23)          0.1716         estimate D2E/DX2                !
 ! D69   D(20,21,22,27)       -179.8087         estimate D2E/DX2                !
 ! D70   D(21,22,23,24)          0.1827         estimate D2E/DX2                !
 ! D71   D(21,22,23,26)       -179.749          estimate D2E/DX2                !
 ! D72   D(27,22,23,24)       -179.8372         estimate D2E/DX2                !
 ! D73   D(27,22,23,26)          0.2311         estimate D2E/DX2                !
 ! D74   D(22,23,24,8)           0.0279         estimate D2E/DX2                !
 ! D75   D(22,23,24,28)        179.6306         estimate D2E/DX2                !
 ! D76   D(26,23,24,8)         179.9592         estimate D2E/DX2                !
 ! D77   D(26,23,24,28)         -0.4381         estimate D2E/DX2                !
 --------------------------------------------------------------------------------
 Trust Radius=3.00D-01 FncErr=1.00D-07 GrdErr=1.00D-06 EigMax=2.50D+02 EigMin=1.00D-04
 Number of steps in this run=    166 maximum allowed number of steps=    168.
 GradGradGradGradGradGradGradGradGradGradGradGradGradGradGradGradGradGrad

                          Input orientation:                          
 ---------------------------------------------------------------------
 Center     Atomic      Atomic             Coordinates (Angstroms)
 Number     Number       Type             X           Y           Z
 ---------------------------------------------------------------------
      1          6           0        2.389694   -0.259892   -0.618189
      2          6           0        1.229529   -1.278783   -0.595846
      3          6           0        0.403004   -0.883164    0.641114
      4          8           0        1.694518   -2.602799   -0.385076
      5          1           0        0.634877   -1.225186   -1.518453
      6          8           0        1.047985    0.229073    1.250393
      7          1           0        0.425683   -1.750242    1.323372
      8          6           0       -1.020762   -0.514987    0.370876
      9          6           0        2.393672    0.320731    0.798997
     10          1           0        2.162749    0.537185   -1.333511
     11          8           0        3.620316   -0.817516   -1.013343
     12          6           0        2.804837    1.776823    0.885511
     13          1           0        3.056981   -0.288108    1.445539
     14          8           0        2.082017    2.597935   -0.000436
     15          1           0        3.868325    1.861284    0.619932
     16          1           0        2.685017    2.110901    1.931394
     17          1           0        3.847909   -1.500032   -0.370914
     18          1           0        2.180392   -2.865261   -1.174722
     19          1           0        1.167795    2.282293   -0.035971
     20          6           0       -2.059687   -1.175606    0.929773
     21          7           0       -3.362513   -0.841177    0.680630
     22          6           0       -3.740646    0.203045   -0.145370
     23          7           0       -2.666672    0.871301   -0.695981
     24          6           0       -1.309611    0.608787   -0.513918
     25          1           0       -1.908948   -2.014514    1.608259
     26          1           0       -2.898286    1.647129   -1.305384
     27          8           0       -4.900554    0.492732   -0.356428
     28          8           0       -0.473485    1.295595   -1.083384
 ---------------------------------------------------------------------
                    Distance matrix (angstroms):
                    1          2          3          4          5
     1  C    0.000000
     2  C    1.544222   0.000000
     3  C    2.433362   1.539392   0.000000
     4  O    2.454959   1.419034   2.382901   0.000000
     5  H    2.195826   1.098948   2.198744   2.074898   0.000000
     6  O    2.351780   2.390646   1.422776   3.333506   3.154685
     7  H    3.138175   2.133504   1.103546   2.292507   2.897484
     8  C    3.560131   2.565491   1.495223   3.507587   2.610572
     9  C    1.531521   2.420591   2.331748   3.230770   3.294510
    10  H    1.094770   2.170896   3.002205   3.313347   2.339775
    11  O    1.407665   2.470412   3.618375   2.700121   3.055189
    12  C    2.565476   3.743360   3.592223   4.693430   4.415861
    13  H    2.169111   2.913464   2.836333   3.250423   3.940806
    14  O    2.939976   4.013750   3.917744   5.229315   4.360601
    15  H    2.866824   4.278011   4.420508   5.065917   4.955217
    16  H    3.494030   4.471615   3.979552   5.344725   5.218620
    17  H    1.930151   2.637320   3.643089   2.419378   3.422859
    18  H    2.672356   1.938079   3.222589   0.963587   2.279608
    19  H    2.880055   3.605348   3.326179   4.925793   3.845018
    20  C    4.799136   3.627272   2.496737   4.226081   3.641009
    21  N    5.925598   4.786203   3.765958   5.460092   4.578488
    22  C    6.165950   5.205899   4.355255   6.121375   4.803166
    23  N    5.181938   4.451210   3.780064   5.584444   3.996491
    24  C    3.801359   3.164943   2.548150   4.399509   2.855448
    25  H    5.149184   3.905050   2.749626   4.159859   4.107361
    26  H    5.663188   5.109135   4.592358   6.324769   4.558380
    27  O    7.333667   6.385413   5.569193   7.285472   5.911222
    28  O    3.291465   3.124960   2.913609   4.515013   2.787847
                    6          7          8          9         10
     6  O    0.000000
     7  H    2.076120   0.000000
     8  C    2.367887   2.127277   0.000000
     9  C    1.422334   2.904631   3.541196   0.000000
    10  H    2.830935   3.912639   3.761216   2.155868   0.000000
    11  O    3.582839   4.066435   4.852545   2.466746   2.015496
    12  C    2.369641   4.276948   4.489148   1.515502   2.621648
    13  H    2.083656   3.012721   4.223075   1.108459   3.033789
    14  O    2.871463   4.837619   4.410827   2.433491   2.455666
    15  H    3.319023   5.038822   5.441678   2.140086   2.911729
    16  H    2.585520   4.514721   4.802427   2.138203   3.661823
    17  H    3.668517   3.826858   5.022402   2.607427   2.813647
    18  H    4.091263   3.250038   4.261461   3.753878   3.406195
    19  H    2.425860   4.319709   3.574924   2.459201   2.391432
    20  C    3.425426   2.581122   1.352090   4.699844   5.087738
    21  N    4.574118   3.948410   2.384564   5.873475   6.040295
    22  C    4.987967   4.830200   2.860044   6.207700   6.031036
    23  N    4.242582   4.529121   2.401874   5.305202   4.882764
    24  C    2.969046   3.457152   1.459165   3.939673   3.568493
    25  H    3.728968   2.366749   2.137422   4.961936   5.634172
    26  H    4.910798   5.431506   3.318085   5.847441   5.181394
    27  O    6.167374   6.018427   4.073973   7.387173   7.130702
    28  O    2.983095   3.984733   2.385915   3.565713   2.754538
                   11         12         13         14         15
    11  O    0.000000
    12  C    3.316813   0.000000
    13  H    2.577541   2.154332   0.000000
    14  O    3.880419   1.407692   3.372038   0.000000
    15  H    3.147231   1.099396   2.441269   2.029386   0.000000
    16  H    4.256981   1.104462   2.475814   2.081533   1.783945
    17  H    0.964542   3.661199   2.322462   4.477607   3.504374
    18  H    2.508522   5.116975   3.778345   5.588840   5.330115
    19  H    4.071723   1.945388   3.517223   0.967830   2.810751
    20  C    6.013848   5.690553   5.218617   5.679667   6.667835
    21  N    7.185402   6.703142   6.488519   6.475666   7.719585
    22  C    7.481890   6.810495   6.998568   6.297611   7.825080
    23  N    6.517595   5.767018   6.220172   5.100499   6.739279
    24  C    5.156350   4.500155   4.869396   3.965289   5.446594
    25  H    6.235252   6.092321   5.259982   6.307962   7.026769
    26  H    6.975094   6.110847   6.839439   5.235488   7.038446
    27  O    8.646011   7.909763   8.196289   7.301706   8.928575
    28  O    4.607532   3.854286   4.622527   3.065853   4.698149
                   16         17         18         19         20
    16  H    0.000000
    17  H    4.437542   0.000000
    18  H    5.887681   2.300124   0.000000
    19  H    2.490354   4.647707   5.368372   0.000000
    20  C    5.858036   6.057783   5.026142   4.827667   0.000000
    21  N    6.844837   7.316421   6.185713   5.549169   1.367944
    22  C    7.017265   7.780585   6.747797   5.331795   2.425332
    23  N    6.089358   6.940364   6.138821   4.138798   2.683530
    24  C    4.918633   5.573830   4.968480   3.027639   2.414729
    25  H    6.182878   6.109273   5.019109   5.534654   1.089418
    26  H    6.470324   7.502600   6.794977   4.306722   3.696892
    27  O    8.086624   8.972565   7.879436   6.334831   3.536692
    28  O    4.441818   5.195921   4.936003   2.182761   3.560291
                   21         22         23         24         25
    21  N    0.000000
    22  C    1.384074   0.000000
    23  N    2.304742   1.379550   0.000000
    24  C    2.782759   2.492064   1.394157   0.000000
    25  H    2.085681   3.368664   3.769827   3.427032   0.000000
    26  H    3.217363   2.034842   1.013374   2.056322   4.782858
    27  O    2.284813   1.214022   2.291035   3.596268   4.369895
    28  O    4.003002   3.570417   2.267196   1.222744   4.501368
                   26         27         28
    26  H    0.000000
    27  O    2.498445   0.000000
    28  O    2.460187   4.557630   0.000000
 Stoichiometry    C9H11N2O6(1-)
 Framework group  C1[X(C9H11N2O6)]
 Deg. of freedom    78
 Full point group                 C1      NOp   1
 Largest Abelian subgroup         C1      NOp   1
 Largest concise Abelian subgroup C1      NOp   1
                         Standard orientation:                         
 ---------------------------------------------------------------------
 Center     Atomic      Atomic             Coordinates (Angstroms)
 Number     Number       Type             X           Y           Z
 ---------------------------------------------------------------------
      1          6           0        2.355815   -0.255087   -0.621425
      2          6           0        1.205461   -1.284478   -0.580678
      3          6           0        0.382971   -0.883132    0.657127
      4          8           0        1.684205   -2.601709   -0.358502
      5          1           0        0.604592   -1.246514   -1.500027
      6          8           0        1.021231    0.241669    1.250202
      7          1           0        0.418068   -1.742465    1.348597
      8          6           0       -1.045857   -0.531256    0.391933
      9          6           0        2.363156    0.340976    0.789323
     10          1           0        2.116918    0.531981   -1.343903
     11          8           0        3.589148   -0.805457   -1.018291
     12          6           0        2.761118    1.801707    0.857425
     13          1           0        3.036187   -0.254543    1.438220
     14          8           0        2.025088    2.606308   -0.032785
     15          1           0        3.822087    1.893206    0.584214
     16          1           0        2.644677    2.146041    1.900359
     17          1           0        3.827160   -1.478765   -0.369948
     18          1           0        2.167599   -2.868216   -1.148315
     19          1           0        1.113676    2.281762   -0.059100
     20          6           0       -2.075009   -1.195424    0.964536
     21          7           0       -3.382455   -0.875931    0.720036
     22          6           0       -3.775548    0.155635   -0.114835
     23          7           0       -2.711369    0.827857   -0.679458
     24          6           0       -1.350787    0.580047   -0.503156
     25          1           0       -1.912149   -2.025433    1.651117
     26          1           0       -2.954074    1.594790   -1.295765
     27          8           0       -4.939426    0.432143   -0.321673
     28          8           0       -0.524733    1.268390   -1.085327
 ---------------------------------------------------------------------
 Rotational constants (GHZ):           0.9185007           0.2965651           0.2565217
 Standard basis: Aug-CC-pVDZ (5D, 7F)
 There are   524 symmetry adapted cartesian basis functions of A   symmetry.
 There are   490 symmetry adapted basis functions of A   symmetry.
   490 basis functions,   852 primitive gaussians,   524 cartesian basis functions
    64 alpha electrons       64 beta electrons
       nuclear repulsion energy      1299.7830934521 Hartrees.
 NAtoms=   28 NActive=   28 NUniq=   28 SFac= 1.00D+00 NAtFMM=   60 NAOKFM=F Big=F
 Integral buffers will be    131072 words long.
 Raffenetti 2 integral format.
 Two-electron integral symmetry is turned on.
 Nuclear repulsion after empirical dispersion term =     1299.7633898968 Hartrees.
 One-electron integrals computed using PRISM.
 NBasis=   490 RedAO= T EigKep=  2.53D-06  NBF=   490
 NBsUse=   490 1.00D-06 EigRej= -1.00D+00 NBFU=   490
 ExpMin= 2.97D-02 ExpMax= 1.17D+04 ExpMxC= 4.01D+02 IAcc=3 IRadAn=         5 AccDes= 0.00D+00
 Harris functional with IExCor= 1009 and IRadAn=       5 diagonalized for initial guess.
 HarFok:  IExCor= 1009 AccDes= 0.00D+00 IRadAn=         5 IDoV= 1 UseB2=F ITyADJ=14
 ICtDFT=  3500011 ScaDFX=  1.000000  1.000000  1.000000  1.000000
 FoFCou: FMM=F IPFlag=           0 FMFlag=      100000 FMFlg1=           0
         NFxFlg=           0 DoJE=T BraDBF=F KetDBF=T FulRan=T
         wScrn=  0.000000 ICntrl=       500 IOpCl=  0 I1Cent=   200000004 NGrid=           0
         NMat0=    1 NMatS0=      1 NMatT0=    0 NMatD0=    1 NMtDS0=    0 NMtDT0=    0
 Petite list used in FoFCou.
 Requested convergence on RMS density matrix=1.00D-08 within 128 cycles.
 Requested convergence on MAX density matrix=1.00D-06.
 Requested convergence on             energy=1.00D-06.
 No special actions if energy rises.
 SCF Done:  E(RPBE1PBE) =  -909.683687348     A.U. after   14 cycles
            NFock= 14  Conv=0.61D-08     -V/T= 2.0052

 **********************************************************************

            Population analysis using the SCF Density.

 **********************************************************************

 Orbital symmetries:
       Occupied  (A) (A) (A) (A) (A) (A) (A) (A) (A) (A) (A) (A)
                 (A) (A) (A) (A) (A) (A) (A) (A) (A) (A) (A) (A)
                 (A) (A) (A) (A) (A) (A) (A) (A) (A) (A) (A) (A)
                 (A) (A) (A) (A) (A) (A) (A) (A) (A) (A) (A) (A)
                 (A) (A) (A) (A) (A) (A) (A) (A) (A) (A) (A) (A)
                 (A) (A) (A) (A)
       Virtual   (A) (A) (A) (A) (A) (A) (A) (A) (A) (A) (A) (A)
                 (A) (A) (A) (A) (A) (A) (A) (A) (A) (A) (A) (A)
                 (A) (A) (A) (A) (A) (A) (A) (A) (A) (A) (A) (A)
                 (A) (A) (A) (A) (A) (A) (A) (A) (A) (A) (A) (A)
                 (A) (A) (A) (A) (A) (A) (A) (A) (A) (A) (A) (A)
                 (A) (A) (A) (A) (A) (A) (A) (A) (A) (A) (A) (A)
                 (A) (A) (A) (A) (A) (A) (A) (A) (A) (A) (A) (A)
                 (A) (A) (A) (A) (A) (A) (A) (A) (A) (A) (A) (A)
                 (A) (A) (A) (A) (A) (A) (A) (A) (A) (A) (A) (A)
                 (A) (A) (A) (A) (A) (A) (A) (A) (A) (A) (A) (A)
                 (A) (A) (A) (A) (A) (A) (A) (A) (A) (A) (A) (A)
                 (A) (A) (A) (A) (A) (A) (A) (A) (A) (A) (A) (A)
                 (A) (A) (A) (A) (A) (A) (A) (A) (A) (A) (A) (A)
                 (A) (A) (A) (A) (A) (A) (A) (A) (A) (A) (A) (A)
                 (A) (A) (A) (A) (A) (A) (A) (A) (A) (A) (A) (A)
                 (A) (A) (A) (A) (A) (A) (A) (A) (A) (A) (A) (A)
                 (A) (A) (A) (A) (A) (A) (A) (A) (A) (A) (A) (A)
                 (A) (A) (A) (A) (A) (A) (A) (A) (A) (A) (A) (A)
                 (A) (A) (A) (A) (A) (A) (A) (A) (A) (A) (A) (A)
                 (A) (A) (A) (A) (A) (A) (A) (A) (A) (A) (A) (A)
                 (A) (A) (A) (A) (A) (A) (A) (A) (A) (A) (A) (A)
                 (A) (A) (A) (A) (A) (A) (A) (A) (A) (A) (A) (A)
                 (A) (A) (A) (A) (A) (A) (A) (A) (A) (A) (A) (A)
                 (A) (A) (A) (A) (A) (A) (A) (A) (A) (A) (A) (A)
                 (A) (A) (A) (A) (A) (A) (A) (A) (A) (A) (A) (A)
                 (A) (A) (A) (A) (A) (A) (A) (A) (A) (A) (A) (A)
                 (A) (A) (A) (A) (A) (A) (A) (A) (A) (A) (A) (A)
                 (A) (A) (A) (A) (A) (A) (A) (A) (A) (A) (A) (A)
                 (A) (A) (A) (A) (A) (A) (A) (A) (A) (A) (A) (A)
                 (A) (A) (A) (A) (A) (A) (A) (A) (A) (A) (A) (A)
                 (A) (A) (A) (A) (A) (A) (A) (A) (A) (A) (A) (A)
                 (A) (A) (A) (A) (A) (A) (A) (A) (A) (A) (A) (A)
                 (A) (A) (A) (A) (A) (A) (A) (A) (A) (A) (A) (A)
                 (A) (A) (A) (A) (A) (A) (A) (A) (A) (A) (A) (A)
                 (A) (A) (A) (A) (A) (A) (A) (A) (A) (A) (A) (A)
                 (A) (A) (A) (A) (A) (A)
 The electronic state is 1-A.
 Alpha  occ. eigenvalues --  -19.14549 -19.14372 -19.12324 -19.10941 -19.06023
 Alpha  occ. eigenvalues --  -19.03423 -14.29667 -14.21687 -10.20271 -10.19869
 Alpha  occ. eigenvalues --  -10.18177 -10.17987 -10.17913 -10.17664 -10.17262
 Alpha  occ. eigenvalues --  -10.13651 -10.08950  -0.99543  -0.97057  -0.96181
 Alpha  occ. eigenvalues --   -0.94859  -0.93989  -0.92394  -0.82538  -0.75862
 Alpha  occ. eigenvalues --   -0.70149  -0.68977  -0.64216  -0.58390  -0.53515
 Alpha  occ. eigenvalues --   -0.53095  -0.51814  -0.49525  -0.45960  -0.44448
 Alpha  occ. eigenvalues --   -0.41447  -0.40772  -0.39798  -0.39347  -0.38660
 Alpha  occ. eigenvalues --   -0.35705  -0.34346  -0.33861  -0.33048  -0.32652
 Alpha  occ. eigenvalues --   -0.31820  -0.30895  -0.29857  -0.29475  -0.27886
 Alpha  occ. eigenvalues --   -0.26451  -0.25333  -0.24099  -0.23541  -0.21988
 Alpha  occ. eigenvalues --   -0.19908  -0.19164  -0.17638  -0.17482  -0.15270
 Alpha  occ. eigenvalues --   -0.14976  -0.12985  -0.11179  -0.07600
 Alpha virt. eigenvalues --    0.06796   0.08349   0.09830   0.10004   0.11183
 Alpha virt. eigenvalues --    0.11319   0.11692   0.12158   0.12573   0.12914
 Alpha virt. eigenvalues --    0.14238   0.14607   0.15123   0.15674   0.16080
 Alpha virt. eigenvalues --    0.16173   0.16654   0.17044   0.17724   0.18218
 Alpha virt. eigenvalues --    0.18396   0.18835   0.19162   0.19550   0.19770
 Alpha virt. eigenvalues --    0.20234   0.20524   0.20702   0.21343   0.21439
 Alpha virt. eigenvalues --    0.21935   0.22289   0.22646   0.22818   0.23574
 Alpha virt. eigenvalues --    0.23627   0.24229   0.24495   0.25117   0.25408
 Alpha virt. eigenvalues --    0.25787   0.26597   0.26728   0.27266   0.27834
 Alpha virt. eigenvalues --    0.28273   0.28714   0.29598   0.30030   0.30390
 Alpha virt. eigenvalues --    0.30535   0.30885   0.31317   0.31441   0.31990
 Alpha virt. eigenvalues --    0.32615   0.32921   0.33856   0.33960   0.34478
 Alpha virt. eigenvalues --    0.34722   0.35220   0.35453   0.35608   0.35769
 Alpha virt. eigenvalues --    0.36268   0.36651   0.36804   0.37202   0.37397
 Alpha virt. eigenvalues --    0.37740   0.38008   0.38089   0.38531   0.38913
 Alpha virt. eigenvalues --    0.39312   0.39946   0.40229   0.41079   0.41164
 Alpha virt. eigenvalues --    0.41401   0.41491   0.41717   0.42396   0.42567
 Alpha virt. eigenvalues --    0.42648   0.42939   0.43651   0.44357   0.44764
 Alpha virt. eigenvalues --    0.44953   0.45778   0.46120   0.47119   0.47203
 Alpha virt. eigenvalues --    0.47505   0.48419   0.48469   0.49042   0.49734
 Alpha virt. eigenvalues --    0.50118   0.50679   0.50867   0.51158   0.51567
 Alpha virt. eigenvalues --    0.51944   0.52390   0.53290   0.53380   0.54257
 Alpha virt. eigenvalues --    0.54547   0.55314   0.55585   0.56018   0.56946
 Alpha virt. eigenvalues --    0.57468   0.57787   0.58221   0.59651   0.60473
 Alpha virt. eigenvalues --    0.61058   0.61671   0.61904   0.62366   0.62618
 Alpha virt. eigenvalues --    0.63708   0.63967   0.65373   0.65489   0.65834
 Alpha virt. eigenvalues --    0.66769   0.67219   0.67300   0.67730   0.68084
 Alpha virt. eigenvalues --    0.69030   0.69497   0.70263   0.70897   0.71242
 Alpha virt. eigenvalues --    0.71567   0.72580   0.73241   0.73664   0.73760
 Alpha virt. eigenvalues --    0.74293   0.74604   0.74890   0.75812   0.76083
 Alpha virt. eigenvalues --    0.76740   0.76981   0.77604   0.78401   0.78680
 Alpha virt. eigenvalues --    0.79159   0.79425   0.79754   0.80747   0.80956
 Alpha virt. eigenvalues --    0.81331   0.81440   0.82444   0.82818   0.83126
 Alpha virt. eigenvalues --    0.84583   0.85322   0.85718   0.86417   0.86771
 Alpha virt. eigenvalues --    0.87733   0.87881   0.88258   0.89385   0.89856
 Alpha virt. eigenvalues --    0.91410   0.91888   0.92662   0.92902   0.93526
 Alpha virt. eigenvalues --    0.93766   0.94248   0.94876   0.95985   0.96538
 Alpha virt. eigenvalues --    0.97005   0.98503   0.99101   0.99761   0.99914
 Alpha virt. eigenvalues --    1.00490   1.01135   1.02052   1.03186   1.03820
 Alpha virt. eigenvalues --    1.04725   1.05740   1.06356   1.07124   1.07838
 Alpha virt. eigenvalues --    1.08751   1.09674   1.09970   1.10639   1.12171
 Alpha virt. eigenvalues --    1.13007   1.13434   1.14789   1.15446   1.16411
 Alpha virt. eigenvalues --    1.18179   1.19064   1.19576   1.19876   1.20983
 Alpha virt. eigenvalues --    1.21457   1.21729   1.22556   1.24194   1.25414
 Alpha virt. eigenvalues --    1.25545   1.25786   1.27112   1.27603   1.28772
 Alpha virt. eigenvalues --    1.30122   1.30626   1.31518   1.33435   1.33730
 Alpha virt. eigenvalues --    1.34262   1.35617   1.35884   1.36644   1.37663
 Alpha virt. eigenvalues --    1.39147   1.40334   1.40647   1.41780   1.42434
 Alpha virt. eigenvalues --    1.43866   1.45010   1.45399   1.46560   1.47725
 Alpha virt. eigenvalues --    1.48479   1.49882   1.50496   1.51884   1.52117
 Alpha virt. eigenvalues --    1.53347   1.54182   1.55269   1.56265   1.57155
 Alpha virt. eigenvalues --    1.59155   1.59364   1.60035   1.62111   1.63097
 Alpha virt. eigenvalues --    1.64889   1.65168   1.66336   1.66916   1.68084
 Alpha virt. eigenvalues --    1.68666   1.69374   1.70179   1.71589   1.71807
 Alpha virt. eigenvalues --    1.73586   1.73712   1.74855   1.75624   1.78328
 Alpha virt. eigenvalues --    1.78969   1.79168   1.80803   1.81210   1.82402
 Alpha virt. eigenvalues --    1.84095   1.84824   1.85710   1.86128   1.87436
 Alpha virt. eigenvalues --    1.88512   1.89363   1.90145   1.90969   1.92147
 Alpha virt. eigenvalues --    1.93106   1.94316   1.95017   1.95766   1.96841
 Alpha virt. eigenvalues --    1.97232   1.98992   1.99098   2.00683   2.01208
 Alpha virt. eigenvalues --    2.01423   2.03140   2.04002   2.04568   2.05192
 Alpha virt. eigenvalues --    2.07353   2.09429   2.10540   2.11125   2.11737
 Alpha virt. eigenvalues --    2.12519   2.13140   2.16367   2.16780   2.18237
 Alpha virt. eigenvalues --    2.19190   2.21214   2.21422   2.22271   2.23216
 Alpha virt. eigenvalues --    2.23942   2.24629   2.25253   2.26654   2.27353
 Alpha virt. eigenvalues --    2.27886   2.29823   2.30776   2.32367   2.34313
 Alpha virt. eigenvalues --    2.35071   2.36166   2.37618   2.38087   2.39063
 Alpha virt. eigenvalues --    2.40872   2.41929   2.42298   2.43961   2.44417
 Alpha virt. eigenvalues --    2.46643   2.49046   2.50134   2.51795   2.52550
 Alpha virt. eigenvalues --    2.53070   2.54438   2.55318   2.57142   2.58942
 Alpha virt. eigenvalues --    2.59473   2.61546   2.62218   2.63345   2.63597
 Alpha virt. eigenvalues --    2.64890   2.66412   2.68511   2.70651   2.71870
 Alpha virt. eigenvalues --    2.73698   2.75033   2.75673   2.76335   2.77809
 Alpha virt. eigenvalues --    2.80537   2.81003   2.84184   2.84772   2.87409
 Alpha virt. eigenvalues --    2.88175   2.90392   2.91430   2.94585   2.97345
 Alpha virt. eigenvalues --    2.99235   3.03390   3.06195   3.07173   3.09656
 Alpha virt. eigenvalues --    3.13602   3.14207   3.19547   3.21170   3.27887
 Alpha virt. eigenvalues --    3.32745   3.36968   3.42342   3.44624   3.45876
 Alpha virt. eigenvalues --    3.48726   3.53536   3.53588   3.55318   3.56434
 Alpha virt. eigenvalues --    3.58596   3.59248   3.59921   3.60610   3.60737
 Alpha virt. eigenvalues --    3.63699   3.64254   3.66203   3.67792   3.69476
 Alpha virt. eigenvalues --    3.70855   3.73517   3.74416   3.75839   3.76492
 Alpha virt. eigenvalues --    3.79422   3.83575   3.85211   3.86205   3.87841
 Alpha virt. eigenvalues --    3.91238   3.93010   3.98959   4.03967   4.07719
 Alpha virt. eigenvalues --    4.10373   4.13403   4.15547   4.20596   4.33570
 Alpha virt. eigenvalues --    5.33581
          Condensed to atoms (all electrons):
               1          2          3          4          5          6
     1  C    8.041720  -2.343323   0.881535   0.240098   0.633119   0.110350
     2  C   -2.343323   9.740970  -3.615690  -0.581426  -0.914936   0.076361
     3  C    0.881535  -3.615690  19.311938   0.159195  -0.288856  -0.453758
     4  O    0.240098  -0.581426   0.159195   8.731729  -0.065714   0.017964
     5  H    0.633119  -0.914936  -0.288856  -0.065714   2.223897   0.019768
     6  O    0.110350   0.076361  -0.453758   0.017964   0.019768   9.460204
     7  H    0.006637   0.468258  -1.641145  -0.023596   0.081395  -0.104295
     8  C    0.031266   0.930461  -4.262730   0.025598  -0.088299  -0.032189
     9  C   -1.547874   1.251878  -3.055458  -0.006652  -0.000542  -0.237314
    10  H   -0.555759   0.387789   0.039239  -0.026507  -0.232769   0.068991
    11  O   -0.409059   0.064852   0.049612  -0.024217   0.037694  -0.029273
    12  C    0.070710  -0.219833   0.482982   0.013233   0.002044   0.001140
    13  H    0.308978  -0.065985   0.164719  -0.002237  -0.012474  -0.093677
    14  O   -0.076043   0.022273  -0.011645  -0.000641  -0.006747  -0.035767
    15  H   -0.004425   0.066455  -0.018159   0.000641   0.005335   0.100075
    16  H   -0.037022  -0.031143   0.013121   0.000490  -0.001607  -0.069732
    17  H   -0.117600  -0.011345   0.014062  -0.011201   0.003718   0.007611
    18  H   -0.120858   0.189324  -0.046495   0.291453  -0.099805   0.001827
    19  H   -0.012432   0.008501  -0.053972  -0.000571  -0.000212   0.039541
    20  C    0.149652  -0.522098  -1.365912  -0.019198   0.021981  -0.053526
    21  N   -0.008969   0.009254   0.178413  -0.002795  -0.002359  -0.002821
    22  C   -0.008744   0.029866  -0.521379   0.004516   0.004404   0.002879
    23  N    0.000722  -0.066451   0.356910  -0.000765  -0.023117  -0.005392
    24  C   -0.117713   0.241868  -1.571250  -0.028118   0.103283   0.072935
    25  H   -0.010131   0.110167  -0.080810  -0.004294   0.012403   0.053588
    26  H    0.000043  -0.000700  -0.023953   0.000364   0.000559  -0.000862
    27  O    0.000308  -0.000826   0.020809  -0.000062  -0.000453  -0.000003
    28  O    0.016413   0.015928   0.014190  -0.002287   0.028306  -0.016965
               7          8          9         10         11         12
     1  C    0.006637   0.031266  -1.547874  -0.555759  -0.409059   0.070710
     2  C    0.468258   0.930461   1.251878   0.387789   0.064852  -0.219833
     3  C   -1.641145  -4.262730  -3.055458   0.039239   0.049612   0.482982
     4  O   -0.023596   0.025598  -0.006652  -0.026507  -0.024217   0.013233
     5  H    0.081395  -0.088299  -0.000542  -0.232769   0.037694   0.002044
     6  O   -0.104295  -0.032189  -0.237314   0.068991  -0.029273   0.001140
     7  H    2.272976   0.619374   0.100023  -0.011583   0.003723  -0.016009
     8  C    0.619374  13.571052   0.564256  -0.045124  -0.020901  -0.246179
     9  C    0.100023   0.564256   9.859539  -0.321723   0.188984  -0.465856
    10  H   -0.011583  -0.045124  -0.321723   2.279328  -0.239594  -0.029971
    11  O    0.003723  -0.020901   0.188984  -0.239594   8.703456   0.017353
    12  C   -0.016009  -0.246179  -0.465856  -0.029971   0.017353   4.983210
    13  H    0.023548  -0.027345  -1.090347   0.092162  -0.060650   0.008246
    14  O   -0.000019   0.005183   0.042558   0.017593   0.004387   0.080834
    15  H   -0.000639   0.001860  -0.168559  -0.027522   0.010868   0.137096
    16  H   -0.002396   0.011998   0.319378   0.022114   0.000625   0.079155
    17  H   -0.006481  -0.011635   0.003443   0.041266   0.292273   0.007062
    18  H   -0.010593   0.008465  -0.001944   0.022640  -0.017696  -0.005626
    19  H    0.000885   0.020648  -0.007800  -0.010406  -0.000777  -0.046029
    20  C   -0.057839  -3.918192  -0.112859  -0.000686  -0.001307  -0.061482
    21  N   -0.016193   0.165202   0.001608   0.000290  -0.000046   0.003633
    22  C    0.004813   0.428549   0.016101  -0.001378   0.000104  -0.010800
    23  N   -0.007199  -0.368518  -0.024920   0.000684   0.000334   0.001982
    24  C   -0.064126  -2.762122   0.096249   0.012204  -0.001456   0.015979
    25  H   -0.051596   0.255901   0.041406  -0.001291  -0.000427  -0.000907
    26  H    0.001027   0.209211  -0.000020  -0.000641  -0.000048   0.000325
    27  O    0.000273  -0.018122  -0.000345   0.000251  -0.000002   0.000125
    28  O    0.012885  -0.019874  -0.019790  -0.012225   0.002919   0.010225
              13         14         15         16         17         18
     1  C    0.308978  -0.076043  -0.004425  -0.037022  -0.117600  -0.120858
     2  C   -0.065985   0.022273   0.066455  -0.031143  -0.011345   0.189324
     3  C    0.164719  -0.011645  -0.018159   0.013121   0.014062  -0.046495
     4  O   -0.002237  -0.000641   0.000641   0.000490  -0.011201   0.291453
     5  H   -0.012474  -0.006747   0.005335  -0.001607   0.003718  -0.099805
     6  O   -0.093677  -0.035767   0.100075  -0.069732   0.007611   0.001827
     7  H    0.023548  -0.000019  -0.000639  -0.002396  -0.006481  -0.010593
     8  C   -0.027345   0.005183   0.001860   0.011998  -0.011635   0.008465
     9  C   -1.090347   0.042558  -0.168559   0.319378   0.003443  -0.001944
    10  H    0.092162   0.017593  -0.027522   0.022114   0.041266   0.022640
    11  O   -0.060650   0.004387   0.010868   0.000625   0.292273  -0.017696
    12  C    0.008246   0.080834   0.137096   0.079155   0.007062  -0.005626
    13  H    2.374263   0.024552  -0.078194  -0.027507  -0.010223   0.007318
    14  O    0.024552   8.426353  -0.133871  -0.046420  -0.002673   0.000845
    15  H   -0.078194  -0.133871   1.671160  -0.324231   0.006148  -0.000826
    16  H   -0.027507  -0.046420  -0.324231   1.380353  -0.001498  -0.000317
    17  H   -0.010223  -0.002673   0.006148  -0.001498   0.726534   0.022701
    18  H    0.007318   0.000845  -0.000826  -0.000317   0.022701   0.677004
    19  H    0.001259   0.242702   0.023658  -0.041927   0.000598   0.000195
    20  C    0.009157  -0.000033  -0.003872   0.000227  -0.000752  -0.004375
    21  N    0.000597   0.000377   0.000009   0.000325   0.000034   0.000121
    22  C    0.000961  -0.000881  -0.000322  -0.000317  -0.000194   0.000202
    23  N   -0.001079  -0.002769   0.000341  -0.000730  -0.000119  -0.000211
    24  C    0.017492   0.004222  -0.010005   0.003763   0.001964   0.001803
    25  H    0.003650  -0.000311   0.000264  -0.000197  -0.000139   0.001554
    26  H   -0.000118  -0.000119  -0.000056   0.000308   0.000047  -0.000013
    27  O   -0.000022   0.000040   0.000002  -0.000004   0.000004   0.000010
    28  O    0.003962  -0.016391   0.003436  -0.003246  -0.001129  -0.000573
              19         20         21         22         23         24
     1  C   -0.012432   0.149652  -0.008969  -0.008744   0.000722  -0.117713
     2  C    0.008501  -0.522098   0.009254   0.029866  -0.066451   0.241868
     3  C   -0.053972  -1.365912   0.178413  -0.521379   0.356910  -1.571250
     4  O   -0.000571  -0.019198  -0.002795   0.004516  -0.000765  -0.028118
     5  H   -0.000212   0.021981  -0.002359   0.004404  -0.023117   0.103283
     6  O    0.039541  -0.053526  -0.002821   0.002879  -0.005392   0.072935
     7  H    0.000885  -0.057839  -0.016193   0.004813  -0.007199  -0.064126
     8  C    0.020648  -3.918192   0.165202   0.428549  -0.368518  -2.762122
     9  C   -0.007800  -0.112859   0.001608   0.016101  -0.024920   0.096249
    10  H   -0.010406  -0.000686   0.000290  -0.001378   0.000684   0.012204
    11  O   -0.000777  -0.001307  -0.000046   0.000104   0.000334  -0.001456
    12  C   -0.046029  -0.061482   0.003633  -0.010800   0.001982   0.015979
    13  H    0.001259   0.009157   0.000597   0.000961  -0.001079   0.017492
    14  O    0.242702  -0.000033   0.000377  -0.000881  -0.002769   0.004222
    15  H    0.023658  -0.003872   0.000009  -0.000322   0.000341  -0.010005
    16  H   -0.041927   0.000227   0.000325  -0.000317  -0.000730   0.003763
    17  H    0.000598  -0.000752   0.000034  -0.000194  -0.000119   0.001964
    18  H    0.000195  -0.004375   0.000121   0.000202  -0.000211   0.001803
    19  H    0.600505   0.000252   0.000413   0.000848  -0.004055   0.002670
    20  C    0.000252  14.649523  -0.744682  -0.397552   0.416129  -1.725971
    21  N    0.000413  -0.744682   8.081338  -0.096719  -0.000386   0.250518
    22  C    0.000848  -0.397552  -0.096719   6.408291  -0.050657  -0.388644
    23  N   -0.004055   0.416129  -0.000386  -0.050657   7.560082  -0.400137
    24  C    0.002670  -1.725971   0.250518  -0.388644  -0.400137  11.783509
    25  H    0.000417  -0.703591  -0.017006  -0.013902  -0.034599   0.113791
    26  H   -0.001265  -0.151466   0.034421  -0.159178   0.379717  -0.279743
    27  O   -0.000147  -0.000649  -0.088257   0.077870  -0.140171   0.158481
    28  O    0.035872  -0.040922   0.000713   0.010637  -0.217784   0.093638
              25         26         27         28
     1  C   -0.010131   0.000043   0.000308   0.016413
     2  C    0.110167  -0.000700  -0.000826   0.015928
     3  C   -0.080810  -0.023953   0.020809   0.014190
     4  O   -0.004294   0.000364  -0.000062  -0.002287
     5  H    0.012403   0.000559  -0.000453   0.028306
     6  O    0.053588  -0.000862  -0.000003  -0.016965
     7  H   -0.051596   0.001027   0.000273   0.012885
     8  C    0.255901   0.209211  -0.018122  -0.019874
     9  C    0.041406  -0.000020  -0.000345  -0.019790
    10  H   -0.001291  -0.000641   0.000251  -0.012225
    11  O   -0.000427  -0.000048  -0.000002   0.002919
    12  C   -0.000907   0.000325   0.000125   0.010225
    13  H    0.003650  -0.000118  -0.000022   0.003962
    14  O   -0.000311  -0.000119   0.000040  -0.016391
    15  H    0.000264  -0.000056   0.000002   0.003436
    16  H   -0.000197   0.000308  -0.000004  -0.003246
    17  H   -0.000139   0.000047   0.000004  -0.001129
    18  H    0.001554  -0.000013   0.000010  -0.000573
    19  H    0.000417  -0.001265  -0.000147   0.035872
    20  C   -0.703591  -0.151466  -0.000649  -0.040922
    21  N   -0.017006   0.034421  -0.088257   0.000713
    22  C   -0.013902  -0.159178   0.077870   0.010637
    23  N   -0.034599   0.379717  -0.140171  -0.217784
    24  C    0.113791  -0.279743   0.158481   0.093638
    25  H    2.027432  -0.004053   0.001608  -0.006062
    26  H   -0.004053   1.154247  -0.005559  -0.035762
    27  O    0.001608  -0.005559   8.691199  -0.005234
    28  O   -0.006062  -0.035762  -0.005234   8.987016
 Mulliken charges:
               1
     1  C    0.878402
     2  C    0.759549
     3  C    1.324488
     4  O   -0.685000
     5  H   -0.440015
     6  O   -0.897660
     7  H   -0.582107
     8  C    0.972206
     9  C    0.576578
    10  H   -0.467374
    11  O   -0.571733
    12  C    1.187357
    13  H   -0.571006
    14  O   -0.537585
    15  H   -0.256666
    16  H   -0.243562
    17  H    0.047524
    18  H    0.083871
    19  H    0.200627
    20  C    0.640043
    21  N   -0.747036
    22  C    0.660625
    23  N   -0.367840
    24  C    0.374914
    25  H   -0.692864
    26  H   -0.116715
    27  O   -0.691124
    28  O   -0.837898
 Sum of Mulliken charges =  -1.00000
 Mulliken charges with hydrogens summed into heavy atoms:
               1
     1  C    0.411028
     2  C    0.319533
     3  C    0.742381
     4  O   -0.601129
     6  O   -0.897660
     8  C    0.972206
     9  C    0.005572
    11  O   -0.524209
    12  C    0.687129
    14  O   -0.336958
    20  C   -0.052820
    21  N   -0.747036
    22  C    0.660625
    23  N   -0.484554
    24  C    0.374914
    27  O   -0.691124
    28  O   -0.837898
 Electronic spatial extent (au):  <R**2>=           4279.5369
 Charge=             -1.0000 electrons
 Dipole moment (field-independent basis, Debye):
    X=             10.6880    Y=             -2.3670    Z=              0.1119  Tot=             10.9476
 Quadrupole moment (field-independent basis, Debye-Ang):
   XX=           -171.8494   YY=           -113.1979   ZZ=           -104.8955
   XY=            -10.7097   XZ=              7.5588   YZ=              5.0007
 Traceless Quadrupole moment (field-independent basis, Debye-Ang):
   XX=            -41.8685   YY=             16.7831   ZZ=             25.0854
   XY=            -10.7097   XZ=              7.5588   YZ=              5.0007
 Octapole moment (field-independent basis, Debye-Ang**2):
  XXX=            333.3416  YYY=            -16.8486  ZZZ=            -11.5995  XYY=              1.0874
  XXY=             -5.1072  XXZ=              7.9824  XZZ=              7.1132  YZZ=             -5.5166
  YYZ=             -5.7425  XYZ=              2.6258
 Hexadecapole moment (field-independent basis, Debye-Ang**3):
 XXXX=          -5724.8238 YYYY=          -1219.8386 ZZZZ=           -488.0484 XXXY=            -91.6024
 XXXZ=            108.9616 YYYX=           -128.1055 YYYZ=             39.4810 ZZZX=             13.7873
 ZZZY=              9.8729 XXYY=           -877.1173 XXZZ=           -790.1997 YYZZ=           -243.8377
 XXYZ=             33.9539 YYXZ=             -5.9580 ZZXY=            -20.1583
 N-N= 1.299763389897D+03 E-N=-4.749377219057D+03  KE= 9.049502411711D+02
 Calling FoFJK, ICntrl=      2127 FMM=F ISym2X=0 I1Cent= 0 IOpClX= 0 NMat=1 NMatS=1 NMatT=0.
 ***** Axes restored to original set *****
 -------------------------------------------------------------------
 Center     Atomic                   Forces (Hartrees/Bohr)
 Number     Number              X              Y              Z
 -------------------------------------------------------------------
      1        6          -0.004482201   -0.000569072    0.000218576
      2        6           0.000328787    0.006409847    0.002297224
      3        6          -0.014033288    0.001127285   -0.008301501
      4        8           0.004785279   -0.004800035   -0.000698056
      5        1          -0.000232436    0.000198266    0.001315382
      6        8           0.015323804    0.005097580    0.001448851
      7        1           0.000258194   -0.000125354    0.000523230
      8        6           0.026848167    0.017002743   -0.015474183
      9        6          -0.007997330    0.000089146    0.002039422
     10        1          -0.000629937   -0.000214940    0.000293222
     11        8           0.007297475   -0.001350115   -0.001643523
     12        6          -0.000867299   -0.000180458   -0.001749816
     13        1           0.002151394   -0.000966655    0.000505597
     14        8           0.003816605    0.002068392    0.001665318
     15        1           0.001064468    0.000401161   -0.000237428
     16        1          -0.000260760    0.000086870    0.000768755
     17        1          -0.001757763    0.000180321    0.000048239
     18        1          -0.000782272    0.000562925    0.000108362
     19        1          -0.004633078   -0.003192273   -0.001923789
     20        6          -0.061083104    0.021477626   -0.016071509
     21        7           0.001580511   -0.018597488    0.015382534
     22        6           0.038473615   -0.045629883    0.035352656
     23        7           0.008100247    0.014839522   -0.011927841
     24        6          -0.020386982   -0.027711663    0.022179281
     25        1           0.000786656   -0.003043756    0.002403825
     26        1           0.003736821    0.000904759   -0.000675628
     27        8          -0.020962650    0.016251980   -0.012659029
     28        8           0.023557077    0.019683270   -0.015188171
 -------------------------------------------------------------------
 Cartesian Forces:  Max     0.061083104 RMS     0.013850071

 GradGradGradGradGradGradGradGradGradGradGradGradGradGradGradGradGradGrad
 Berny optimization.
 FormGI is forming the generalized inverse of G from B-inverse, IUseBI=4.
 Internal  Forces:  Max     0.035326985 RMS     0.007473599
 Search for a local minimum.
 Step number   1 out of a maximum of  166
 All quantities printed in internal units (Hartrees-Bohrs-Radians)
 Mixed Optimization -- RFO/linear search
 Second derivative matrix not updated -- first step.
 ITU=  0
     Eigenvalues ---    0.00336   0.00561   0.00829   0.00922   0.01440
     Eigenvalues ---    0.01487   0.01541   0.01590   0.01590   0.01692
     Eigenvalues ---    0.01856   0.01939   0.01945   0.02299   0.02553
     Eigenvalues ---    0.03048   0.03622   0.04319   0.04879   0.04977
     Eigenvalues ---    0.04983   0.05136   0.05473   0.06062   0.06098
     Eigenvalues ---    0.06171   0.06510   0.08013   0.08352   0.10573
     Eigenvalues ---    0.11619   0.13520   0.13990   0.15968   0.16000
     Eigenvalues ---    0.16000   0.16000   0.16000   0.16000   0.17289
     Eigenvalues ---    0.19401   0.19541   0.22083   0.22927   0.23841
     Eigenvalues ---    0.24997   0.24999   0.24999   0.25000   0.26566
     Eigenvalues ---    0.27333   0.28788   0.30804   0.32764   0.32884
     Eigenvalues ---    0.33193   0.33293   0.33749   0.33799   0.34267
     Eigenvalues ---    0.34880   0.36265   0.39702   0.40285   0.42606
     Eigenvalues ---    0.44059   0.44369   0.44373   0.45412   0.46634
     Eigenvalues ---    0.48124   0.50490   0.53478   0.53823   0.54508
     Eigenvalues ---    0.54709   0.94178   0.98081
 RFO step:  Lambda=-2.20752483D-02 EMin= 3.35937056D-03
 Linear search not attempted -- first point.
 Iteration  1 RMS(Cart)=  0.05128695 RMS(Int)=  0.00131776
 Iteration  2 RMS(Cart)=  0.00155730 RMS(Int)=  0.00012259
 Iteration  3 RMS(Cart)=  0.00000218 RMS(Int)=  0.00012258
 Iteration  4 RMS(Cart)=  0.00000000 RMS(Int)=  0.00012258
 Variable       Old X    -DE/DX   Delta X   Delta X   Delta X     New X
                                 (Linear)    (Quad)   (Total)
    R1        2.91816  -0.00118   0.00000  -0.00574  -0.00573   2.91243
    R2        2.89415  -0.00076   0.00000  -0.00303  -0.00297   2.89118
    R3        2.06882  -0.00022   0.00000  -0.00060  -0.00060   2.06822
    R4        2.66010   0.00575   0.00000   0.01235   0.01235   2.67245
    R5        2.90903   0.00134   0.00000   0.00489   0.00488   2.91391
    R6        2.68159   0.00518   0.00000   0.01155   0.01155   2.69314
    R7        2.07671  -0.00097   0.00000  -0.00269  -0.00269   2.07402
    R8        2.68866   0.00817   0.00000   0.01991   0.01989   2.70855
    R9        2.08540   0.00043   0.00000   0.00120   0.00120   2.08660
   R10        2.82556  -0.00241   0.00000  -0.00686  -0.00686   2.81870
   R11        1.82092  -0.00064   0.00000  -0.00112  -0.00112   1.81980
   R12        2.68782  -0.00691   0.00000  -0.01558  -0.01562   2.67221
   R13        2.55508   0.03533   0.00000   0.06179   0.06202   2.61710
   R14        2.75742  -0.02123   0.00000  -0.05277  -0.05279   2.70463
   R15        2.86388  -0.00111   0.00000  -0.00336  -0.00336   2.86053
   R16        2.09468   0.00211   0.00000   0.00604   0.00604   2.10073
   R17        1.82272  -0.00051   0.00000  -0.00090  -0.00090   1.82182
   R18        2.66015  -0.00007   0.00000  -0.00016  -0.00016   2.65999
   R19        2.07756   0.00112   0.00000   0.00311   0.00311   2.08067
   R20        2.08713   0.00078   0.00000   0.00221   0.00221   2.08934
   R21        1.82893   0.00549   0.00000   0.00980   0.00980   1.83873
   R22        2.58504  -0.03109   0.00000  -0.05935  -0.05910   2.52594
   R23        2.05870   0.00395   0.00000   0.01065   0.01065   2.06935
   R24        2.61552  -0.01365   0.00000  -0.02806  -0.02803   2.58749
   R25        2.60697   0.02054   0.00000   0.04044   0.04023   2.64720
   R26        2.29417   0.02611   0.00000   0.02603   0.02603   2.32020
   R27        2.63458  -0.01041   0.00000  -0.01991  -0.02016   2.61442
   R28        1.91500   0.00025   0.00000   0.00051   0.00051   1.91551
   R29        2.31065   0.03424   0.00000   0.03552   0.03552   2.34617
    A1        1.81183  -0.00010   0.00000  -0.00203  -0.00211   1.80972
    A2        1.91145  -0.00068   0.00000  -0.00708  -0.00709   1.90436
    A3        1.98176   0.00104   0.00000   0.00879   0.00885   1.99061
    A4        1.90618  -0.00027   0.00000  -0.00193  -0.00182   1.90436
    A5        1.99070  -0.00038   0.00000  -0.00286  -0.00294   1.98775
    A6        1.86108   0.00031   0.00000   0.00428   0.00427   1.86535
    A7        1.81877   0.00172   0.00000   0.01136   0.01128   1.83005
    A8        1.95152  -0.00203   0.00000  -0.01094  -0.01120   1.94032
    A9        1.94143  -0.00030   0.00000  -0.00478  -0.00467   1.93676
   A10        1.87169   0.00186   0.00000   0.01879   0.01900   1.89069
   A11        1.95146  -0.00161   0.00000  -0.01416  -0.01421   1.93725
   A12        1.92571   0.00044   0.00000   0.00064   0.00062   1.92634
   A13        1.87717  -0.00443   0.00000  -0.01829  -0.01839   1.85878
   A14        1.85857   0.00030   0.00000  -0.00283  -0.00285   1.85572
   A15        2.01453   0.00112   0.00000   0.00413   0.00418   2.01871
   A16        1.91788   0.00001   0.00000  -0.00212  -0.00215   1.91574
   A17        1.89290   0.00310   0.00000   0.01146   0.01142   1.90432
   A18        1.90157  -0.00023   0.00000   0.00685   0.00681   1.90838
   A19        1.87303  -0.00110   0.00000  -0.00604  -0.00604   1.86699
   A20        1.92130   0.00176   0.00000   0.01455   0.01445   1.93575
   A21        2.13725   0.00913   0.00000   0.03352   0.03344   2.17069
   A22        2.08028  -0.00774   0.00000  -0.02846  -0.02855   2.05173
   A23        2.06557  -0.00139   0.00000  -0.00511  -0.00495   2.06062
   A24        1.84085   0.00134   0.00000   0.00416   0.00399   1.84484
   A25        2.00180  -0.00107   0.00000  -0.00961  -0.00957   1.99223
   A26        1.91034  -0.00032   0.00000   0.00138   0.00131   1.91165
   A27        1.87600  -0.00211   0.00000  -0.01604  -0.01606   1.85994
   A28        1.92373   0.00070   0.00000   0.00877   0.00879   1.93252
   A29        1.90931   0.00146   0.00000   0.01136   0.01141   1.92072
   A30        1.87509  -0.00281   0.00000  -0.01541  -0.01541   1.85968
   A31        1.96622  -0.00333   0.00000  -0.01458  -0.01459   1.95163
   A32        1.89913   0.00198   0.00000   0.01204   0.01206   1.91119
   A33        1.89151  -0.00020   0.00000  -0.00450  -0.00454   1.88697
   A34        1.87534   0.00053   0.00000   0.00233   0.00238   1.87773
   A35        1.94318   0.00145   0.00000   0.00386   0.00378   1.94696
   A36        1.88647  -0.00029   0.00000   0.00183   0.00183   1.88830
   A37        1.89432  -0.00003   0.00000  -0.00018  -0.00018   1.89414
   A38        2.13776   0.02184   0.00000   0.08532   0.08573   2.22349
   A39        2.12629  -0.01117   0.00000  -0.04404  -0.04424   2.08204
   A40        2.01913  -0.01067   0.00000  -0.04129  -0.04150   1.97764
   A41        2.15716  -0.02985   0.00000  -0.11789  -0.11751   2.03966
   A42        1.97248   0.02115   0.00000   0.07548   0.07528   2.04775
   A43        2.14695   0.00491   0.00000   0.01917   0.01927   2.16622
   A44        2.16376  -0.02606   0.00000  -0.09466  -0.09456   2.06920
   A45        2.23248  -0.00155   0.00000  -0.00400  -0.00445   2.22803
   A46        2.01855   0.00451   0.00000   0.02248   0.02271   2.04125
   A47        2.03215  -0.00295   0.00000  -0.01849  -0.01826   2.01390
   A48        2.00082  -0.01021   0.00000  -0.03387  -0.03419   1.96662
   A49        2.18907   0.00490   0.00000   0.01623   0.01637   2.20543
   A50        2.09328   0.00531   0.00000   0.01771   0.01785   2.11112
    D1        0.30417   0.00052   0.00000   0.01007   0.01027   0.31443
    D2       -1.71184  -0.00168   0.00000  -0.01329  -0.01310  -1.72494
    D3        2.40964  -0.00052   0.00000  -0.00251  -0.00240   2.40724
    D4       -1.72974   0.00119   0.00000   0.01654   0.01661  -1.71313
    D5        2.53745  -0.00101   0.00000  -0.00682  -0.00676   2.53069
    D6        0.37574   0.00015   0.00000   0.00396   0.00394   0.37968
    D7        2.47546   0.00059   0.00000   0.01034   0.01042   2.48588
    D8        0.45946  -0.00161   0.00000  -0.01302  -0.01295   0.44651
    D9       -1.70225  -0.00045   0.00000  -0.00224  -0.00225  -1.70450
   D10       -0.49938  -0.00035   0.00000   0.00790   0.00792  -0.49146
   D11       -2.55999   0.00195   0.00000   0.03029   0.03028  -2.52971
   D12        1.56995   0.00105   0.00000   0.02121   0.02118   1.59114
   D13        1.53821  -0.00130   0.00000  -0.00216  -0.00211   1.53609
   D14       -0.52240   0.00100   0.00000   0.02023   0.02025  -0.50215
   D15       -2.67564   0.00009   0.00000   0.01115   0.01115  -2.66449
   D16       -2.66489  -0.00134   0.00000   0.00008   0.00013  -2.66476
   D17        1.55769   0.00096   0.00000   0.02247   0.02249   1.58018
   D18       -0.59555   0.00005   0.00000   0.01339   0.01339  -0.58216
   D19       -1.07128   0.00029   0.00000   0.00994   0.01001  -1.06128
   D20        0.99984   0.00065   0.00000   0.01171   0.01164   1.01149
   D21        3.10530   0.00029   0.00000   0.01052   0.01052   3.11582
   D22       -0.01143  -0.00175   0.00000  -0.02630  -0.02616  -0.03759
   D23       -2.06666   0.00030   0.00000  -0.01323  -0.01325  -2.07990
   D24        2.10388  -0.00033   0.00000  -0.02249  -0.02250   2.08138
   D25        2.05993  -0.00238   0.00000  -0.02459  -0.02436   2.03556
   D26        0.00470  -0.00032   0.00000  -0.01152  -0.01145  -0.00675
   D27       -2.10795  -0.00095   0.00000  -0.02078  -0.02070  -2.12865
   D28       -2.11017  -0.00160   0.00000  -0.02005  -0.01990  -2.13007
   D29        2.11778   0.00046   0.00000  -0.00698  -0.00699   2.11080
   D30        0.00514  -0.00017   0.00000  -0.01625  -0.01624  -0.01110
   D31       -1.19951   0.00097   0.00000   0.00421   0.00412  -1.19538
   D32        3.10026  -0.00111   0.00000  -0.01450  -0.01441   3.08585
   D33        0.97101  -0.00057   0.00000  -0.00943  -0.00943   0.96159
   D34       -0.32003   0.00149   0.00000   0.03099   0.03088  -0.28915
   D35        1.69635  -0.00060   0.00000   0.01644   0.01647   1.71282
   D36       -2.50988   0.00099   0.00000   0.03037   0.03040  -2.47949
   D37        2.10611   0.00081   0.00000  -0.00824  -0.00820   2.09792
   D38       -1.04985   0.00062   0.00000  -0.01293  -0.01284  -1.06269
   D39       -2.07029  -0.00184   0.00000  -0.02053  -0.02064  -2.09093
   D40        1.05694  -0.00203   0.00000  -0.02522  -0.02529   1.03165
   D41        0.01691  -0.00015   0.00000  -0.01242  -0.01242   0.00449
   D42       -3.13905  -0.00033   0.00000  -0.01712  -0.01707   3.12707
   D43        0.52023  -0.00050   0.00000  -0.02184  -0.02202   0.49821
   D44        2.66349  -0.00213   0.00000  -0.03938  -0.03946   2.62403
   D45       -1.54014  -0.00123   0.00000  -0.03029  -0.03041  -1.57055
   D46       -3.13899   0.00018   0.00000   0.00179   0.00181  -3.13718
   D47       -0.00081  -0.00003   0.00000  -0.00168  -0.00168  -0.00250
   D48        0.01685   0.00041   0.00000   0.00663   0.00667   0.02352
   D49       -3.12816   0.00020   0.00000   0.00316   0.00317  -3.12499
   D50       -3.13815   0.00005   0.00000  -0.00072  -0.00070  -3.13885
   D51        0.01082  -0.00040   0.00000  -0.01153  -0.01145  -0.00063
   D52       -0.01033  -0.00004   0.00000  -0.00488  -0.00471  -0.01504
   D53        3.13864  -0.00048   0.00000  -0.01570  -0.01546   3.12318
   D54        0.89646  -0.00020   0.00000  -0.01039  -0.01035   0.88611
   D55       -1.18124  -0.00011   0.00000  -0.01227  -0.01218  -1.19341
   D56        3.05454  -0.00075   0.00000  -0.01857  -0.01847   3.03608
   D57       -1.14416   0.00018   0.00000   0.00090   0.00078  -1.14338
   D58        3.06133   0.00027   0.00000  -0.00098  -0.00105   3.06028
   D59        1.01392  -0.00037   0.00000  -0.00728  -0.00734   1.00658
   D60        3.05025  -0.00024   0.00000  -0.00665  -0.00669   3.04357
   D61        0.97256  -0.00016   0.00000  -0.00853  -0.00852   0.96404
   D62       -1.07485  -0.00080   0.00000  -0.01483  -0.01480  -1.08965
   D63        0.65444  -0.00212   0.00000  -0.04190  -0.04191   0.61253
   D64        2.74594  -0.00132   0.00000  -0.03420  -0.03420   2.71173
   D65       -1.47471  -0.00052   0.00000  -0.02837  -0.02836  -1.50306
   D66       -0.01350   0.00001   0.00000  -0.00023  -0.00025  -0.01375
   D67        3.13131   0.00022   0.00000   0.00307   0.00309   3.13440
   D68        0.00300  -0.00024   0.00000  -0.00560  -0.00563  -0.00263
   D69       -3.13825  -0.00001   0.00000  -0.00020   0.00015  -3.13810
   D70        0.00319   0.00022   0.00000   0.00570   0.00586   0.00905
   D71       -3.13721   0.00033   0.00000   0.00740   0.00760  -3.12961
   D72       -3.13875  -0.00001   0.00000   0.00027   0.00043  -3.13832
   D73        0.00403   0.00010   0.00000   0.00197   0.00218   0.00621
   D74        0.00049   0.00002   0.00000  -0.00044  -0.00019   0.00029
   D75        3.13515   0.00044   0.00000   0.00974   0.00991  -3.13813
   D76        3.14088  -0.00008   0.00000  -0.00213  -0.00189   3.13899
   D77       -0.00765   0.00034   0.00000   0.00805   0.00822   0.00057
         Item               Value     Threshold  Converged?
 Maximum Force            0.035327     0.000450     NO 
 RMS     Force            0.007474     0.000300     NO 
 Maximum Displacement     0.200692     0.001800     NO 
 RMS     Displacement     0.051386     0.001200     NO 
 Predicted change in Energy=-1.195864D-02
 GradGradGradGradGradGradGradGradGradGradGradGradGradGradGradGradGradGrad

                          Input orientation:                          
 ---------------------------------------------------------------------
 Center     Atomic      Atomic             Coordinates (Angstroms)
 Number     Number       Type             X           Y           Z
 ---------------------------------------------------------------------
      1          6           0        2.384174   -0.262967   -0.617651
      2          6           0        1.231307   -1.285168   -0.581938
      3          6           0        0.393247   -0.892890    0.651533
      4          8           0        1.722736   -2.608682   -0.387380
      5          1           0        0.630431   -1.231677   -1.498806
      6          8           0        1.065497    0.214375    1.265044
      7          1           0        0.412839   -1.763934    1.329854
      8          6           0       -1.022607   -0.512851    0.376249
      9          6           0        2.395773    0.319292    0.797121
     10          1           0        2.137463    0.530670   -1.329764
     11          8           0        3.624831   -0.807316   -1.023142
     12          6           0        2.760835    1.787004    0.859717
     13          1           0        3.085697   -0.272655    1.436952
     14          8           0        1.992341    2.555889   -0.034483
     15          1           0        3.819047    1.914687    0.583719
     16          1           0        2.632610    2.128948    1.903295
     17          1           0        3.848922   -1.489384   -0.379722
     18          1           0        2.199103   -2.852174   -1.188097
     19          1           0        1.097608    2.176091   -0.078769
     20          6           0       -2.124083   -1.163931    0.906169
     21          7           0       -3.413338   -0.879214    0.697743
     22          6           0       -3.687767    0.184635   -0.119405
     23          7           0       -2.597425    0.878920   -0.659279
     24          6           0       -1.251980    0.614426   -0.475251
     25          1           0       -1.971465   -2.019185    1.572796
     26          1           0       -2.806950    1.671999   -1.254765
     27          8           0       -4.821614    0.564495   -0.397948
     28          8           0       -0.383095    1.318141   -1.014927
 ---------------------------------------------------------------------
                    Distance matrix (angstroms):
                    1          2          3          4          5
     1  C    0.000000
     2  C    1.541192   0.000000
     3  C    2.443650   1.541972   0.000000
     4  O    2.448040   1.425147   2.406414   0.000000
     5  H    2.188709   1.097524   2.189747   2.079553   0.000000
     6  O    2.347617   2.384840   1.433301   3.336483   3.149478
     7  H    3.151482   2.134023   1.104183   2.319121   2.886514
     8  C    3.557588   2.568019   1.491594   3.537307   2.600976
     9  C    1.529948   2.414970   2.345356   3.229405   3.285304
    10  H    1.094454   2.162783   2.999059   3.303879   2.324991
    11  O    1.414202   2.480314   3.640741   2.695751   3.061497
    12  C    2.554774   3.722374   3.581989   4.685612   4.383342
    13  H    2.171088   2.922304   2.872431   3.262341   3.945469
    14  O    2.905093   3.953808   3.862874   5.183629   4.283071
    15  H    2.871294   4.277176   4.429808   5.079215   4.940019
    16  H    3.483985   4.449295   3.963983   5.340431   5.184285
    17  H    1.925148   2.633345   3.655268   2.402822   3.417228
    18  H    2.657753   1.938960   3.237924   0.962996   2.276683
    19  H    2.809742   3.500196   3.232354   4.835295   3.721242
    20  C    4.843360   3.672574   2.544651   4.307968   3.657299
    21  N    5.976719   4.834781   3.806890   5.527007   4.615315
    22  C    6.108770   5.154760   4.290697   6.094914   4.749266
    23  N    5.110965   4.398687   3.715058   5.558875   3.946958
    24  C    3.743222   3.128346   2.499683   4.386921   2.828291
    25  H    5.182080   3.929301   2.776531   4.223378   4.101801
    26  H    5.576538   5.050252   4.522597   6.292427   4.506271
    27  O    7.256469   6.331900   5.515447   7.273079   5.844905
    28  O    3.211776   3.093701   2.875491   4.499808   2.786206
                    6          7          8          9         10
     6  O    0.000000
     7  H    2.084195   0.000000
     8  C    2.383063   2.129572   0.000000
     9  C    1.414070   2.925007   3.543292   0.000000
    10  H    2.825276   3.913196   3.739714   2.152916   0.000000
    11  O    3.581876   4.094948   4.862476   2.468438   2.023977
    12  C    2.347685   4.282905   4.453931   1.513726   2.600153
    13  H    2.085177   3.062605   4.249817   1.111657   3.033018
    14  O    2.833813   4.797615   4.321548   2.420059   2.408387
    15  H    3.307160   5.068651   5.420111   2.148612   2.899077
    16  H    2.555151   4.517825   4.761468   2.134143   3.640376
    17  H    3.654519   3.847686   5.025624   2.601521   2.812879
    18  H    4.087381   3.273390   4.277736   3.746728   3.386370
    19  H    2.378065   4.239921   3.454383   2.429016   2.313806
    20  C    3.493127   2.641114   1.384908   4.758250   5.102141
    21  N    4.645183   3.977679   2.439913   5.932290   6.075356
    22  C    4.950869   4.765737   2.799150   6.153667   5.959700
    23  N    4.190660   4.472473   2.342946   5.231282   4.794788
    24  C    2.925639   3.418570   1.431229   3.874550   3.496503
    25  H    3.782412   2.410204   2.145017   5.014271   5.640027
    26  H    4.844579   5.371493   3.258474   5.753988   5.074986
    27  O    6.127495   5.983843   4.023992   7.319767   7.021266
    28  O    2.918043   3.953567   2.386813   3.464581   2.659407
                   11         12         13         14         15
    11  O    0.000000
    12  C    3.319961   0.000000
    13  H    2.574605   2.163547   0.000000
    14  O    3.866990   1.407607   3.370639   0.000000
    15  H    3.166863   1.101041   2.459731   2.032282   0.000000
    16  H    4.262650   1.105633   2.488064   2.084995   1.787407
    17  H    0.964066   3.668087   2.315868   4.464338   3.537911
    18  H    2.498270   5.102064   3.785610   5.533599   5.337276
    19  H    4.022364   1.948965   3.499467   0.973013   2.813086
    20  C    6.074489   5.707241   5.312053   5.627329   6.700945
    21  N    7.245856   6.727211   6.569003   6.446507   7.754114
    22  C    7.434702   6.716453   6.964997   6.155785   7.735615
    23  N    6.456954   5.642952   6.165889   4.926312   6.617324
    24  C    5.109287   4.388594   4.822745   3.806465   5.341106
    25  H    6.286974   6.114754   5.351982   6.263099   7.069912
    26  H    6.896989   5.956886   6.763897   5.030263   6.880608
    27  O    8.579928   7.782659   8.160468   7.108287   8.800439
    28  O    4.536639   3.690313   4.535951   2.852365   4.535365
                   16         17         18         19         20
    16  H    0.000000
    17  H    4.447911   0.000000
    18  H    5.878453   2.287481   0.000000
    19  H    2.507395   4.593039   5.265677   0.000000
    20  C    5.870557   6.118514   5.091763   4.743959   0.000000
    21  N    6.859729   7.367066   6.240870   5.503317   1.336670
    22  C    6.915116   7.724752   6.709661   5.183375   2.305546
    23  N    5.956728   6.873311   6.099786   3.958903   2.616853
[...]
 ,-0.00140803,0.00110109,-0.00147452,-0.00013909,-0.00005727,0.00012292
 ,0.00029502,0.00330538,0.00098789,0.00072808,0.00037128,-0.00059837,0.
 00034118,0.00007891,-0.01037015,0.00740781,-0.00187979,-0.00010642,0.0
 0051319,-0.00035943,-0.00004280,0.00018342,0.00160784,-0.00039369,-0.0
 0043130,-0.00056715,0.00036209,-0.00083094,0.00061430,-0.00024974,0.00
 013094,0.00230664,0.00083925,0.00097405,0.00037400,0.00004327,-0.00000
 812,0.00000589,-0.00000924,0.00032188,-0.00026727,0.00002125,0.0000577
 3,-0.00001886,0.00015021,0.00002475,-0.00321360,-0.00163194,-0.0012237
 9,-0.01345692,0.04373706,-0.03235769,-0.11429646,0.00282699,-0.0017960
 2,0.83765001,0.00049282,0.00086439,-0.00017113,-0.00114287,-0.00103670
 ,-0.00072659,0.00492191,-0.00274444,0.00398002,-0.00101005,0.00066208,
 0.00034870,0.00015481,0.00007549,-0.00044778,-0.00469462,-0.00192886,-
 0.00052983,0.00009857,0.00006213,-0.00004881,-0.02320015,-0.03556879,0
 .02516119,0.00131697,0.00036224,-0.00110687,-0.00010589,0.00004908,0.0
 0014334,-0.00113031,-0.00020860,0.00041696,-0.00065844,0.00077014,-0.0
 0041290,-0.00059155,0.00000036,0.00007696,0.00122531,-0.00042919,0.000
 61962,-0.00004861,-0.00020877,0.00008273,0.00008648,-0.00007347,0.0000
 3999,0.00029324,-0.00000093,-0.00000640,-0.00002598,0.00006949,-0.0000
 3216,-0.00100786,-0.00025756,-0.00068055,0.07174126,-0.01544455,0.0068
 4240,0.01236414,-0.20084563,0.08875641,-0.15069244,0.50083627,-0.00036
 978,-0.00061843,0.00021624,0.00095028,0.00047648,0.00088309,-0.0036904
 2,0.00234530,-0.00271298,0.00069507,-0.00052855,-0.00043124,-0.0000866
 6,-0.00009079,0.00020133,0.00328107,0.00128959,-0.00007605,-0.00021963
 ,-0.00018234,0.00020126,0.01717153,0.02412007,-0.02126480,-0.00110303,
 -0.00023287,0.00082361,0.00010668,0.00003685,-0.00012094,0.00077793,0.
 00009899,-0.00039590,0.00040436,-0.00034378,0.00019973,0.00045039,-0.0
 0002492,-0.00006430,-0.00026933,0.00038931,-0.00033801,0.00009044,0.00
 013890,-0.00004528,-0.00006172,0.00001210,-0.00002790,-0.00020119,0.00
 004515,0.00003292,0.00008906,-0.00006062,0.00003486,0.00004679,-0.0001
 1573,0.00037923,-0.05262574,0.00705620,-0.01061978,-0.00891432,0.08866
 285,-0.14549802,0.11304187,-0.20187761,0.37354290,0.00074481,-0.001091
 58,0.00068249,0.00018807,-0.00135422,0.00007821,0.00208440,0.00030777,
 0.00000619,-0.00018192,0.00108146,-0.00014138,-0.00010831,-0.00021455,
 0.00003668,-0.00012319,0.00071054,-0.00095412,0.00004389,0.00025883,0.
 00003603,-0.00107808,0.04403634,-0.03270895,0.00078677,-0.00029429,0.0
 0047603,0.00079970,0.00005647,-0.00057143,-0.00094431,0.00083884,-0.00
 004603,0.00135110,-0.00129971,0.00167977,-0.00017504,0.00027322,-0.000
 24505,-0.00465486,-0.00134699,-0.00242421,-0.00043558,0.00017593,-0.00
 014044,-0.00016947,0.00009395,-0.00051929,-0.00005899,-0.00000486,-0.0
 0004229,-0.00003308,-0.00025251,-0.00006842,0.00635740,0.00385654,0.00
 349620,-0.04820845,-0.00242793,0.00207082,0.03537625,-0.03514622,0.025
 67560,-0.15974398,-0.00059741,0.00061717,0.69755216,0.00001560,-0.0004
 8415,0.00036535,-0.00076405,0.00007080,0.00045275,-0.00141601,-0.00406
 532,0.00495796,0.00004136,0.00027164,-0.00021999,-0.00007936,-0.000064
 06,-0.00022475,0.00060880,0.00128397,-0.00027941,0.00156005,-0.0006250
 4,0.00035400,0.03563873,-0.00232922,0.00932505,-0.00029323,-0.00016546
 ,0.00040663,0.00026868,0.00002575,-0.00027182,-0.00003596,0.00036800,-
 0.00015924,0.00050162,-0.00042072,0.00042289,0.00004522,0.00002107,-0.
 00007341,-0.00128770,-0.00027967,-0.00073466,-0.00009591,0.00008317,-0
 .00003409,-0.00003080,0.00002434,-0.00012009,-0.00012490,0.00001264,0.
 00000026,-0.00004113,-0.00006273,-0.00007722,0.00109604,0.00093099,0.0
 0111957,-0.00923073,-0.00318297,0.00113026,-0.01634590,-0.02856003,0.0
 3255648,-0.04788406,-0.14397038,0.06099152,-0.05024444,0.56590550,-0.0
 0001771,0.00010958,-0.00008606,-0.00004101,0.00041701,-0.00093819,0.00
 074177,0.00547047,0.00036344,-0.00019844,-0.00004197,0.00034858,-0.000
 09836,0.00013017,0.00009717,0.00072418,-0.00084291,0.00075357,-0.00108
 925,0.00011096,-0.00040415,-0.02556864,0.00922194,0.00504527,0.0002515
 5,0.00007472,-0.00012147,-0.00019369,0.00001815,0.00009176,0.00006190,
 -0.00017246,0.00012526,-0.00043269,0.00049849,-0.00044292,0.00002548,-
 0.00004024,0.00001420,0.00159946,0.00057080,0.00084931,0.00008907,-0.0
 0008167,0.00006317,0.00009011,-0.00003348,0.00014259,0.00007815,0.0000
 2980,0.00000199,-0.00008685,0.00009815,0.00005907,-0.00179889,-0.00150
 669,-0.00118304,0.00733076,0.00144346,-0.00211515,0.01137243,0.0329184
 5,-0.00823612,0.03396025,0.05986562,-0.10271665,0.03461240,-0.35908647
 ,0.32047792,-0.00204866,0.00288739,-0.00054031,-0.00205019,0.00193171,
 -0.00365682,0.00153304,0.03197070,-0.01863940,-0.00002041,-0.00182839,
 0.00148602,0.00014494,0.00153552,0.00062783,-0.00133665,-0.00625051,0.
 00278780,-0.00587334,0.00176693,-0.00062204,-0.12707198,0.02484209,-0.
 01671578,-0.00099064,0.00053437,-0.00201269,-0.00188327,-0.00048302,0.
 00090054,0.00086251,-0.00183482,0.00046149,-0.00316708,0.00241123,-0.0
 0334510,0.00024656,-0.00039702,0.00050448,0.00832842,0.00129723,0.0030
 9323,0.00078354,-0.00047617,0.00032972,0.00025442,-0.00012410,0.000905
 20,0.00038699,0.00010805,0.00006273,-0.00014217,0.00060645,0.00043502,
 -0.01433379,-0.00636666,-0.00265253,0.04676336,-0.02557707,0.01811931,
 -0.02024390,0.03015114,-0.02234469,-0.05072857,-0.04908032,0.03539172,
 -0.25311519,0.06624013,-0.04683196,0.71856518,-0.00030295,0.00329919,-
 0.00110914,-0.00275101,-0.00029517,-0.00164265,0.01813734,-0.00237572,
 0.00756236,-0.00110188,-0.00113981,0.00106139,0.00072747,0.00061658,-0
 .00049053,-0.00678116,-0.00758377,0.00097997,0.00050965,0.00131067,0.0
 0113309,0.04676504,-0.19211822,0.07930838,0.00082977,0.00048271,-0.002
 34461,-0.00206512,-0.00012239,0.00103322,-0.00056841,-0.00215837,0.001
 14776,-0.00371267,0.00329592,-0.00360337,-0.00032030,-0.00031041,0.000
 47107,0.00993635,0.00171470,0.00435736,0.00073279,-0.00067380,0.000413
 37,0.00031502,-0.00023838,0.00092455,0.00078429,0.00003886,0.00009140,
 0.00013625,0.00058624,0.00015885,-0.01374119,-0.00726630,-0.00471236,-
 0.05954574,-0.02296718,0.01748256,0.03629395,-0.02878531,0.01962842,0.
 00501892,0.05280509,-0.04785422,0.02261272,-0.13628605,0.05764408,0.09
 879003,0.59348758,0.00076120,-0.00209640,0.00095008,0.00260977,-0.0004
 1106,0.00284347,-0.01557224,0.00001604,-0.00602062,0.00040462,0.001012
 87,-0.00128858,0.00009063,-0.00120214,0.00004600,0.00647103,0.00684071
 ,-0.00060449,0.00015421,0.00081304,0.00066450,-0.03030195,0.07829832,-
 0.13644321,-0.00183001,-0.00038810,0.00231138,0.00130176,0.00019065,-0
 .00085097,0.00023761,0.00126544,-0.00092240,0.00273594,-0.00292980,0.0
 0293337,0.00053258,0.00025562,-0.00035301,-0.01029895,-0.00215141,-0.0
 0483510,-0.00064345,0.00070212,-0.00050008,-0.00038118,0.00012795,-0.0
 0082073,-0.00047401,0.00002184,0.00000681,0.00013851,-0.00046819,-0.00
 021611,0.01317040,0.00565852,0.00652471,0.04216854,0.01858351,-0.01219
 585,-0.02571425,0.01833851,-0.01616431,-0.00322096,-0.04606913,0.02157
 151,-0.01648824,0.05783172,-0.09748846,-0.07351077,-0.27511813,0.40658
 290,-0.00004464,-0.00006747,-0.00000609,-0.00007943,0.00012043,-0.0000
 2043,0.00089890,-0.00245726,0.00149628,0.00006166,-0.00005254,-0.00004
 128,0.00003140,-0.00000692,-0.00005088,0.00033910,0.00054595,-0.000032
 85,-0.00009688,0.00085280,-0.00053862,0.00552174,-0.01689385,0.0126359
 7,-0.00019870,-0.00002156,0.00009217,0.00001139,0.00000084,-0.00000901
 ,0.00011119,0.00001040,-0.00004448,0.00003518,-0.00003480,0.00000334,0
 .00004633,-0.00001539,-0.00000042,-0.00001250,0.00004766,-0.00002407,0
 .00001030,0.00001570,-0.00000919,-0.00000681,0.00000284,0.00000641,-0.
 00002960,0.00000354,0.00000373,0.00001054,0.00002061,-0.00001195,0.000
 01968,-0.00000775,0.00004290,-0.05537092,0.02106102,-0.01573695,-0.012
 79375,0.02833474,-0.02095745,-0.00373987,0.00179105,-0.00114196,-0.000
 01834,0.00052435,-0.00037456,-0.00449512,-0.00177647,0.00149674,0.0699
 6040,0.00009088,-0.00014954,-0.00007218,0.00020467,0.00033220,0.000042
 93,0.00204319,-0.00133515,-0.00166651,-0.00004297,0.00011104,-0.000030
 48,0.00005192,-0.00006168,-0.00012007,-0.00030310,0.00003566,-0.000122
 26,-0.00107051,0.00079486,-0.00050857,0.00443420,-0.00882719,0.0134586
 4,-0.00015189,-0.00001770,-0.00007056,0.00005983,0.00002006,-0.0000319
 4,0.00005510,0.00008443,-0.00004010,0.00010050,-0.00011477,0.00013339,
 -0.00004283,0.00000980,-0.00000378,-0.00027099,0.00003736,-0.00016127,
 -0.00002027,0.00001398,-0.00001816,-0.00001431,0.00000128,-0.00003631,
 -0.00003403,-0.00000916,-0.00000296,0.00000432,0.00001632,0.00000503,0
 .00036001,0.00009278,0.00020068,0.01988042,-0.21524650,0.12596913,0.00
 983236,-0.00544027,0.00348701,0.00051319,0.00597475,0.00315229,-0.0006
 3376,0.00006386,-0.00055925,-0.00315910,0.00350692,0.00408287,-0.03209
 860,0.22400442,-0.00001647,-0.00001728,-0.00010380,0.00034614,0.000376
 46,0.00010774,-0.00092945,-0.00142244,-0.00228484,-0.00004494,-0.00026
 347,-0.00002534,-0.00004753,0.00003176,0.00001434,-0.00041084,-0.00034
 168,0.00044147,0.00094591,-0.00032772,0.00020484,-0.00370205,0.0134571
 6,-0.00062105,0.00001366,-0.00012504,-0.00005424,-0.00004398,0.0000081
 0,0.00001595,0.00004074,-0.00006554,0.00001224,-0.00014648,0.00009572,
 -0.00006435,0.00001483,-0.00000893,0.00000581,0.00020778,-0.00000554,0
 .00008900,0.00001520,-0.00002956,0.00000387,0.00000170,-0.00001017,0.0
 0001567,0.00003173,0.00002106,0.00000222,0.00006151,0.00000523,-0.0000
 0125,-0.00025898,-0.00013331,-0.00009765,-0.01466590,0.12599961,-0.140
 99553,-0.00768417,0.00340520,-0.00294104,-0.00022406,0.00314039,0.0080
 4487,0.00055270,-0.00061390,-0.00032307,0.00271460,0.00373018,0.005679
 20,0.02346141,-0.14673409,0.13679451,-0.00004226,0.00013671,-0.0000714
 5,0.00007850,0.00004467,-0.00023034,0.00062245,0.00161359,-0.00091766,
 -0.00003598,-0.00004996,0.00009410,0.00000446,0.00004127,0.00004305,-0
 .00004617,-0.00038119,0.00017236,-0.00051586,0.00017345,-0.00011461,-0
 .00649822,-0.00008091,0.00017274,0.00007938,0.00004469,-0.00011356,-0.
 00008240,-0.00000779,0.00004696,0.00001945,-0.00009738,0.00004763,-0.0
 0018397,0.00015125,-0.00017581,-0.00000606,-0.00001875,0.00002272,0.00
 041475,0.00001482,0.00023373,0.00003951,-0.00002955,0.00001559,0.00001
 478,-0.00000968,0.00005190,0.00002896,0.00000360,0.00000363,-0.0000098
 3,0.00003139,0.00002206,-0.00044695,-0.00020665,-0.00028529,-0.0019024
 4,0.00028714,-0.00017868,-0.00452666,-0.00471300,0.00346772,0.01775915
 ,-0.02185784,0.01553764,-0.08663221,0.06352747,-0.04512878,0.00130261,
 0.03173410,-0.02279224,0.00010652,-0.00004164,0.00003133,0.07792546,0.
 00004606,-0.00000651,0.00000605,0.00001790,-0.00005057,0.00003135,-0.0
 0027135,0.00027888,0.00052343,-0.00006541,0.00003925,-0.00003820,0.000
 00484,-0.00002757,-0.00003231,-0.00007013,-0.00001012,-0.00005375,0.00
 005926,-0.00011602,-0.00002738,0.00119143,0.00405152,0.00082969,0.0000
 6381,-0.00000503,0.00001993,0.00002530,0.00001674,-0.00000471,-0.00006
 245,-0.00000347,-0.00000545,-0.00000074,-0.00001526,0.00002961,-0.0000
 1451,-0.00000123,-0.00000732,-0.00020086,-0.00019911,-0.00009264,-0.00
 001537,0.00000295,-0.00000627,-0.00001020,-0.00000013,-0.00002184,0.00
 001227,0.00000701,0.00000498,0.00002435,0.00000243,0.00001042,0.000341
 67,0.00029121,0.00015695,-0.00134757,0.00071060,-0.00080613,-0.0033945
 2,0.00102759,0.00255092,0.00737592,-0.01249443,0.00824926,0.06392589,-
 0.29330634,0.19713876,0.00276310,-0.00467836,0.00320334,0.00013224,-0.
 00043998,-0.00037673,-0.07016837,0.30556390,-0.00002564,0.00001365,0.0
 0001101,0.00003439,0.00006472,-0.00000003,0.00029988,0.00058650,0.0005
 5582,-0.00000953,-0.00003334,-0.00001363,-0.00000816,-0.00000580,-0.00
 000044,0.00010660,-0.00015327,-0.00005605,-0.00006201,-0.00006604,-0.0
 0008788,-0.00089188,0.00094097,0.00460960,-0.00004221,0.00001097,0.000
 01227,-0.00002692,-0.00000229,0.00003119,0.00004531,-0.00004109,-0.000
 03453,-0.00004701,0.00004163,-0.00002595,0.00001249,-0.00000993,0.0000
 0226,0.00007527,-0.00008273,-0.00005889,0.00001757,-0.00000374,-0.0000
 0175,-0.00001236,-0.00000283,-0.00000910,0.00000390,0.00000957,0.00000
 681,0.00000967,0.00001299,0.00001826,-0.00009281,0.00007751,0.00009304
 ,0.00093950,-0.00075403,0.00016817,0.00244709,0.00264959,0.00268094,-0
 .00495849,0.00837453,-0.00713127,-0.04577934,0.19676844,-0.15690144,-0
 .00148472,0.00333167,-0.00244644,-0.00009944,-0.00040278,-0.00066952,0
 .04973874,-0.20572028,0.16357867,0.00091398,0.00026982,0.00007454,-0.0
 0055566,-0.00174006,-0.00070230,0.00540996,-0.00016683,0.00204015,-0.0
 0106961,0.00131405,0.00022788,0.00007128,-0.00003791,-0.00037145,-0.00
 396679,-0.00136542,-0.00056152,-0.00019399,0.00033437,-0.00007970,-0.0
 0621422,0.00189832,-0.00097105,0.00180162,0.00015472,-0.00076756,0.000
 22737,0.00002679,-0.00013368,-0.00158344,0.00024704,0.00045144,0.00021
 847,-0.00006129,0.00051556,-0.00064117,0.00018055,-0.00006782,-0.00143
 666,-0.00087752,-0.00062839,-0.00029101,-0.00010300,0.00003115,0.00001
 264,-0.00000792,-0.00023446,0.00027738,-0.00002313,-0.00004136,-0.0000
 2668,-0.00010130,-0.00004062,0.00202435,0.00141436,0.00090415,0.010861
 49,-0.00096107,0.00049050,-0.02194236,0.04048260,-0.03022118,-0.524454
 10,0.14785153,-0.11062153,-0.10071836,0.00056882,-0.00053914,0.0129208
 1,-0.00624741,0.00436292,-0.00093563,0.00075568,-0.00053726,-0.0010093
 7,0.00134904,-0.00112937,0.64051076,-0.00032329,-0.00032972,0.00002068
 ,0.00051550,0.00059758,0.00041969,-0.00235482,0.00041913,-0.00196620,0
 .00055330,-0.00040863,-0.00015846,-0.00005072,-0.00002955,0.00021347,0
 .00204882,0.00090754,0.00022743,-0.00010299,0.00001485,-0.00002908,0.0
 0612273,0.00686467,-0.00640820,-0.00077835,-0.00012978,0.00045123,0.00
 000772,-0.00001795,-0.00001525,0.00066626,0.00005210,-0.00021606,0.000
 18327,-0.00024873,0.00003789,0.00028465,-0.00003079,-0.00000734,-0.000
 08633,0.00037692,-0.00005767,0.00006716,0.00008338,-0.00003218,-0.0000
 2785,0.00002697,0.00003703,-0.00015933,-0.00001137,0.00000116,0.000000
 23,-0.00001880,0.00001277,-0.00012449,-0.00026270,0.00001145,-0.015457
 04,-0.00168489,0.00686155,0.05813671,-0.02287881,0.03066583,0.14748384
 ,-0.14133608,0.04453638,-0.02663641,0.02421045,-0.00206717,0.00842777,
 -0.00875064,0.01076395,0.00131502,-0.00117220,0.00008779,0.00365348,0.
 00077949,-0.00294313,-0.18194768,0.14074270,0.00024282,0.00022575,-0.0
 0008026,-0.00028446,-0.00045815,-0.00033897,0.00198455,-0.00107038,0.0
 0059649,-0.00032132,0.00033698,0.00017006,0.00004147,0.00002375,-0.000
 08563,-0.00183961,-0.00062051,-0.00005342,0.00011450,0.00005002,-0.000
 01555,-0.00470509,-0.00598701,0.00324147,0.00062557,0.00009374,-0.0004
 2150,0.00000532,-0.00000392,0.00001488,-0.00047740,0.00002226,0.000213
 15,-0.00010843,0.00010704,-0.00002037,-0.00024594,0.00003353,0.0000153
 0,-0.00007503,-0.00021974,0.00008058,-0.00006763,-0.00006572,0.0000252
 6,0.00002635,-0.00000040,-0.00000934,0.00009889,-0.00002715,-0.0000250
 6,-0.00003438,-0.00001157,-0.00002672,0.00019848,0.00019441,-0.0000546
 3,0.01136154,0.00665065,0.00230395,-0.04296856,0.03084332,-0.00456111,
 -0.11038186,0.04434409,-0.11466788,0.01871302,-0.00208878,0.02286196,-
 0.00599181,0.01108058,-0.00127198,-0.00100972,0.00014467,-0.00111827,-
 0.00256296,-0.00303946,-0.00134304,0.13669782,-0.07804236,0.09395481,0
 .00019806,-0.00364814,0.00232760,0.00203571,-0.00155782,0.00210978,-0.
 01118117,-0.00444236,-0.00267268,0.00061025,0.00199682,-0.00102186,-0.
 00023376,-0.00090196,0.00007713,0.00509146,0.00786870,-0.00290225,0.00
 036364,-0.00006533,-0.00055544,0.00895600,-0.02563834,0.01870303,0.000
 28693,-0.00088627,0.00279152,-0.00003910,0.00178743,-0.00173561,-0.000
 89517,0.00283004,-0.00122436,0.00409266,-0.00471371,0.00483581,0.00002
 876,0.00056713,-0.00056961,-0.01944079,-0.00704806,-0.00988371,-0.0012
 9374,0.00087238,-0.00071532,-0.00061161,0.00033492,-0.00141399,-0.0007
 6565,-0.00002585,-0.00008120,-0.00007087,-0.00070822,-0.00025562,0.010
 76804,0.00777748,0.00443573,0.00196097,0.00526116,-0.00311440,-0.00374
 321,-0.00605594,0.00423341,0.01323567,0.01350624,-0.00934668,-0.088885
 18,-0.04276269,0.03146246,-0.30459142,-0.17440938,0.12459182,0.0006578
 7,-0.00050228,0.00027287,0.00354237,-0.00171160,0.00093948,-0.01021105
 ,-0.00141716,0.00096387,0.39013432,0.00002483,-0.00135375,-0.00096062,
 0.00027273,0.00173629,0.00060698,-0.00851232,-0.00089605,-0.00575480,0
 .00110827,0.00010710,-0.00010819,0.00003813,0.00020202,0.00028650,0.00
 466825,0.00434333,0.00112702,-0.00028388,0.00041112,-0.00024521,-0.036
 15715,-0.03250877,0.03912452,-0.00201109,-0.00073827,0.00087313,0.0015
 3830,-0.00170470,-0.00026492,0.00123044,0.00091140,0.00009036,0.003134
 53,-0.00544996,0.00448438,0.00033204,0.00052642,-0.00018938,-0.0178202
 6,-0.00131976,-0.00825038,-0.00118965,0.00087888,-0.00076803,-0.000536
 11,0.00052608,-0.00115235,-0.00029062,-0.00026047,-0.00017687,-0.00018
 994,-0.00027112,-0.00005701,0.01593419,0.00309543,0.00622516,0.0190811
 5,0.00017187,0.00420694,-0.01108705,0.00539467,-0.00547202,0.00274131,
 -0.00598312,0.01032861,-0.01668365,0.02052996,-0.00132831,-0.18068665,
 -0.24539461,0.12282735,-0.00134659,-0.00228559,0.00011676,-0.00379492,
 -0.00141742,-0.00266145,-0.00320715,0.00223488,-0.00251565,0.23369282,
 0.25851415,-0.00001892,0.00137635,-0.00126444,-0.00107593,-0.00012196,
 -0.00179090,0.00542012,-0.00301468,-0.00012387,0.00015302,-0.00077591,
 0.00109957,0.00035649,0.00105380,0.00026230,-0.00477770,0.00072590,-0.
 00197539,0.00017598,-0.00016408,0.00021721,0.02517808,0.03826813,-0.00
 616166,0.00270082,-0.00053603,-0.00125806,-0.00146895,-0.00043957,0.00
 037479,0.00002949,-0.00069892,0.00104507,-0.00018967,-0.00021035,0.000
 39420,-0.00039173,0.00013625,0.00031812,-0.00223637,-0.00148113,0.0021
 3416,-0.00026758,-0.00011286,-0.00010701,0.00010910,0.00012157,0.00021
 793,0.00030035,-0.00022189,-0.00011255,-0.00017579,0.00027239,0.000029
 06,-0.00209845,0.00004534,-0.00779513,-0.01307413,0.00372314,0.0028161
 0,0.00763787,-0.00508267,0.00225356,-0.00155132,0.00991682,-0.00002055
 ,0.01139588,-0.00269905,0.01966148,0.13052894,0.12533475,-0.16769157,0
 .00087040,-0.00009536,-0.00213176,0.00286948,-0.00252225,-0.00298807,0
 .00185231,-0.00240520,0.00061585,-0.16225179,-0.16039250,0.16198157\\-
 0.00000459,-0.00000031,-0.00000074,0.00000636,0.00000507,-0.00000189,-
 0.00001041,-0.00001568,-0.00001070,-0.00000287,-0.00000491,0.00000109,
 -0.00000116,-0.00000114,0.00000142,0.00002238,0.00001605,0.00000104,0.
 00000220,0.00000295,0.00000033,-0.00000972,0.00000059,0.00000990,-0.00
 002283,0.00000113,0.00001442,0.00000150,-0.00000223,-0.00000059,0.0000
 0835,0.00000110,-0.00000284,0.00000603,-0.00000829,0.00000468,0.000003
 11,-0.00000415,-0.00000069,-0.00001175,0.00000437,0.00000251,0.0000012
 9,-0.00000449,-0.00000156,0.00000266,0.00000412,-0.00000132,-0.0000024
 0,-0.00000077,0.00000140,-0.00000037,0.00000032,0.00000058,0.00000537,
 -0.00000071,-0.00000492,0.00000858,-0.00000325,-0.00000444,-0.00000585
 ,0.00000266,0.00000041,0.00000581,-0.00000426,-0.00000291,0.00000476,0
 .00000403,0.00000623,0.00000898,0.00001144,-0.00001361,-0.00000457,0.0
 0000344,-0.00000014,-0.00000303,-0.00000010,-0.00000194,0.00000069,0.0
 0000287,-0.00000132,-0.00000851,-0.00000983,0.00000560\\\@
 The archive entry for this job was punched.


      THE ONE-EYED VIEW OF OUR UNIVERSE SAYS YOU MUST NOT LOOK
      FAR AFIELD FOR PROBLEMS.  SUCH PROBLEMS MAY NEVER ARRIVE. 
      INSTEAD, TEND TO THE WOLF WITHIN YOUR FENCES.
      THE PACKS RANGING OUTSIDE MAY NOT EVEN EXIST.

                              -- THE AZHAR BOOK SHAMRA I:4
                                 CHILDREN OF DUNE, BY FRANK HERBERT
 Job cpu time:       0 days 10 hours  2 minutes 33.7 seconds.
 Elapsed time:       0 days  0 hours 15 minutes 11.8 seconds.
 File lengths (MBytes):  RWF=    600 Int=      0 D2E=      0 Chk=     20 Scr=      1
 Normal termination of Gaussian 16 at Sun Oct 27 03:37:14 2024.
