 Entering Gaussian System, Link 0=g16
 Input=PseudoUridineNallgPBE0aVDZ.gjf
 Output=PseudoUridineNallgPBE0aVDZ.log
 Initial command:
 /sw/contrib/chem-src/g16/c01/g16/l1.exe "/scr/Gau-74554.inp" -scrdir="/scr/"
 Entering Link 1 = /sw/contrib/chem-src/g16/c01/g16/l1.exe PID=     74555.
  
 Copyright (c) 1988-2019, Gaussian, Inc.  All Rights Reserved.
  
 This is part of the Gaussian(R) 16 program.  It is based on
 the Gaussian(R) 09 system (copyright 2009, Gaussian, Inc.),
 the Gaussian(R) 03 system (copyright 2003, Gaussian, Inc.),
 the Gaussian(R) 98 system (copyright 1998, Gaussian, Inc.),
 the Gaussian(R) 94 system (copyright 1995, Gaussian, Inc.),
 the Gaussian 92(TM) system (copyright 1992, Gaussian, Inc.),
 the Gaussian 90(TM) system (copyright 1990, Gaussian, Inc.),
 the Gaussian 88(TM) system (copyright 1988, Gaussian, Inc.),
 the Gaussian 86(TM) system (copyright 1986, Carnegie Mellon
 University), and the Gaussian 82(TM) system (copyright 1983,
 Carnegie Mellon University). Gaussian is a federally registered
 trademark of Gaussian, Inc.
  
 This software contains proprietary and confidential information,
 including trade secrets, belonging to Gaussian, Inc.
  
 This software is provided under written license and may be
 used, copied, transmitted, or stored only in accord with that
 written license.
  
 The following legend is applicable only to US Government
 contracts under FAR:
  
                    RESTRICTED RIGHTS LEGEND
  
 Use, reproduction and disclosure by the US Government is
 subject to restrictions as set forth in subparagraphs (a)
 and (c) of the Commercial Computer Software - Restricted
 Rights clause in FAR 52.227-19.
  
 Gaussian, Inc.
 340 Quinnipiac St., Bldg. 40, Wallingford CT 06492
  
  
 ---------------------------------------------------------------
 Warning -- This program may not be used in any manner that
 competes with the business of Gaussian, Inc. or will provide
 assistance to any competitor of Gaussian, Inc.  The licensee
 of this program is prohibited from giving any competitor of
 Gaussian, Inc. access to this program.  By using this program,
 the user acknowledges that Gaussian, Inc. is engaged in the
 business of creating and licensing software in the field of
 computational chemistry and represents and warrants to the
 licensee that it is not a competitor of Gaussian, Inc. and that
 it will not use this program in any manner prohibited above.
 ---------------------------------------------------------------
  

 Cite this work as:
 Gaussian 16, Revision C.01,
 M. J. Frisch, G. W. Trucks, H. B. Schlegel, G. E. Scuseria, 
 M. A. Robb, J. R. Cheeseman, G. Scalmani, V. Barone, 
 G. A. Petersson, H. Nakatsuji, X. Li, M. Caricato, A. V. Marenich, 
 J. Bloino, B. G. Janesko, R. Gomperts, B. Mennucci, H. P. Hratchian, 
 J. V. Ortiz, A. F. Izmaylov, J. L. Sonnenberg, D. Williams-Young, 
 F. Ding, F. Lipparini, F. Egidi, J. Goings, B. Peng, A. Petrone, 
 T. Henderson, D. Ranasinghe, V. G. Zakrzewski, J. Gao, N. Rega, 
 G. Zheng, W. Liang, M. Hada, M. Ehara, K. Toyota, R. Fukuda, 
 J. Hasegawa, M. Ishida, T. Nakajima, Y. Honda, O. Kitao, H. Nakai, 
 T. Vreven, K. Throssell, J. A. Montgomery, Jr., J. E. Peralta, 
 F. Ogliaro, M. J. Bearpark, J. J. Heyd, E. N. Brothers, K. N. Kudin, 
 V. N. Staroverov, T. A. Keith, R. Kobayashi, J. Normand, 
 K. Raghavachari, A. P. Rendell, J. C. Burant, S. S. Iyengar, 
 J. Tomasi, M. Cossi, J. M. Millam, M. Klene, C. Adamo, R. Cammi, 
 J. W. Ochterski, R. L. Martin, K. Morokuma, O. Farkas, 
 J. B. Foresman, and D. J. Fox, Gaussian, Inc., Wallingford CT, 2019.
 
 ******************************************
 Gaussian 16:  EM64L-G16RevC.01  3-Jul-2019
                26-Oct-2024 
 ******************************************
 %nprocshared=40
 Will use up to   40 processors via shared memory.
 %mem=50gb
 ------------------------------------------------------
 # PBE1PBE/aug-cc-pVDZ opt freq EmpiricalDispersion=GD3
 ------------------------------------------------------
 1/18=20,19=15,26=3,38=1/1,3;
 2/9=110,12=2,17=6,18=5,40=1/2;
 3/5=16,7=10,11=2,25=1,30=1,71=1,74=-13,124=31/1,2,3;
 4//1;
 5/5=2,38=5/2;
 6/7=2,8=2,9=2,10=2,28=1/1;
 7//1,2,3,16;
 1/18=20,19=15,26=3/3(2);
 2/9=110/2;
 99//99;
 2/9=110/2;
 3/5=16,7=10,11=2,25=1,30=1,71=1,74=-13,124=31/1,2,3;
 4/5=5,16=3,69=1/1;
 5/5=2,38=5/2;
 7//1,2,3,16;
 1/18=20,19=15,26=3/3(-5);
 2/9=110/2;
 6/7=2,8=2,9=2,10=2,19=2,28=1/1;
 99/9=1/99;
 ----
 blah
 ----
 Symbolic Z-matrix:
 Charge =  0 Multiplicity = 1
 C                     2.35881  -0.22665  -0.60696 
 C                     1.20877  -1.25592  -0.62 
 C                     0.35647  -0.88377   0.60339 
 O                     1.67713  -2.57429  -0.39171 
 H                     0.62648  -1.20336  -1.54891 
 O                     0.97125   0.19009   1.26507 
 H                     0.31312  -1.76945   1.25531 
 C                    -1.02869  -0.5319    0.32409 
 C                     2.3163    0.35683   0.81064 
 H                     2.1527    0.56398  -1.33422 
 O                     3.60644  -0.77651  -0.9549 
 C                     2.65994   1.82962   0.90664 
 H                     2.99888  -0.2178    1.46563 
 O                     1.9535    2.62353  -0.01426 
 H                     3.73145   1.9525    0.69289 
 H                     2.47969   2.15886   1.94532 
 H                     3.83463  -1.43473  -0.28798 
 H                     2.21897  -2.8215   -1.14937 
 H                     1.0556    2.27404  -0.10647 
 C                    -2.05645  -1.18797   0.95844 
 N                    -3.35725  -0.88415   0.76966 
 C                    -3.72038   0.19504  -0.12968 
 N                    -2.60691   0.82034  -0.71342 
 C                    -1.27987   0.52865  -0.53582 
 H                    -1.74219  -1.98609   1.62931 
 H                    -4.14811  -1.42403   1.28083 
 H                    -2.80063   1.59074  -1.3427 
 O                    -4.84503   0.5753   -0.39467 
 O                    -0.38695   1.14533  -1.09856 
 

 GradGradGradGradGradGradGradGradGradGradGradGradGradGradGradGradGradGrad
 Berny optimization.
 Initialization pass.
                           ----------------------------
                           !    Initial Parameters    !
                           ! (Angstroms and Degrees)  !
 --------------------------                            --------------------------
 ! Name  Definition              Value          Derivative Info.                !
 --------------------------------------------------------------------------------
 ! R1    R(1,2)                  1.5434         estimate D2E/DX2                !
 ! R2    R(1,9)                  1.5336         estimate D2E/DX2                !
 ! R3    R(1,10)                 1.0938         estimate D2E/DX2                !
 ! R4    R(1,11)                 1.4071         estimate D2E/DX2                !
 ! R5    R(2,3)                  1.5367         estimate D2E/DX2                !
 ! R6    R(2,4)                  1.4176         estimate D2E/DX2                !
 ! R7    R(2,5)                  1.0976         estimate D2E/DX2                !
 ! R8    R(3,6)                  1.4032         estimate D2E/DX2                !
 ! R9    R(3,7)                  1.1006         estimate D2E/DX2                !
 ! R10   R(3,8)                  1.4562         estimate D2E/DX2                !
 ! R11   R(4,18)                 0.9637         estimate D2E/DX2                !
 ! R12   R(6,9)                  1.4295         estimate D2E/DX2                !
 ! R13   R(8,20)                 1.3745         estimate D2E/DX2                !
 ! R14   R(8,24)                 1.3883         estimate D2E/DX2                !
 ! R15   R(9,12)                 1.5154         estimate D2E/DX2                !
 ! R16   R(9,13)                 1.1069         estimate D2E/DX2                !
 ! R17   R(11,17)                0.9644         estimate D2E/DX2                !
 ! R18   R(12,14)                1.4062         estimate D2E/DX2                !
 ! R19   R(12,15)                1.0995         estimate D2E/DX2                !
 ! R20   R(12,16)                1.1044         estimate D2E/DX2                !
 ! R21   R(14,19)                0.9679         estimate D2E/DX2                !
 ! R22   R(20,21)                1.3491         estimate D2E/DX2                !
 ! R23   R(20,25)                1.089          estimate D2E/DX2                !
 ! R24   R(21,22)                1.451          estimate D2E/DX2                !
 ! R25   R(21,26)                1.0855         estimate D2E/DX2                !
 ! R26   R(22,23)                1.4041         estimate D2E/DX2                !
 ! R27   R(22,28)                1.2164         estimate D2E/DX2                !
 ! R28   R(23,24)                1.3703         estimate D2E/DX2                !
 ! R29   R(23,27)                1.0134         estimate D2E/DX2                !
 ! R30   R(24,29)                1.2224         estimate D2E/DX2                !
 ! A1    A(2,1,9)              103.9389         estimate D2E/DX2                !
 ! A2    A(2,1,10)             109.6332         estimate D2E/DX2                !
 ! A3    A(2,1,11)             113.4519         estimate D2E/DX2                !
 ! A4    A(9,1,10)             109.5339         estimate D2E/DX2                !
 ! A5    A(9,1,11)             113.6927         estimate D2E/DX2                !
 ! A6    A(10,1,11)            106.5653         estimate D2E/DX2                !
 ! A7    A(1,2,3)              104.1832         estimate D2E/DX2                !
 ! A8    A(1,2,4)              111.8793         estimate D2E/DX2                !
 ! A9    A(1,2,5)              111.7477         estimate D2E/DX2                !
 ! A10   A(3,2,4)              106.2749         estimate D2E/DX2                !
 ! A11   A(3,2,5)              111.5876         estimate D2E/DX2                !
 ! A12   A(4,2,5)              110.8617         estimate D2E/DX2                !
 ! A13   A(2,3,6)              108.5264         estimate D2E/DX2                !
 ! A14   A(2,3,7)              107.3686         estimate D2E/DX2                !
 ! A15   A(2,3,8)              115.6822         estimate D2E/DX2                !
 ! A16   A(6,3,7)              110.7201         estimate D2E/DX2                !
 ! A17   A(6,3,8)              108.8005         estimate D2E/DX2                !
 ! A18   A(7,3,8)              105.6999         estimate D2E/DX2                !
 ! A19   A(2,4,18)             107.3199         estimate D2E/DX2                !
 ! A20   A(3,6,9)              110.5858         estimate D2E/DX2                !
 ! A21   A(3,8,20)             120.4923         estimate D2E/DX2                !
 ! A22   A(3,8,24)             118.3922         estimate D2E/DX2                !
 ! A23   A(20,8,24)            121.013          estimate D2E/DX2                !
 ! A24   A(1,9,6)              105.995          estimate D2E/DX2                !
 ! A25   A(1,9,12)             114.964          estimate D2E/DX2                !
 ! A26   A(1,9,13)             109.4139         estimate D2E/DX2                !
 ! A27   A(6,9,12)             107.8541         estimate D2E/DX2                !
 ! A28   A(6,9,13)             109.3652         estimate D2E/DX2                !
 ! A29   A(12,9,13)            109.1005         estimate D2E/DX2                !
 ! A30   A(1,11,17)            107.7881         estimate D2E/DX2                !
 ! A31   A(9,12,14)            113.16           estimate D2E/DX2                !
 ! A32   A(9,12,15)            108.4995         estimate D2E/DX2                !
 ! A33   A(9,12,16)            108.198          estimate D2E/DX2                !
 ! A34   A(14,12,15)           107.4072         estimate D2E/DX2                !
 ! A35   A(14,12,16)           111.4448         estimate D2E/DX2                !
 ! A36   A(15,12,16)           107.9729         estimate D2E/DX2                !
 ! A37   A(12,14,19)           108.9384         estimate D2E/DX2                !
 ! A38   A(8,20,21)            123.2928         estimate D2E/DX2                !
 ! A39   A(8,20,25)            114.7323         estimate D2E/DX2                !
 ! A40   A(21,20,25)           121.9739         estimate D2E/DX2                !
 ! A41   A(20,21,22)           119.7058         estimate D2E/DX2                !
 ! A42   A(20,21,26)           121.642          estimate D2E/DX2                !
 ! A43   A(22,21,26)           118.6509         estimate D2E/DX2                !
 ! A44   A(21,22,23)           112.9816         estimate D2E/DX2                !
 ! A45   A(21,22,28)           126.7927         estimate D2E/DX2                !
 ! A46   A(23,22,28)           120.2254         estimate D2E/DX2                !
 ! A47   A(22,23,24)           128.2651         estimate D2E/DX2                !
 ! A48   A(22,23,27)           116.4296         estimate D2E/DX2                !
 ! A49   A(24,23,27)           115.3038         estimate D2E/DX2                !
 ! A50   A(8,24,23)            114.7159         estimate D2E/DX2                !
 ! A51   A(8,24,29)            122.5727         estimate D2E/DX2                !
 ! A52   A(23,24,29)           122.7085         estimate D2E/DX2                !
 ! D1    D(9,1,2,3)             16.4556         estimate D2E/DX2                !
 ! D2    D(9,1,2,4)            -97.9369         estimate D2E/DX2                !
 ! D3    D(9,1,2,5)            137.0786         estimate D2E/DX2                !
 ! D4    D(10,1,2,3)          -100.5653         estimate D2E/DX2                !
 ! D5    D(10,1,2,4)           145.0422         estimate D2E/DX2                !
 ! D6    D(10,1,2,5)            20.0577         estimate D2E/DX2                !
 ! D7    D(11,1,2,3)           140.4405         estimate D2E/DX2                !
 ! D8    D(11,1,2,4)            26.048          estimate D2E/DX2                !
 ! D9    D(11,1,2,5)           -98.9366         estimate D2E/DX2                !
 ! D10   D(2,1,9,6)            -25.4306         estimate D2E/DX2                !
 ! D11   D(2,1,9,12)          -144.46           estimate D2E/DX2                !
 ! D12   D(2,1,9,13)            92.3936         estimate D2E/DX2                !
 ! D13   D(10,1,9,6)            91.6594         estimate D2E/DX2                !
 ! D14   D(10,1,9,12)          -27.3699         estimate D2E/DX2                !
 ! D15   D(10,1,9,13)         -150.5163         estimate D2E/DX2                !
 ! D16   D(11,1,9,6)          -149.2592         estimate D2E/DX2                !
 ! D17   D(11,1,9,12)           91.7114         estimate D2E/DX2                !
 ! D18   D(11,1,9,13)          -31.435          estimate D2E/DX2                !
 ! D19   D(2,1,11,17)          -63.1474         estimate D2E/DX2                !
 ! D20   D(9,1,11,17)           55.3496         estimate D2E/DX2                !
 ! D21   D(10,1,11,17)         176.112          estimate D2E/DX2                !
 ! D22   D(1,2,3,6)             -2.0971         estimate D2E/DX2                !
 ! D23   D(1,2,3,7)           -121.8184         estimate D2E/DX2                !
 ! D24   D(1,2,3,8)            120.4704         estimate D2E/DX2                !
 ! D25   D(4,2,3,6)            116.21           estimate D2E/DX2                !
 ! D26   D(4,2,3,7)             -3.5112         estimate D2E/DX2                !
 ! D27   D(4,2,3,8)           -121.2225         estimate D2E/DX2                !
 ! D28   D(5,2,3,6)           -122.8273         estimate D2E/DX2                !
 ! D29   D(5,2,3,7)            117.4514         estimate D2E/DX2                !
 ! D30   D(5,2,3,8)             -0.2598         estimate D2E/DX2                !
 ! D31   D(1,2,4,18)           -66.5761         estimate D2E/DX2                !
 ! D32   D(3,2,4,18)          -179.674          estimate D2E/DX2                !
 ! D33   D(5,2,4,18)            58.8977         estimate D2E/DX2                !
 ! D34   D(2,3,6,9)            -14.7485         estimate D2E/DX2                !
 ! D35   D(7,3,6,9)            102.856          estimate D2E/DX2                !
 ! D36   D(8,3,6,9)           -141.3973         estimate D2E/DX2                !
 ! D37   D(2,3,8,20)           125.1088         estimate D2E/DX2                !
 ! D38   D(2,3,8,24)           -58.5345         estimate D2E/DX2                !
 ! D39   D(6,3,8,20)          -112.469          estimate D2E/DX2                !
 ! D40   D(6,3,8,24)            63.8877         estimate D2E/DX2                !
 ! D41   D(7,3,8,20)             6.4726         estimate D2E/DX2                !
 ! D42   D(7,3,8,24)          -177.1706         estimate D2E/DX2                !
 ! D43   D(3,6,9,1)             25.5641         estimate D2E/DX2                !
 ! D44   D(3,6,9,12)           149.1779         estimate D2E/DX2                !
 ! D45   D(3,6,9,13)           -92.2926         estimate D2E/DX2                !
 ! D46   D(3,8,20,21)          178.1624         estimate D2E/DX2                !
 ! D47   D(3,8,20,25)           -2.2024         estimate D2E/DX2                !
 ! D48   D(24,8,20,21)           1.9021         estimate D2E/DX2                !
 ! D49   D(24,8,20,25)        -178.4626         estimate D2E/DX2                !
 ! D50   D(3,8,24,23)         -178.1022         estimate D2E/DX2                !
 ! D51   D(3,8,24,29)            2.5031         estimate D2E/DX2                !
 ! D52   D(20,8,24,23)          -1.7652         estimate D2E/DX2                !
 ! D53   D(20,8,24,29)         178.84           estimate D2E/DX2                !
 ! D54   D(1,9,12,14)           49.3825         estimate D2E/DX2                !
 ! D55   D(1,9,12,15)          -69.7113         estimate D2E/DX2                !
 ! D56   D(1,9,12,16)          173.3841         estimate D2E/DX2                !
 ! D57   D(6,9,12,14)          -68.6053         estimate D2E/DX2                !
 ! D58   D(6,9,12,15)          172.3009         estimate D2E/DX2                !
 ! D59   D(6,9,12,16)           55.3963         estimate D2E/DX2                !
 ! D60   D(13,9,12,14)         172.696          estimate D2E/DX2                !
 ! D61   D(13,9,12,15)          53.6022         estimate D2E/DX2                !
 ! D62   D(13,9,12,16)         -63.3024         estimate D2E/DX2                !
 ! D63   D(9,12,14,19)          36.9514         estimate D2E/DX2                !
 ! D64   D(15,12,14,19)        156.6731         estimate D2E/DX2                !
 ! D65   D(16,12,14,19)        -85.2549         estimate D2E/DX2                !
 ! D66   D(8,20,21,22)          -0.7783         estimate D2E/DX2                !
 ! D67   D(8,20,21,26)         179.6462         estimate D2E/DX2                !
 ! D68   D(25,20,21,22)        179.6123         estimate D2E/DX2                !
 ! D69   D(25,20,21,26)          0.0368         estimate D2E/DX2                !
 ! D70   D(20,21,22,23)         -0.2863         estimate D2E/DX2                !
 ! D71   D(20,21,22,28)        179.9256         estimate D2E/DX2                !
 ! D72   D(26,21,22,23)        179.3019         estimate D2E/DX2                !
 ! D73   D(26,21,22,28)         -0.4863         estimate D2E/DX2                !
 ! D74   D(21,22,23,24)          0.2965         estimate D2E/DX2                !
 ! D75   D(21,22,23,27)       -179.2381         estimate D2E/DX2                !
 ! D76   D(28,22,23,24)       -179.8999         estimate D2E/DX2                !
 ! D77   D(28,22,23,27)          0.5655         estimate D2E/DX2                !
 ! D78   D(22,23,24,8)           0.7095         estimate D2E/DX2                !
 ! D79   D(22,23,24,29)       -179.8967         estimate D2E/DX2                !
 ! D80   D(27,23,24,8)        -179.7515         estimate D2E/DX2                !
 ! D81   D(27,23,24,29)         -0.3577         estimate D2E/DX2                !
 --------------------------------------------------------------------------------
 Trust Radius=3.00D-01 FncErr=1.00D-07 GrdErr=1.00D-06 EigMax=2.50D+02 EigMin=1.00D-04
 Number of steps in this run=    173 maximum allowed number of steps=    174.
 GradGradGradGradGradGradGradGradGradGradGradGradGradGradGradGradGradGrad

                          Input orientation:                          
 ---------------------------------------------------------------------
 Center     Atomic      Atomic             Coordinates (Angstroms)
 Number     Number       Type             X           Y           Z
 ---------------------------------------------------------------------
      1          6           0        2.358808   -0.226647   -0.606955
      2          6           0        1.208765   -1.255922   -0.620004
      3          6           0        0.356473   -0.883769    0.603393
      4          8           0        1.677126   -2.574293   -0.391705
      5          1           0        0.626478   -1.203359   -1.548907
      6          8           0        0.971247    0.190094    1.265065
      7          1           0        0.313124   -1.769445    1.255310
      8          6           0       -1.028691   -0.531898    0.324091
      9          6           0        2.316298    0.356832    0.810643
     10          1           0        2.152702    0.563981   -1.334218
     11          8           0        3.606436   -0.776506   -0.954903
     12          6           0        2.659937    1.829616    0.906644
     13          1           0        2.998881   -0.217797    1.465633
     14          8           0        1.953501    2.623534   -0.014263
     15          1           0        3.731448    1.952501    0.692891
     16          1           0        2.479688    2.158857    1.945322
     17          1           0        3.834634   -1.434734   -0.287976
     18          1           0        2.218975   -2.821504   -1.149374
     19          1           0        1.055603    2.274039   -0.106466
     20          6           0       -2.056454   -1.187971    0.958439
     21          7           0       -3.357248   -0.884148    0.769662
     22          6           0       -3.720383    0.195043   -0.129679
     23          7           0       -2.606911    0.820336   -0.713422
     24          6           0       -1.279873    0.528654   -0.535819
     25          1           0       -1.742186   -1.986093    1.629312
     26          1           0       -4.148111   -1.424027    1.280834
     27          1           0       -2.800629    1.590743   -1.342698
     28          8           0       -4.845030    0.575301   -0.394665
     29          8           0       -0.386946    1.145325   -1.098564
 ---------------------------------------------------------------------
                    Distance matrix (angstroms):
                    1          2          3          4          5
     1  C    0.000000
     2  C    1.543430   0.000000
     3  C    2.430246   1.536750   0.000000
     4  O    2.454071   1.417598   2.364787   0.000000
     5  H    2.200502   1.097580   2.192587   2.079047   0.000000
     6  O    2.367162   2.387648   1.403189   3.299240   3.158958
     7  H    3.167504   2.140720   1.100589   2.284938   2.877895
     8  C    3.526354   2.534114   1.456194   3.464850   2.588159
     9  C    1.533571   2.423707   2.328724   3.231977   3.295021
    10  H    1.093839   2.170983   3.012765   3.311082   2.344982
    11  O    1.407121   2.467959   3.605836   2.696566   3.068419
    12  C    2.570968   3.735920   3.572165   4.695321   4.400412
    13  H    2.169192   2.938044   2.858198   3.278691   3.960692
    14  O    2.939233   3.996465   3.902970   5.218836   4.331424
    15  H    2.884862   4.287377   4.409410   5.088070   4.962454
    16  H    3.495620   4.456103   3.945426   5.339336   5.191196
    17  H    1.933723   2.652811   3.632589   2.442170   3.454815
    18  H    2.654629   1.936957   3.208726   0.963730   2.305226
    19  H    2.863959   3.570407   3.311259   4.896323   3.789074
    20  C    4.782169   3.627362   2.457807   4.205282   3.672213
    21  N    5.916137   4.787260   3.717441   5.436017   4.620360
    22  C    6.112461   5.161610   4.280419   6.072148   4.781729
    23  N    5.076010   4.344992   3.663280   5.475398   3.904892
    24  C    3.716926   3.063514   2.443434   4.288694   2.767741
    25  H    4.991462   3.781625   2.583021   4.015244   4.040336
    26  H    6.880222   5.686613   4.587165   6.168783   5.554532
    27  H    5.519422   4.970013   4.458450   6.188877   4.426578
    28  O    7.251446   6.328711   5.493691   7.242822   5.867990
    29  O    3.108561   2.922550   2.750737   4.312262   2.597336
                    6          7          8          9         10
     6  O    0.000000
     7  H    2.067127   0.000000
     8  C    2.325179   2.049185   0.000000
     9  C    1.429498   2.954909   3.495072   0.000000
    10  H    2.879566   3.941393   3.751293   2.161042   0.000000
    11  O    3.578658   4.088627   4.814568   2.462938   2.013486
    12  C    2.380792   4.310724   4.418381   1.515387   2.623086
    13  H    2.077956   3.108880   4.197989   1.106856   3.027600
    14  O    2.919441   4.858077   4.354848   2.439268   2.454327
    15  H    3.324481   5.084696   5.382116   2.136042   2.920547
    16  H    2.571803   4.538907   4.709275   2.135764   3.661411
    17  H    3.640191   3.859378   4.984142   2.592685   2.813961
    18  H    4.056607   3.243702   4.238010   3.735366   3.391175
    19  H    2.496205   4.330759   3.521781   2.471057   2.373879
    20  C    3.340667   2.457874   1.374455   4.639959   5.103196
    21  N    4.487236   3.806736   2.396829   5.807825   6.073132
    22  C    4.894561   4.695379   2.824811   6.111620   6.006676
    23  N    4.137007   4.371439   2.322875   5.174514   4.806768
    24  C    2.902645   3.320699   1.388275   3.843817   3.524381
    25  H    3.497311   2.100265   2.080231   4.757185   5.518654
    26  H    5.367817   4.474660   3.382607   6.721690   7.105696
    27  H    4.794715   5.266495   3.228553   5.687034   5.058636
    28  O    6.060707   5.901424   4.038186   7.265337   7.060534
    29  O    2.888580   3.811391   2.291039   3.402105   2.615971
                   11         12         13         14         15
    11  O    0.000000
    12  C    3.339624   0.000000
    13  H    2.557396   2.149244   0.000000
    14  O    3.895802   1.406210   3.369877   0.000000
    15  H    3.190350   1.099512   2.417432   2.027670   0.000000
    16  H    4.277525   1.104419   2.479546   2.081531   1.782714
    17  H    0.964433   3.669198   2.292283   4.481419   3.527904
    18  H    2.478888   5.104368   3.771711   5.568428   5.335976
    19  H    4.066008   1.948792   3.529458   0.967920   2.811139
    20  C    5.991536   5.599362   5.172513   5.617247   6.590363
    21  N    7.174859   6.602257   6.428746   6.412677   7.635580
    22  C    7.436880   6.667404   6.918379   6.172832   7.700329
    23  N    6.419805   5.602049   6.103352   4.953555   6.590471
    24  C    5.074947   4.392642   4.782336   3.887834   5.352607
    25  H    6.062097   5.870313   5.062744   6.132545   6.808089
    26  H    8.096345   7.554848   7.250423   7.435704   8.592675
    27  H    6.841399   5.910531   6.692672   5.043129   6.851461
    28  O    8.577210   7.719536   8.100411   7.110555   8.754167
    29  O    4.434092   3.711147   4.460609   2.972962   4.563114
                   16         17         18         19         20
    16  H    0.000000
    17  H    4.442679   0.000000
    18  H    5.869336   2.296844   0.000000
    19  H    2.500224   4.637991   5.329695   0.000000
    20  C    5.722917   6.026555   5.038908   4.775399   0.000000
    21  N    6.686694   7.290056   6.207279   5.496817   1.349078
    22  C    6.826644   7.730428   6.739088   5.208916   2.421856
    23  N    5.893560   6.838117   6.061537   3.986936   2.670472
    24  C    4.790399   5.484022   4.882821   2.947060   2.404722
    25  H    5.924921   5.922914   4.910174   5.384169   1.088960
    26  H    7.563486   8.135447   6.956913   6.532912   2.129481
    27  H    6.246245   7.368356   6.685935   4.106786   3.683786
    28  O    7.850776   8.910005   7.874518   6.147051   3.565975
    29  O    4.302334   5.013531   4.746487   2.083075   3.530267
                   21         22         23         24         25
    21  N    0.000000
    22  C    1.450977   0.000000
    23  N    2.380716   1.404125   0.000000
    24  C    2.831215   2.496465   1.370274   0.000000
    25  H    2.135815   3.429966   3.756620   3.350444   0.000000
    26  H    1.085463   2.189494   3.374836   3.916629   2.495161
    27  H    3.301057   2.065270   1.013431   2.022816   4.769371
    28  O    2.387288   1.216406   2.273945   3.568255   4.503872
    29  O    4.053606   3.599108   2.276444   1.222409   4.368496
                   26         27         28         29
    26  H    0.000000
    27  H    4.217519   0.000000
    28  O    2.700057   2.471733   0.000000
    29  O    5.139014   2.466549   4.549166   0.000000
 Stoichiometry    C9H12N2O6
 Framework group  C1[X(C9H12N2O6)]
 Deg. of freedom    81
 Full point group                 C1      NOp   1
 Largest Abelian subgroup         C1      NOp   1
 Largest concise Abelian subgroup C1      NOp   1
                         Standard orientation:                         
 ---------------------------------------------------------------------
 Center     Atomic      Atomic             Coordinates (Angstroms)
 Number     Number       Type             X           Y           Z
 ---------------------------------------------------------------------
      1          6           0        2.377940   -0.231545   -0.603887
      2          6           0        1.223696   -1.255989   -0.624222
      3          6           0        0.369151   -0.884723    0.597872
      4          8           0        1.685888   -2.577106   -0.399253
      5          1           0        0.644521   -1.197658   -1.554726
      6          8           0        0.986302    0.184186    1.265329
      7          1           0        0.320114   -1.772559    1.246439
      8          6           0       -1.013671   -0.526105    0.315563
      9          6           0        2.333437    0.346984    0.815677
     10          1           0        2.177367    0.562551   -1.328915
     11          8           0        3.624358   -0.785314   -0.949964
     12          6           0        2.682864    1.817974    0.918075
     13          1           0        3.011598   -0.232832    1.470689
     14          8           0        1.982583    2.618134   -0.002130
     15          1           0        3.755533    1.937185    0.708085
     16          1           0        2.500750    2.144208    1.957377
     17          1           0        3.847758   -1.446886   -0.284723
     18          1           0        2.229063   -2.823825   -1.156133
     19          1           0        1.083538    2.272700   -0.098376
     20          6           0       -2.046105   -1.180196    0.944348
     21          7           0       -3.345038   -0.870302    0.752650
     22          6           0       -3.700910    0.213626   -0.143894
     23          7           0       -2.583052    0.836399   -0.721921
     24          6           0       -1.257790    0.538577   -0.541272
     25          1           0       -1.737227   -1.982031    1.613294
     26          1           0       -4.139712   -1.408738    1.259414
     27          1           0       -2.771625    1.609869   -1.348998
     28          8           0       -4.823145    0.599498   -0.410979
     29          8           0       -0.360576    1.153567   -1.099014
 ---------------------------------------------------------------------
 Rotational constants (GHZ):           0.9157952           0.3019366           0.2615621
 Standard basis: Aug-CC-pVDZ (5D, 7F)
 There are   533 symmetry adapted cartesian basis functions of A   symmetry.
 There are   499 symmetry adapted basis functions of A   symmetry.
   499 basis functions,   863 primitive gaussians,   533 cartesian basis functions
    64 alpha electrons       64 beta electrons
       nuclear repulsion energy      1328.2201765652 Hartrees.
 NAtoms=   29 NActive=   29 NUniq=   29 SFac= 1.00D+00 NAtFMM=   60 NAOKFM=F Big=F
 Integral buffers will be    131072 words long.
 Raffenetti 2 integral format.
 Two-electron integral symmetry is turned on.
 Nuclear repulsion after empirical dispersion term =     1328.1995623667 Hartrees.
 One-electron integrals computed using PRISM.
 NBasis=   499 RedAO= T EigKep=  2.03D-06  NBF=   499
 NBsUse=   499 1.00D-06 EigRej= -1.00D+00 NBFU=   499
 ExpMin= 2.97D-02 ExpMax= 1.17D+04 ExpMxC= 4.01D+02 IAcc=3 IRadAn=         5 AccDes= 0.00D+00
 Harris functional with IExCor= 1009 and IRadAn=       5 diagonalized for initial guess.
 HarFok:  IExCor= 1009 AccDes= 0.00D+00 IRadAn=         5 IDoV= 1 UseB2=F ITyADJ=14
 ICtDFT=  3500011 ScaDFX=  1.000000  1.000000  1.000000  1.000000
 FoFCou: FMM=F IPFlag=           0 FMFlag=      100000 FMFlg1=           0
         NFxFlg=           0 DoJE=T BraDBF=F KetDBF=T FulRan=T
         wScrn=  0.000000 ICntrl=       500 IOpCl=  0 I1Cent=   200000004 NGrid=           0
         NMat0=    1 NMatS0=      1 NMatT0=    0 NMatD0=    1 NMtDS0=    0 NMtDT0=    0
 Petite list used in FoFCou.
 Requested convergence on RMS density matrix=1.00D-08 within 128 cycles.
 Requested convergence on MAX density matrix=1.00D-06.
 Requested convergence on             energy=1.00D-06.
 No special actions if energy rises.
 EnCoef did     1 forward-backward iterations
 SCF Done:  E(RPBE1PBE) =  -910.207053147     A.U. after   15 cycles
            NFock= 15  Conv=0.24D-08     -V/T= 2.0053

 **********************************************************************

            Population analysis using the SCF Density.

 **********************************************************************

 Orbital symmetries:
       Occupied  (A) (A) (A) (A) (A) (A) (A) (A) (A) (A) (A) (A)
                 (A) (A) (A) (A) (A) (A) (A) (A) (A) (A) (A) (A)
                 (A) (A) (A) (A) (A) (A) (A) (A) (A) (A) (A) (A)
                 (A) (A) (A) (A) (A) (A) (A) (A) (A) (A) (A) (A)
                 (A) (A) (A) (A) (A) (A) (A) (A) (A) (A) (A) (A)
                 (A) (A) (A) (A)
       Virtual   (A) (A) (A) (A) (A) (A) (A) (A) (A) (A) (A) (A)
                 (A) (A) (A) (A) (A) (A) (A) (A) (A) (A) (A) (A)
                 (A) (A) (A) (A) (A) (A) (A) (A) (A) (A) (A) (A)
                 (A) (A) (A) (A) (A) (A) (A) (A) (A) (A) (A) (A)
                 (A) (A) (A) (A) (A) (A) (A) (A) (A) (A) (A) (A)
                 (A) (A) (A) (A) (A) (A) (A) (A) (A) (A) (A) (A)
                 (A) (A) (A) (A) (A) (A) (A) (A) (A) (A) (A) (A)
                 (A) (A) (A) (A) (A) (A) (A) (A) (A) (A) (A) (A)
                 (A) (A) (A) (A) (A) (A) (A) (A) (A) (A) (A) (A)
                 (A) (A) (A) (A) (A) (A) (A) (A) (A) (A) (A) (A)
                 (A) (A) (A) (A) (A) (A) (A) (A) (A) (A) (A) (A)
                 (A) (A) (A) (A) (A) (A) (A) (A) (A) (A) (A) (A)
                 (A) (A) (A) (A) (A) (A) (A) (A) (A) (A) (A) (A)
                 (A) (A) (A) (A) (A) (A) (A) (A) (A) (A) (A) (A)
                 (A) (A) (A) (A) (A) (A) (A) (A) (A) (A) (A) (A)
                 (A) (A) (A) (A) (A) (A) (A) (A) (A) (A) (A) (A)
                 (A) (A) (A) (A) (A) (A) (A) (A) (A) (A) (A) (A)
                 (A) (A) (A) (A) (A) (A) (A) (A) (A) (A) (A) (A)
                 (A) (A) (A) (A) (A) (A) (A) (A) (A) (A) (A) (A)
                 (A) (A) (A) (A) (A) (A) (A) (A) (A) (A) (A) (A)
                 (A) (A) (A) (A) (A) (A) (A) (A) (A) (A) (A) (A)
                 (A) (A) (A) (A) (A) (A) (A) (A) (A) (A) (A) (A)
                 (A) (A) (A) (A) (A) (A) (A) (A) (A) (A) (A) (A)
                 (A) (A) (A) (A) (A) (A) (A) (A) (A) (A) (A) (A)
                 (A) (A) (A) (A) (A) (A) (A) (A) (A) (A) (A) (A)
                 (A) (A) (A) (A) (A) (A) (A) (A) (A) (A) (A) (A)
                 (A) (A) (A) (A) (A) (A) (A) (A) (A) (A) (A) (A)
                 (A) (A) (A) (A) (A) (A) (A) (A) (A) (A) (A) (A)
                 (A) (A) (A) (A) (A) (A) (A) (A) (A) (A) (A) (A)
                 (A) (A) (A) (A) (A) (A) (A) (A) (A) (A) (A) (A)
                 (A) (A) (A) (A) (A) (A) (A) (A) (A) (A) (A) (A)
                 (A) (A) (A) (A) (A) (A) (A) (A) (A) (A) (A) (A)
                 (A) (A) (A) (A) (A) (A) (A) (A) (A) (A) (A) (A)
                 (A) (A) (A) (A) (A) (A) (A) (A) (A) (A) (A) (A)
                 (A) (A) (A) (A) (A) (A) (A) (A) (A) (A) (A) (A)
                 (A) (A) (A) (A) (A) (A) (A) (A) (A) (A) (A) (A)
                 (A) (A) (A)
 The electronic state is 1-A.
 Alpha  occ. eigenvalues --  -19.24457 -19.23965 -19.23832 -19.23691 -19.21675
 Alpha  occ. eigenvalues --  -19.20533 -14.50465 -14.47489 -10.41899 -10.35947
 Alpha  occ. eigenvalues --  -10.33362 -10.29744 -10.29240 -10.28456 -10.28182
 Alpha  occ. eigenvalues --  -10.26934 -10.25936  -1.13290  -1.10786  -1.09674
 Alpha  occ. eigenvalues --   -1.07808  -1.05971  -1.03862  -1.03264  -0.98013
 Alpha  occ. eigenvalues --   -0.86775  -0.79638  -0.78428  -0.73323  -0.71146
 Alpha  occ. eigenvalues --   -0.69661  -0.64694  -0.62617  -0.61574  -0.59493
 Alpha  occ. eigenvalues --   -0.56312  -0.55647  -0.54219  -0.52343  -0.51464
 Alpha  occ. eigenvalues --   -0.51133  -0.50026  -0.49053  -0.48380  -0.46853
 Alpha  occ. eigenvalues --   -0.45481  -0.44491  -0.44176  -0.42750  -0.42549
 Alpha  occ. eigenvalues --   -0.41413  -0.40409  -0.39946  -0.36001  -0.34292
 Alpha  occ. eigenvalues --   -0.34088  -0.33746  -0.32734  -0.31942  -0.30845
 Alpha  occ. eigenvalues --   -0.29512  -0.28312  -0.27002  -0.26863
 Alpha virt. eigenvalues --   -0.06384  -0.02812  -0.01974  -0.00840   0.00094
 Alpha virt. eigenvalues --    0.00924   0.01334   0.02615   0.03011   0.03343
 Alpha virt. eigenvalues --    0.04112   0.04313   0.04827   0.05096   0.05708
 Alpha virt. eigenvalues --    0.06135   0.06828   0.07255   0.07525   0.07871
 Alpha virt. eigenvalues --    0.08207   0.08350   0.08985   0.09182   0.09644
 Alpha virt. eigenvalues --    0.09954   0.10057   0.10873   0.10938   0.11348
 Alpha virt. eigenvalues --    0.12010   0.12100   0.12221   0.12632   0.12795
 Alpha virt. eigenvalues --    0.13200   0.13461   0.13874   0.14131   0.14441
 Alpha virt. eigenvalues --    0.15299   0.15623   0.15817   0.16137   0.16433
 Alpha virt. eigenvalues --    0.16824   0.17155   0.17545   0.18041   0.18425
 Alpha virt. eigenvalues --    0.18529   0.18964   0.19754   0.20317   0.20631
 Alpha virt. eigenvalues --    0.20801   0.20989   0.21750   0.21776   0.22481
 Alpha virt. eigenvalues --    0.22803   0.23116   0.23484   0.23901   0.24414
 Alpha virt. eigenvalues --    0.24572   0.24749   0.25439   0.25758   0.25976
 Alpha virt. eigenvalues --    0.26257   0.26336   0.26731   0.27168   0.27467
 Alpha virt. eigenvalues --    0.27719   0.28067   0.28610   0.28652   0.28943
 Alpha virt. eigenvalues --    0.29333   0.29692   0.30158   0.30633   0.30673
 Alpha virt. eigenvalues --    0.31188   0.31368   0.31475   0.31728   0.32764
 Alpha virt. eigenvalues --    0.33347   0.33758   0.34025   0.34442   0.34803
 Alpha virt. eigenvalues --    0.35260   0.35680   0.36336   0.36689   0.37224
 Alpha virt. eigenvalues --    0.37734   0.38247   0.38672   0.39073   0.39173
 Alpha virt. eigenvalues --    0.39926   0.40634   0.40738   0.41263   0.41618
 Alpha virt. eigenvalues --    0.41749   0.42476   0.43343   0.43627   0.44302
 Alpha virt. eigenvalues --    0.44668   0.44936   0.45129   0.45669   0.46382
 Alpha virt. eigenvalues --    0.46574   0.47350   0.48198   0.48750   0.49075
 Alpha virt. eigenvalues --    0.49751   0.50026   0.51091   0.51773   0.51876
 Alpha virt. eigenvalues --    0.52640   0.53650   0.53923   0.54077   0.54605
 Alpha virt. eigenvalues --    0.55228   0.56457   0.56665   0.57013   0.57181
 Alpha virt. eigenvalues --    0.57733   0.58027   0.58564   0.59209   0.59819
 Alpha virt. eigenvalues --    0.60277   0.60635   0.61740   0.61941   0.62727
 Alpha virt. eigenvalues --    0.63508   0.63591   0.64236   0.64275   0.64873
 Alpha virt. eigenvalues --    0.65179   0.65567   0.66446   0.66683   0.66831
 Alpha virt. eigenvalues --    0.68092   0.68288   0.68679   0.69282   0.69570
 Alpha virt. eigenvalues --    0.70275   0.70919   0.71175   0.71631   0.71908
 Alpha virt. eigenvalues --    0.72907   0.73166   0.73692   0.74436   0.74678
 Alpha virt. eigenvalues --    0.75574   0.76207   0.77234   0.77258   0.77885
 Alpha virt. eigenvalues --    0.78415   0.78913   0.79420   0.80304   0.80834
 Alpha virt. eigenvalues --    0.82420   0.83247   0.83462   0.83776   0.83921
 Alpha virt. eigenvalues --    0.84692   0.85807   0.86523   0.87203   0.87648
 Alpha virt. eigenvalues --    0.87960   0.88865   0.89220   0.90153   0.90762
 Alpha virt. eigenvalues --    0.91407   0.92945   0.93424   0.94572   0.95415
 Alpha virt. eigenvalues --    0.95921   0.96672   0.97498   0.99090   0.99536
 Alpha virt. eigenvalues --    1.00576   1.00816   1.01539   1.02586   1.04561
 Alpha virt. eigenvalues --    1.05288   1.05535   1.07224   1.08212   1.08852
 Alpha virt. eigenvalues --    1.09570   1.10280   1.11510   1.11625   1.12397
 Alpha virt. eigenvalues --    1.12733   1.13124   1.14710   1.15501   1.15779
 Alpha virt. eigenvalues --    1.16302   1.18479   1.19618   1.20540   1.21458
 Alpha virt. eigenvalues --    1.22062   1.23481   1.23714   1.24283   1.25894
 Alpha virt. eigenvalues --    1.26081   1.26633   1.27265   1.28563   1.29872
 Alpha virt. eigenvalues --    1.30950   1.32114   1.34130   1.34422   1.35057
 Alpha virt. eigenvalues --    1.35688   1.36705   1.38564   1.39686   1.39920
 Alpha virt. eigenvalues --    1.40705   1.41696   1.42882   1.43579   1.44318
 Alpha virt. eigenvalues --    1.45863   1.47984   1.48130   1.49507   1.50599
 Alpha virt. eigenvalues --    1.50850   1.51553   1.52357   1.53206   1.54196
 Alpha virt. eigenvalues --    1.54549   1.56433   1.56614   1.57130   1.58727
 Alpha virt. eigenvalues --    1.59500   1.60002   1.61149   1.63333   1.63673
 Alpha virt. eigenvalues --    1.65197   1.66501   1.67454   1.68061   1.68645
 Alpha virt. eigenvalues --    1.70209   1.71437   1.72581   1.73318   1.74174
 Alpha virt. eigenvalues --    1.75777   1.76548   1.77193   1.78054   1.78506
 Alpha virt. eigenvalues --    1.79722   1.80502   1.81770   1.82742   1.83081
 Alpha virt. eigenvalues --    1.84588   1.85404   1.86160   1.87025   1.88180
 Alpha virt. eigenvalues --    1.88849   1.90817   1.91475   1.91682   1.93361
 Alpha virt. eigenvalues --    1.95952   1.96171   1.96472   1.98307   1.98634
 Alpha virt. eigenvalues --    1.99890   2.01146   2.01603   2.02403   2.04287
 Alpha virt. eigenvalues --    2.05018   2.05211   2.07137   2.07697   2.07931
 Alpha virt. eigenvalues --    2.09295   2.11133   2.11634   2.12268   2.12657
 Alpha virt. eigenvalues --    2.13734   2.14831   2.15629   2.17389   2.18130
 Alpha virt. eigenvalues --    2.20031   2.21099   2.22376   2.23091   2.24287
 Alpha virt. eigenvalues --    2.25650   2.26323   2.28689   2.28978   2.29882
 Alpha virt. eigenvalues --    2.31331   2.32369   2.34155   2.36299   2.36598
 Alpha virt. eigenvalues --    2.39063   2.40264   2.41656   2.42870   2.43670
 Alpha virt. eigenvalues --    2.43988   2.44528   2.46177   2.47589   2.47823
 Alpha virt. eigenvalues --    2.48284   2.51069   2.51858   2.52619   2.54269
 Alpha virt. eigenvalues --    2.54554   2.56102   2.57849   2.59928   2.61440
 Alpha virt. eigenvalues --    2.63870   2.65187   2.65827   2.67015   2.69551
 Alpha virt. eigenvalues --    2.72179   2.74735   2.76560   2.78192   2.79776
 Alpha virt. eigenvalues --    2.81076   2.82790   2.84553   2.86845   2.89992
 Alpha virt. eigenvalues --    2.91023   2.92465   2.94301   2.98587   2.99875
 Alpha virt. eigenvalues --    3.01451   3.11523   3.16705   3.17937   3.22169
 Alpha virt. eigenvalues --    3.26096   3.30924   3.31580   3.34563   3.34975
 Alpha virt. eigenvalues --    3.39075   3.41250   3.43255   3.43819   3.46333
 Alpha virt. eigenvalues --    3.46969   3.49243   3.50130   3.50874   3.51105
 Alpha virt. eigenvalues --    3.54337   3.55230   3.57128   3.59739   3.61354
 Alpha virt. eigenvalues --    3.63123   3.63936   3.65272   3.65583   3.68570
 Alpha virt. eigenvalues --    3.72780   3.74020   3.76335   3.76592   3.79343
 Alpha virt. eigenvalues --    3.80566   3.90205   3.93868   3.99564   4.01772
 Alpha virt. eigenvalues --    4.04212   4.07555   4.12614   4.30565   5.29721
          Condensed to atoms (all electrons):
               1          2          3          4          5          6
     1  C    8.205531  -2.587083   1.100150   0.257515   0.698720   0.102238
     2  C   -2.587083  10.086825  -4.062594  -0.572090  -1.017283   0.073176
     3  C    1.100150  -4.062594  21.254858   0.144862  -0.042882  -0.546191
     4  O    0.257515  -0.572090   0.144862   8.713761  -0.063521   0.012679
     5  H    0.698720  -1.017283  -0.042882  -0.063521   2.184775   0.008025
     6  O    0.102238   0.073176  -0.546191   0.012679   0.008025   9.509177
     7  H    0.032401   0.371481  -1.619085  -0.006688   0.084034  -0.089046
     8  C   -0.153281   1.188274  -4.717873   0.020094  -0.180210  -0.006447
     9  C   -1.583633   1.407811  -3.122279  -0.025547  -0.108104  -0.249264
    10  H   -0.663676   0.427759   0.089472  -0.030014  -0.232718   0.063804
    11  O   -0.368008   0.069174   0.047326  -0.028732   0.036070  -0.026713
    12  C    0.037597  -0.178047   0.477534   0.011920   0.004352   0.000527
    13  H    0.279134  -0.064541   0.097471   0.003016  -0.014967  -0.082576
    14  O   -0.081638   0.020410  -0.024250  -0.000525  -0.004003  -0.033226
    15  H    0.010494   0.056086  -0.018974   0.000585   0.004318   0.102019
    16  H   -0.040434  -0.024315   0.013677   0.000304  -0.001197  -0.074706
    17  H   -0.119688  -0.007285   0.024728  -0.010760   0.003500   0.007687
    18  H   -0.131184   0.189590  -0.077435   0.296448  -0.092037   0.003467
    19  H   -0.010619   0.001866  -0.064027   0.000176  -0.000445   0.037236
    20  C    0.145274  -0.514512  -1.778366   0.004544  -0.021510  -0.021790
    21  N   -0.009025   0.011094   0.210380  -0.001900   0.000935  -0.015139
    22  C   -0.010875  -0.008634  -0.611393   0.003685   0.006565  -0.003325
    23  N    0.000449  -0.061559   0.486820  -0.002439  -0.031462   0.000270
    24  C   -0.041105   0.184029  -2.305744  -0.016102   0.161546   0.074096
    25  H   -0.018709   0.125053  -0.063479  -0.006844   0.010367   0.050291
    26  H    0.001254  -0.004164  -0.000997   0.000096   0.000035  -0.000438
    27  H   -0.001792  -0.001030  -0.020466   0.000355   0.001047  -0.002987
    28  O    0.000723  -0.000288   0.025474  -0.000049  -0.000525   0.000085
    29  O    0.031356   0.058047  -0.091271  -0.003550   0.032716   0.000345
               7          8          9         10         11         12
     1  C    0.032401  -0.153281  -1.583633  -0.663676  -0.368008   0.037597
     2  C    0.371481   1.188274   1.407811   0.427759   0.069174  -0.178047
     3  C   -1.619085  -4.717873  -3.122279   0.089472   0.047326   0.477534
     4  O   -0.006688   0.020094  -0.025547  -0.030014  -0.028732   0.011920
     5  H    0.084034  -0.180210  -0.108104  -0.232718   0.036070   0.004352
     6  O   -0.089046  -0.006447  -0.249264   0.063804  -0.026713   0.000527
     7  H    2.290493   0.636193   0.048663  -0.005991   0.001800  -0.002776
     8  C    0.636193  15.142046   0.683143  -0.095733  -0.019973  -0.264862
     9  C    0.048663   0.683143   9.681988  -0.330267   0.165303  -0.386517
    10  H   -0.005991  -0.095733  -0.330267   2.362191  -0.233227  -0.032488
    11  O    0.001800  -0.019973   0.165303  -0.233227   8.663665   0.018747
    12  C   -0.002776  -0.264862  -0.386517  -0.032488   0.018747   4.958064
    13  H    0.034227   0.006028  -1.019751   0.091396  -0.054386   0.000687
    14  O   -0.000107   0.011164   0.059871   0.018561   0.004379   0.086667
    15  H   -0.002811  -0.001225  -0.128098  -0.025220   0.006689   0.130548
    16  H   -0.000023   0.016826   0.298794   0.021941   0.001061   0.085171
    17  H   -0.005571  -0.020697   0.002435   0.040220   0.291247   0.007564
    18  H   -0.009909   0.020791   0.015390   0.022538  -0.015092  -0.005097
    19  H    0.000480   0.033899   0.002842  -0.007979  -0.001032  -0.050741
    20  C   -0.094690  -3.956897  -0.067421  -0.007449  -0.001003  -0.103049
    21  N    0.005151   0.468227   0.004116   0.000099  -0.000107   0.006453
    22  C    0.002098  -0.065575   0.009286  -0.000705   0.000170  -0.014322
    23  N   -0.017718  -0.355963  -0.031317   0.001672   0.000261   0.001259
    24  C   -0.008391  -3.844859   0.016184   0.038632  -0.000257   0.024327
    25  H   -0.074637   0.401330   0.051158  -0.003218  -0.000154  -0.002077
    26  H   -0.002314   0.100900  -0.000914   0.000189  -0.000006  -0.000118
    27  H    0.001246   0.182020  -0.000865  -0.001001  -0.000007   0.000154
    28  O    0.000806   0.032881  -0.000477   0.000317  -0.000002   0.000275
    29  O    0.013496  -0.169698  -0.002653  -0.023745   0.003799   0.014994
              13         14         15         16         17         18
     1  C    0.279134  -0.081638   0.010494  -0.040434  -0.119688  -0.131184
     2  C   -0.064541   0.020410   0.056086  -0.024315  -0.007285   0.189590
     3  C    0.097471  -0.024250  -0.018974   0.013677   0.024728  -0.077435
     4  O    0.003016  -0.000525   0.000585   0.000304  -0.010760   0.296448
     5  H   -0.014967  -0.004003   0.004318  -0.001197   0.003500  -0.092037
     6  O   -0.082576  -0.033226   0.102019  -0.074706   0.007687   0.003467
     7  H    0.034227  -0.000107  -0.002811  -0.000023  -0.005571  -0.009909
     8  C    0.006028   0.011164  -0.001225   0.016826  -0.020697   0.020791
     9  C   -1.019751   0.059871  -0.128098   0.298794   0.002435   0.015390
    10  H    0.091396   0.018561  -0.025220   0.021941   0.040220   0.022538
    11  O   -0.054386   0.004379   0.006689   0.001061   0.291247  -0.015092
    12  C    0.000687   0.086667   0.130548   0.085171   0.007564  -0.005097
    13  H    2.343551   0.025325  -0.093153  -0.020661  -0.011304   0.007060
    14  O    0.025325   8.395216  -0.131636  -0.050893  -0.002380   0.000623
    15  H   -0.093153  -0.131636   1.630982  -0.312553   0.006235  -0.000292
    16  H   -0.020661  -0.050893  -0.312553   1.358973  -0.001300  -0.000503
    17  H   -0.011304  -0.002380   0.006235  -0.001300   0.714808   0.022066
    18  H    0.007060   0.000623  -0.000292  -0.000503   0.022066   0.658375
    19  H    0.000323   0.239627   0.019200  -0.038374   0.000639   0.000150
    20  C    0.016941   0.004667  -0.004687  -0.003056  -0.001250  -0.002828
    21  N   -0.000853  -0.000045   0.000162   0.000731   0.000012  -0.000309
    22  C    0.001480  -0.001539  -0.000497  -0.000841  -0.000201   0.000113
    23  N   -0.000884  -0.000989   0.000611  -0.002092  -0.000077  -0.000000
    24  C    0.010355  -0.002296  -0.012247   0.009204   0.003778  -0.002330
    25  H    0.002819  -0.000039   0.000558  -0.000381  -0.000281   0.001706
    26  H    0.000059  -0.000029  -0.000011  -0.000029   0.000005  -0.000046
    27  H   -0.000135  -0.000013  -0.000149   0.000436   0.000037  -0.000034
    28  O   -0.000064   0.000047   0.000014  -0.000000   0.000006   0.000003
    29  O    0.007030  -0.019045   0.004387  -0.004053  -0.001128  -0.000223
              19         20         21         22         23         24
     1  C   -0.010619   0.145274  -0.009025  -0.010875   0.000449  -0.041105
     2  C    0.001866  -0.514512   0.011094  -0.008634  -0.061559   0.184029
     3  C   -0.064027  -1.778366   0.210380  -0.611393   0.486820  -2.305744
     4  O    0.000176   0.004544  -0.001900   0.003685  -0.002439  -0.016102
     5  H   -0.000445  -0.021510   0.000935   0.006565  -0.031462   0.161546
     6  O    0.037236  -0.021790  -0.015139  -0.003325   0.000270   0.074096
     7  H    0.000480  -0.094690   0.005151   0.002098  -0.017718  -0.008391
     8  C    0.033899  -3.956897   0.468227  -0.065575  -0.355963  -3.844859
     9  C    0.002842  -0.067421   0.004116   0.009286  -0.031317   0.016184
    10  H   -0.007979  -0.007449   0.000099  -0.000705   0.001672   0.038632
    11  O   -0.001032  -0.001003  -0.000107   0.000170   0.000261  -0.000257
    12  C   -0.050741  -0.103049   0.006453  -0.014322   0.001259   0.024327
    13  H    0.000323   0.016941  -0.000853   0.001480  -0.000884   0.010355
    14  O    0.239627   0.004667  -0.000045  -0.001539  -0.000989  -0.002296
    15  H    0.019200  -0.004687   0.000162  -0.000497   0.000611  -0.012247
    16  H   -0.038374  -0.003056   0.000731  -0.000841  -0.002092   0.009204
    17  H    0.000639  -0.001250   0.000012  -0.000201  -0.000077   0.003778
    18  H    0.000150  -0.002828  -0.000309   0.000113  -0.000000  -0.002330
    19  H    0.624332   0.001517   0.000219   0.002360  -0.006259   0.004082
    20  C    0.001517  15.728697  -1.325567   0.137634   0.374572  -2.260891
    21  N    0.000219  -1.325567   7.835861  -0.174678  -0.060572   0.169110
    22  C    0.002360   0.137634  -0.174678   6.301683  -0.069732  -0.074566
    23  N   -0.006259   0.374572  -0.060572  -0.069732   7.746916  -0.585901
    24  C    0.004082  -2.260891   0.169110  -0.074566  -0.585901  13.949776
    25  H    0.000760  -1.133604   0.187956  -0.048357  -0.046346   0.212393
    26  H   -0.000153  -0.259883   0.481044  -0.105502   0.009377  -0.059386
    27  H   -0.000011  -0.148321   0.027091  -0.166610   0.317597  -0.169937
    28  O   -0.000227  -0.014800  -0.064964   0.078938  -0.122208   0.104056
    29  O    0.030870  -0.056319   0.002411  -0.013559  -0.162129   0.263290
              25         26         27         28         29
     1  C   -0.018709   0.001254  -0.001792   0.000723   0.031356
     2  C    0.125053  -0.004164  -0.001030  -0.000288   0.058047
     3  C   -0.063479  -0.000997  -0.020466   0.025474  -0.091271
     4  O   -0.006844   0.000096   0.000355  -0.000049  -0.003550
     5  H    0.010367   0.000035   0.001047  -0.000525   0.032716
     6  O    0.050291  -0.000438  -0.002987   0.000085   0.000345
     7  H   -0.074637  -0.002314   0.001246   0.000806   0.013496
     8  C    0.401330   0.100900   0.182020   0.032881  -0.169698
     9  C    0.051158  -0.000914  -0.000865  -0.000477  -0.002653
    10  H   -0.003218   0.000189  -0.001001   0.000317  -0.023745
    11  O   -0.000154  -0.000006  -0.000007  -0.000002   0.003799
    12  C   -0.002077  -0.000118   0.000154   0.000275   0.014994
    13  H    0.002819   0.000059  -0.000135  -0.000064   0.007030
    14  O   -0.000039  -0.000029  -0.000013   0.000047  -0.019045
    15  H    0.000558  -0.000011  -0.000149   0.000014   0.004387
    16  H   -0.000381  -0.000029   0.000436  -0.000000  -0.004053
    17  H   -0.000281   0.000005   0.000037   0.000006  -0.001128
    18  H    0.001706  -0.000046  -0.000034   0.000003  -0.000223
    19  H    0.000760  -0.000153  -0.000011  -0.000227   0.030870
    20  C   -1.133604  -0.259883  -0.148321  -0.014800  -0.056319
    21  N    0.187956   0.481044   0.027091  -0.064964   0.002411
    22  C   -0.048357  -0.105502  -0.166610   0.078938  -0.013559
    23  N   -0.046346   0.009377   0.317597  -0.122208  -0.162129
    24  C    0.212393  -0.059386  -0.169937   0.104056   0.263290
    25  H    2.042322  -0.026081  -0.003564   0.002482  -0.004770
    26  H   -0.026081   0.809702  -0.004197   0.003948   0.001497
    27  H   -0.003564  -0.004197   1.080705  -0.001865  -0.028297
    28  O    0.002482   0.003948  -0.001865   8.508631  -0.001615
    29  O   -0.004770   0.001497  -0.028297  -0.001615   8.889259
 Mulliken charges:
               1
     1  C    0.917915
     2  C    0.832749
     3  C    1.194553
     4  O   -0.701279
     5  H   -0.426139
     6  O   -0.893274
     7  H   -0.582810
     8  C    0.909480
     9  C    0.610122
    10  H   -0.485359
    11  O   -0.560993
    12  C    1.173255
    13  H   -0.563627
    14  O   -0.513903
    15  H   -0.241336
    16  H   -0.231703
    17  H    0.056954
    18  H    0.098999
    19  H    0.179291
    20  C    1.364048
    21  N   -0.757893
    22  C    0.826898
    23  N   -0.382157
    24  C    0.159152
    25  H   -0.656653
    26  H    0.056160
    27  H   -0.059409
    28  O   -0.551601
    29  O   -0.771442
 Sum of Mulliken charges =  -0.00000
 Mulliken charges with hydrogens summed into heavy atoms:
               1
     1  C    0.432556
     2  C    0.406610
     3  C    0.611743
     4  O   -0.602280
     6  O   -0.893274
     8  C    0.909480
     9  C    0.046494
    11  O   -0.504039
    12  C    0.700216
    14  O   -0.334612
    20  C    0.707396
    21  N   -0.701732
    22  C    0.826898
    23  N   -0.441565
    24  C    0.159152
    28  O   -0.551601
    29  O   -0.771442
 Electronic spatial extent (au):  <R**2>=           4185.7612
 Charge=             -0.0000 electrons
 Dipole moment (field-independent basis, Debye):
    X=             -2.1137    Y=             -4.9343    Z=              2.3749  Tot=              5.8699
 Quadrupole moment (field-independent basis, Debye-Ang):
   XX=           -103.9735   YY=           -101.4118   ZZ=            -96.0047
   XY=              1.4444   XZ=             -2.4236   YZ=             -1.0825
 Traceless Quadrupole moment (field-independent basis, Debye-Ang):
   XX=             -3.5102   YY=             -0.9485   ZZ=              4.4587
   XY=              1.4444   XZ=             -2.4236   YZ=             -1.0825
 Octapole moment (field-independent basis, Debye-Ang**2):
  XXX=             79.7549  YYY=            -23.7722  ZZZ=             -6.2773  XYY=            -21.1457
  XXY=            -57.9371  XXZ=             52.7600  XZZ=            -12.4891  YZZ=             -9.6040
  YYZ=              0.0641  XYZ=             24.7676
 Hexadecapole moment (field-independent basis, Debye-Ang**3):
 XXXX=          -4253.9335 YYYY=          -1151.5292 ZZZZ=           -465.0169 XXXY=            131.4759
 XXXZ=            -72.6330 YYYX=            -93.3120 YYYZ=             14.9955 ZZZX=             -9.4831
 ZZZY=             -5.3465 XXYY=           -721.0802 XXZZ=           -666.8569 YYZZ=           -220.8099
 XXYZ=            -39.0116 YYXZ=            -27.9733 ZZXY=              1.2115
 N-N= 1.328199562367D+03 E-N=-4.788816977289D+03  KE= 9.054107923372D+02
 Calling FoFJK, ICntrl=      2127 FMM=F ISym2X=0 I1Cent= 0 IOpClX= 0 NMat=1 NMatS=1 NMatT=0.
 ***** Axes restored to original set *****
 -------------------------------------------------------------------
 Center     Atomic                   Forces (Hartrees/Bohr)
 Number     Number              X              Y              Z
 -------------------------------------------------------------------
      1        6          -0.000691686    0.000207600    0.000586355
      2        6           0.000489859   -0.000873905    0.004314694
      3        6           0.010842485   -0.015799148    0.001653579
      4        8           0.001916273   -0.001642810   -0.001938030
      5        1           0.000793331   -0.000432422   -0.000952815
      6        8           0.010313912    0.009643445    0.003344485
      7        1           0.007876372   -0.003140181    0.001788304
      8        6          -0.026491863   -0.036064529    0.033202433
      9        6          -0.003083457   -0.000670166    0.001751701
     10        1           0.000096369   -0.000025493   -0.000058727
     11        8           0.001655485   -0.000257639   -0.000731797
     12        6           0.000460503   -0.000834503    0.000016672
     13        1           0.000862188   -0.000386714    0.000013245
     14        8          -0.000142976    0.001062569   -0.000169801
     15        1           0.000136193    0.000294742   -0.000095049
     16        1          -0.000105520    0.000058020    0.000065907
     17        1          -0.000484790    0.000078911    0.000053079
     18        1           0.000042756   -0.000183876   -0.000216112
     19        1           0.000114310   -0.000795296    0.000102897
     20        6           0.032127510    0.006744611   -0.008910847
     21        7          -0.052296731    0.005650653   -0.002042778
     22        6           0.007065754   -0.001849555    0.001929503
     23        7          -0.019641492   -0.003443777    0.003955113
     24        6           0.000587922    0.016547906   -0.014364295
     25        1          -0.012149360   -0.002833813    0.003433666
     26        1           0.036867570    0.029653775   -0.027745971
     27        1          -0.005485395   -0.000499985    0.000653633
     28        8           0.008419177   -0.015323273    0.012458701
     29        8          -0.000094699    0.015114854   -0.012097745
 -------------------------------------------------------------------
 Cartesian Forces:  Max     0.052296731 RMS     0.012098524

 GradGradGradGradGradGradGradGradGradGradGradGradGradGradGradGradGradGrad
 Berny optimization.
 FormGI is forming the generalized inverse of G from B-inverse, IUseBI=4.
 Internal  Forces:  Max     0.054676727 RMS     0.008969131
 Search for a local minimum.
 Step number   1 out of a maximum of  173
 All quantities printed in internal units (Hartrees-Bohrs-Radians)
 Mixed Optimization -- RFO/linear search
 Second derivative matrix not updated -- first step.
 ITU=  0
     Eigenvalues ---    0.00343   0.00562   0.00917   0.01275   0.01345
     Eigenvalues ---    0.01459   0.01547   0.01598   0.01610   0.01734
     Eigenvalues ---    0.01854   0.01957   0.02061   0.02165   0.02339
     Eigenvalues ---    0.02395   0.03012   0.03643   0.04300   0.04852
     Eigenvalues ---    0.04934   0.05109   0.05122   0.05503   0.06062
     Eigenvalues ---    0.06122   0.06181   0.06603   0.08005   0.08474
     Eigenvalues ---    0.10582   0.11662   0.13539   0.14026   0.16000
     Eigenvalues ---    0.16000   0.16000   0.16000   0.16000   0.16000
     Eigenvalues ---    0.16227   0.17618   0.19371   0.19761   0.22090
     Eigenvalues ---    0.22358   0.23426   0.24579   0.24949   0.24998
     Eigenvalues ---    0.25000   0.26624   0.27451   0.28796   0.30815
     Eigenvalues ---    0.32935   0.33198   0.33617   0.33736   0.33951
     Eigenvalues ---    0.34373   0.34933   0.35342   0.37074   0.37445
     Eigenvalues ---    0.39066   0.42722   0.42824   0.42911   0.44461
     Eigenvalues ---    0.44607   0.45403   0.46139   0.48116   0.50075
     Eigenvalues ---    0.53804   0.54111   0.54531   0.54679   0.94324
     Eigenvalues ---    0.96993
 RFO step:  Lambda=-3.40458978D-02 EMin= 3.43153958D-03
 Linear search not attempted -- first point.
 Maximum step size (   0.300) exceeded in Quadratic search.
    -- Step size scaled by   0.977
 Iteration  1 RMS(Cart)=  0.06708694 RMS(Int)=  0.00147705
 Iteration  2 RMS(Cart)=  0.00181945 RMS(Int)=  0.00016877
 Iteration  3 RMS(Cart)=  0.00000141 RMS(Int)=  0.00016877
 Iteration  4 RMS(Cart)=  0.00000000 RMS(Int)=  0.00016877
 Variable       Old X    -DE/DX   Delta X   Delta X   Delta X     New X
                                 (Linear)    (Quad)   (Total)
    R1        2.91666   0.00118   0.00000   0.00153   0.00151   2.91817
    R2        2.89803   0.00035   0.00000  -0.00119  -0.00125   2.89678
    R3        2.06706   0.00000   0.00000   0.00001   0.00001   2.06706
    R4        2.65907   0.00128   0.00000   0.00260   0.00260   2.66168
    R5        2.90404   0.00193   0.00000   0.00758   0.00763   2.91167
    R6        2.67887   0.00200   0.00000   0.00422   0.00422   2.68310
    R7        2.07413   0.00036   0.00000   0.00095   0.00095   2.07508
    R8        2.65164   0.01175   0.00000   0.02562   0.02567   2.67731
    R9        2.07981   0.00328   0.00000   0.00864   0.00864   2.08846
   R10        2.75181   0.03471   0.00000   0.08301   0.08301   2.83482
   R11        1.82119   0.00024   0.00000   0.00041   0.00041   1.82159
   R12        2.70136  -0.00265   0.00000  -0.00587  -0.00590   2.69546
   R13        2.59734  -0.01650   0.00000  -0.02824  -0.02785   2.56950
   R14        2.62346   0.05398   0.00000   0.10822   0.10819   2.73165
   R15        2.86367  -0.00011   0.00000  -0.00031  -0.00031   2.86336
   R16        2.09165   0.00074   0.00000   0.00199   0.00199   2.09364
   R17        1.82251  -0.00013   0.00000  -0.00022  -0.00022   1.82229
   R18        2.65735   0.00021   0.00000   0.00042   0.00042   2.65778
   R19        2.07778   0.00018   0.00000   0.00048   0.00048   2.07826
   R20        2.08705   0.00010   0.00000   0.00026   0.00026   2.08731
   R21        1.82910   0.00017   0.00000   0.00029   0.00029   1.82940
   R22        2.54939   0.01135   0.00000   0.01656   0.01697   2.56636
   R23        2.05784   0.00069   0.00000   0.00175   0.00175   2.05958
   R24        2.74195  -0.03944   0.00000  -0.09881  -0.09875   2.64320
   R25        2.05123  -0.05468   0.00000  -0.13785  -0.13785   1.91338
   R26        2.65341  -0.01818   0.00000  -0.03845  -0.03884   2.61457
   R27        2.29868  -0.01529   0.00000  -0.01488  -0.01488   2.28380
   R28        2.58944   0.01742   0.00000   0.03379   0.03337   2.62281
   R29        1.91511   0.00026   0.00000   0.00053   0.00053   1.91563
   R30        2.31002   0.01313   0.00000   0.01312   0.01312   2.32314
    A1        1.81408   0.00165   0.00000   0.00188   0.00184   1.81592
    A2        1.91346  -0.00007   0.00000   0.00124   0.00123   1.91470
    A3        1.98011  -0.00088   0.00000  -0.00132  -0.00129   1.97882
    A4        1.91173  -0.00037   0.00000   0.00103   0.00104   1.91277
    A5        1.98431  -0.00057   0.00000  -0.00140  -0.00139   1.98292
    A6        1.85992   0.00024   0.00000  -0.00122  -0.00122   1.85869
    A7        1.81834   0.00025   0.00000   0.00344   0.00351   1.82185
    A8        1.95266  -0.00135   0.00000  -0.00751  -0.00759   1.94507
    A9        1.95036  -0.00002   0.00000  -0.00330  -0.00337   1.94699
   A10        1.85485   0.00216   0.00000   0.01547   0.01548   1.87032
   A11        1.94757  -0.00025   0.00000   0.00094   0.00094   1.94851
   A12        1.93490  -0.00063   0.00000  -0.00738  -0.00744   1.92746
   A13        1.89414  -0.00259   0.00000  -0.01155  -0.01166   1.88249
   A14        1.87394  -0.00324   0.00000  -0.02835  -0.02872   1.84521
   A15        2.01903   0.00145   0.00000   0.00868   0.00872   2.02775
   A16        1.93243  -0.00062   0.00000  -0.01369  -0.01435   1.91808
   A17        1.89893   0.00137   0.00000   0.00746   0.00746   1.90639
   A18        1.84481   0.00365   0.00000   0.03686   0.03701   1.88182
   A19        1.87309   0.00015   0.00000   0.00075   0.00075   1.87384
   A20        1.93009   0.00002   0.00000   0.00422   0.00427   1.93436
   A21        2.10299   0.00337   0.00000   0.00595   0.00575   2.10874
   A22        2.06633   0.01508   0.00000   0.04629   0.04611   2.11244
   A23        2.11208  -0.01841   0.00000  -0.05177  -0.05142   2.06065
   A24        1.84996   0.00067   0.00000   0.00030   0.00026   1.85022
   A25        2.00650   0.00021   0.00000  -0.00033  -0.00034   2.00616
   A26        1.90963  -0.00059   0.00000  -0.00182  -0.00180   1.90783
   A27        1.88241  -0.00090   0.00000  -0.00223  -0.00219   1.88021
   A28        1.90878   0.00047   0.00000   0.00438   0.00438   1.91316
   A29        1.90416   0.00017   0.00000   0.00004   0.00003   1.90420
   A30        1.88126  -0.00083   0.00000  -0.00418  -0.00418   1.87708
   A31        1.97501  -0.00058   0.00000  -0.00242  -0.00242   1.97260
   A32        1.89367   0.00062   0.00000   0.00390   0.00390   1.89758
   A33        1.88841  -0.00005   0.00000  -0.00103  -0.00104   1.88737
   A34        1.87461   0.00001   0.00000   0.00028   0.00029   1.87489
   A35        1.94508   0.00012   0.00000  -0.00073  -0.00074   1.94434
   A36        1.88448  -0.00008   0.00000   0.00028   0.00028   1.88476
   A37        1.90133  -0.00122   0.00000  -0.00613  -0.00613   1.89521
   A38        2.15186   0.00013   0.00000  -0.00225  -0.00148   2.15039
   A39        2.00246   0.01323   0.00000   0.06805   0.06766   2.07011
   A40        2.12885  -0.01336   0.00000  -0.06580  -0.06619   2.06266
   A41        2.08926   0.01886   0.00000   0.05573   0.05616   2.14542
   A42        2.12305  -0.00497   0.00000  -0.00545  -0.00567   2.11739
   A43        2.07085  -0.01388   0.00000  -0.05028  -0.05050   2.02035
   A44        1.97190   0.00208   0.00000  -0.00686  -0.00722   1.96469
   A45        2.21295  -0.01836   0.00000  -0.05614  -0.05597   2.15698
   A46        2.09833   0.01628   0.00000   0.06301   0.06319   2.16152
   A47        2.23865   0.00002   0.00000   0.00084   0.00010   2.23874
   A48        2.03208  -0.00532   0.00000  -0.02713  -0.02675   2.00532
   A49        2.01243   0.00530   0.00000   0.02629   0.02666   2.03909
   A50        2.00217  -0.00267   0.00000   0.00438   0.00392   2.00609
   A51        2.13930   0.01777   0.00000   0.05434   0.05457   2.19387
   A52        2.14167  -0.01510   0.00000  -0.05869  -0.05847   2.08320
    D1        0.28720   0.00093   0.00000   0.00928   0.00927   0.29648
    D2       -1.70932  -0.00111   0.00000  -0.00730  -0.00729  -1.71661
    D3        2.39247   0.00078   0.00000   0.01077   0.01076   2.40323
    D4       -1.75520   0.00053   0.00000   0.00652   0.00652  -1.74868
    D5        2.53146  -0.00152   0.00000  -0.01006  -0.01004   2.52142
    D6        0.35007   0.00037   0.00000   0.00801   0.00801   0.35808
    D7        2.45115   0.00084   0.00000   0.00806   0.00805   2.45920
    D8        0.45462  -0.00120   0.00000  -0.00852  -0.00851   0.44612
    D9       -1.72677   0.00069   0.00000   0.00955   0.00954  -1.71723
   D10       -0.44385  -0.00093   0.00000  -0.00632  -0.00628  -0.45013
   D11       -2.52130  -0.00040   0.00000  -0.00354  -0.00352  -2.52483
   D12        1.61257  -0.00031   0.00000  -0.00192  -0.00191   1.61067
   D13        1.59976  -0.00032   0.00000  -0.00341  -0.00340   1.59636
   D14       -0.47770   0.00022   0.00000  -0.00064  -0.00064  -0.47834
   D15       -2.62701   0.00030   0.00000   0.00098   0.00098  -2.62603
   D16       -2.60506  -0.00064   0.00000  -0.00515  -0.00513  -2.61019
   D17        1.60067  -0.00011   0.00000  -0.00237  -0.00237   1.59830
   D18       -0.54864  -0.00002   0.00000  -0.00075  -0.00075  -0.54939
   D19       -1.10213  -0.00044   0.00000   0.00139   0.00139  -1.10074
   D20        0.96603   0.00066   0.00000   0.00186   0.00185   0.96788
   D21        3.07373   0.00002   0.00000   0.00147   0.00147   3.07520
   D22       -0.03660  -0.00135   0.00000  -0.01025  -0.01012  -0.04672
   D23       -2.12613   0.00265   0.00000   0.02841   0.02817  -2.09797
   D24        2.10261  -0.00056   0.00000  -0.00339  -0.00337   2.09924
   D25        2.02825  -0.00181   0.00000  -0.01027  -0.01010   2.01815
   D26       -0.06128   0.00219   0.00000   0.02839   0.02819  -0.03309
   D27       -2.11573  -0.00102   0.00000  -0.00341  -0.00335  -2.11908
   D28       -2.14374  -0.00135   0.00000  -0.00888  -0.00872  -2.15246
   D29        2.04991   0.00265   0.00000   0.02977   0.02956   2.07948
   D30       -0.00453  -0.00056   0.00000  -0.00203  -0.00197  -0.00650
   D31       -1.16197   0.00071   0.00000   0.00671   0.00668  -1.15529
   D32       -3.13590  -0.00013   0.00000  -0.00237  -0.00239  -3.13830
   D33        1.02796  -0.00081   0.00000  -0.00894  -0.00890   1.01906
   D34       -0.25741   0.00121   0.00000   0.00677   0.00666  -0.25075
   D35        1.79518  -0.00464   0.00000  -0.04249  -0.04234   1.75283
   D36       -2.46785   0.00022   0.00000  -0.00131  -0.00135  -2.46920
   D37        2.18356  -0.00010   0.00000  -0.01142  -0.01150   2.17206
   D38       -1.02162  -0.00022   0.00000  -0.00502  -0.00487  -1.02648
   D39       -1.96295  -0.00140   0.00000  -0.01462  -0.01475  -1.97771
   D40        1.11505  -0.00153   0.00000  -0.00822  -0.00812   1.10693
   D41        0.11297   0.00055   0.00000  -0.00680  -0.00694   0.10603
   D42       -3.09221   0.00043   0.00000  -0.00040  -0.00031  -3.09252
   D43        0.44618  -0.00058   0.00000  -0.00000   0.00003   0.44621
   D44        2.60365  -0.00045   0.00000  -0.00147  -0.00144   2.60220
   D45       -1.61081  -0.00050   0.00000  -0.00026  -0.00023  -1.61104
   D46        3.10952   0.00077   0.00000   0.00780   0.00758   3.11710
   D47       -0.03844   0.00060   0.00000   0.00694   0.00676  -0.03168
   D48        0.03320  -0.00035   0.00000  -0.00244  -0.00239   0.03081
   D49       -3.11476  -0.00053   0.00000  -0.00330  -0.00321  -3.11797
   D50       -3.10847  -0.00034   0.00000  -0.00483  -0.00482  -3.11329
   D51        0.04369  -0.00047   0.00000  -0.00821  -0.00827   0.03542
   D52       -0.03081   0.00037   0.00000   0.00382   0.00369  -0.02712
   D53        3.12135   0.00024   0.00000   0.00044   0.00024   3.12159
   D54        0.86189   0.00042   0.00000   0.00262   0.00261   0.86450
   D55       -1.21669   0.00035   0.00000   0.00113   0.00112  -1.21557
   D56        3.02612   0.00014   0.00000  -0.00074  -0.00075   3.02537
   D57       -1.19739   0.00007   0.00000   0.00401   0.00402  -1.19337
   D58        3.00722   0.00000   0.00000   0.00252   0.00253   3.00975
   D59        0.96685  -0.00021   0.00000   0.00064   0.00066   0.96750
   D60        3.01411  -0.00007   0.00000   0.00002   0.00002   3.01413
   D61        0.93553  -0.00014   0.00000  -0.00148  -0.00147   0.93406
   D62       -1.10484  -0.00035   0.00000  -0.00335  -0.00334  -1.10818
   D63        0.64492  -0.00052   0.00000  -0.00724  -0.00724   0.63769
   D64        2.73446  -0.00010   0.00000  -0.00365  -0.00365   2.73081
   D65       -1.48798  -0.00012   0.00000  -0.00356  -0.00356  -1.49154
   D66       -0.01358  -0.00024   0.00000  -0.00199  -0.00196  -0.01555
   D67        3.13542  -0.00020   0.00000  -0.00099  -0.00092   3.13450
   D68        3.13483  -0.00015   0.00000  -0.00156  -0.00163   3.13320
   D69        0.00064  -0.00011   0.00000  -0.00056  -0.00058   0.00006
   D70       -0.00500  -0.00006   0.00000   0.00234   0.00238  -0.00262
   D71        3.14029  -0.00012   0.00000  -0.00016  -0.00006   3.14024
   D72        3.12941  -0.00006   0.00000   0.00155   0.00155   3.13095
   D73       -0.00849  -0.00012   0.00000  -0.00095  -0.00089  -0.00938
   D74        0.00517  -0.00005   0.00000  -0.00093  -0.00094   0.00424
   D75       -3.12830  -0.00000   0.00000  -0.00129  -0.00135  -3.12965
   D76       -3.13985  -0.00007   0.00000   0.00112   0.00123  -3.13862
   D77        0.00987  -0.00003   0.00000   0.00076   0.00081   0.01068
   D78        0.01238  -0.00007   0.00000  -0.00185  -0.00182   0.01056
   D79       -3.13979   0.00028   0.00000   0.00230   0.00213  -3.13766
   D80       -3.13726  -0.00016   0.00000  -0.00170  -0.00161  -3.13887
   D81       -0.00624   0.00019   0.00000   0.00245   0.00234  -0.00391
         Item               Value     Threshold  Converged?
 Maximum Force            0.054677     0.000450     NO 
 RMS     Force            0.008969     0.000300     NO 
 Maximum Displacement     0.337365     0.001800     NO 
 RMS     Displacement     0.067386     0.001200     NO 
 Predicted change in Energy=-1.865131D-02
 GradGradGradGradGradGradGradGradGradGradGradGradGradGradGradGradGradGrad

                          Input orientation:                          
 ---------------------------------------------------------------------
 Center     Atomic      Atomic             Coordinates (Angstroms)
 Number     Number       Type             X           Y           Z
 ---------------------------------------------------------------------
      1          6           0        2.399281   -0.240517   -0.593655
      2          6           0        1.246074   -1.267468   -0.604943
      3          6           0        0.380918   -0.884881    0.611267
      4          8           0        1.722996   -2.586033   -0.381654
      5          1           0        0.673031   -1.220318   -1.540459
      6          8           0        1.015496    0.194994    1.273407
      7          1           0        0.373728   -1.775414    1.265702
      8          6           0       -1.044112   -0.517335    0.320471
      9          6           0        2.359677    0.347776    0.821318
     10          1           0        2.198060    0.548042   -1.324530
     11          8           0        3.646426   -0.796807   -0.938674
     12          6           0        2.712617    1.818527    0.912005
     13          1           0        3.040634   -0.229620    1.477346
     14          8           0        2.007547    2.611307   -0.011270
     15          1           0        3.784648    1.938180    0.697713
     16          1           0        2.532858    2.151950    1.949579
     17          1           0        3.867360   -1.453601   -0.268068
     18          1           0        2.267300   -2.827294   -1.139754
     19          1           0        1.110992    2.257239   -0.100682
     20          6           0       -2.069867   -1.164788    0.934853
     21          7           0       -3.375633   -0.853506    0.728930
     22          6           0       -3.786293    0.176958   -0.123077
     23          7           0       -2.721507    0.830898   -0.717098
     24          6           0       -1.365097    0.578945   -0.565358
     25          1           0       -1.836772   -1.978134    1.621864
     26          1           0       -4.117378   -1.358945    1.197479
     27          1           0       -2.979155    1.592606   -1.334369
     28          8           0       -4.944447    0.463259   -0.316127
     29          8           0       -0.551719    1.270723   -1.174590
 ---------------------------------------------------------------------
                    Distance matrix (angstroms):
                    1          2          3          4          5
     1  C    0.000000
     2  C    1.544229   0.000000
     3  C    2.437382   1.540790   0.000000
     4  O    2.450256   1.419833   2.383482   0.000000
     5  H    2.199179   1.098085   2.197219   2.076158   0.000000
     6  O    2.364413   2.391685   1.416774   3.312687   3.168316
     7  H    3.148966   2.125631   1.105164   2.278466   2.876152
     8  C    3.573403   2.581480   1.500121   3.525532   2.627893
     9  C    1.532907   2.425561   2.340737   3.234152   3.298739
    10  H    1.093843   2.172593   3.017048   3.307132   2.345088
    11  O    1.408498   2.468722   3.615746   2.685365   3.063101
    12  C    2.569991   3.738348   3.582691   4.696068   4.405572
    13  H    2.168064   2.938283   2.872899   3.277916   3.961587
    14  O    2.936925   3.997147   3.905996   5.218285   4.335978
    15  H    2.886796   4.291556   4.422954   5.087627   4.966657
    16  H    3.494250   4.458006   3.955283   5.342191   5.197260
    17  H    1.932055   2.649391   3.640323   2.427674   3.446322
    18  H    2.647086   1.939584   3.224513   0.963945   2.298833
    19  H    2.853330   3.563157   3.303452   4.889865   3.789217
    20  C    4.812889   3.657455   2.487851   4.258983   3.695097
    21  N    5.956058   4.828121   3.758524   5.498278   4.655787
    22  C    6.217480   5.257688   4.362615   6.168731   4.883331
    23  N    5.233129   4.489701   3.785960   5.616186   4.050716
    24  C    3.852644   3.198284   2.564333   4.425738   2.888276
    25  H    5.086451   3.868805   2.671078   4.129839   4.107758
    26  H    6.850247   5.658949   4.561036   6.173278   5.519378
    27  H    5.730320   5.154090   4.605815   6.362304   4.614485
    28  O    7.382592   6.434390   5.571091   7.331935   5.990782
    29  O    3.365967   3.162115   2.950547   4.547267   2.799849
                    6          7          8          9         10
     6  O    0.000000
     7  H    2.072302   0.000000
     8  C    2.378547   2.118135   0.000000
[...]
 .03170381,0.02593450,0.70548200,0.00001429,-0.00051427,0.00026207,-0.0
 0041716,0.00022360,0.00073040,-0.00212973,-0.00423291,0.00413811,0.000
 06236,0.00019590,-0.00031925,-0.00012184,-0.00013824,-0.00026657,0.000
 58072,0.00129784,-0.00032325,0.00170104,-0.00032126,0.00026062,0.03319
 409,0.00279855,0.00549311,-0.00035952,-0.00005708,0.00036317,0.0002207
 6,0.00008441,-0.00017741,0.00009750,0.00027308,-0.00014982,0.00038638,
 -0.00038708,0.00032253,0.00003711,0.00001402,-0.00005814,-0.00062944,0
 .00018634,-0.00044319,-0.00005254,0.00008287,-0.00003110,-0.00001938,0
 .00002690,-0.00007456,-0.00010797,-0.00000544,-0.00000460,-0.00002002,
 -0.00005456,-0.00005513,0.00049337,0.00012322,0.00050734,-0.01106616,-
 0.00082191,0.00067589,-0.02080557,-0.03015543,0.03196684,-0.06656593,-
 0.16007261,0.08237140,-0.01598877,0.54132675,0.00003278,0.00022716,-0.
 00009665,-0.00007289,0.00016168,-0.00086364,0.00172083,0.00505393,-0.0
 0114723,-0.00011920,-0.00003215,0.00037056,-0.00003794,0.00012583,0.00
 013852,0.00015299,-0.00101589,0.00079694,-0.00137295,0.00000576,-0.000
 31335,-0.02690099,0.00569987,0.00574054,0.00030361,0.00008218,-0.00022
 246,-0.00018282,-0.00002615,0.00009030,-0.00007392,-0.00013399,0.00015
 950,-0.00036024,0.00040411,-0.00036155,-0.00000854,-0.00003226,0.00003
 187,0.00073042,0.00003692,0.00059535,0.00004893,-0.00008200,0.00005155
 ,0.00006378,-0.00002629,0.00010525,0.00007410,0.00000398,-0.00000787,-
 0.00006237,0.00005818,0.00002378,-0.00080687,-0.00064890,-0.00082680,0
 .00926438,0.00074471,-0.00030358,0.01650399,0.03193416,-0.01696981,0.0
 5360567,0.08195429,-0.12432141,0.01093690,-0.38309231,0.37326242,-0.00
 178262,0.00241928,-0.00027810,-0.00242915,0.00148719,-0.00411039,-0.00
 051508,0.03088654,-0.02052986,0.00089610,-0.00233434,0.00157227,-0.000
 01847,0.00197241,0.00150799,0.00065986,-0.00495748,0.00329354,-0.00604
 660,0.00063201,-0.00034219,-0.12220061,0.03145874,-0.02501657,-0.00130
 971,-0.00004427,-0.00131883,-0.00124844,-0.00060179,0.00068059,0.00091
 234,-0.00146422,0.00030671,-0.00200383,0.00163009,-0.00233512,0.000529
 51,-0.00033250,0.00035655,0.00389391,0.00018600,0.00234290,0.00044866,
 -0.00032415,0.00023250,0.00013675,-0.00009630,0.00062449,0.00012218,0.
 00012146,0.00002875,-0.00014636,0.00048982,0.00038531,-0.00636291,-0.0
 0336389,-0.00269480,0.03914640,-0.02701577,0.02154280,-0.01787448,0.02
 245176,-0.01836665,-0.04909795,-0.04756982,0.03829212,-0.22161833,0.05
 773659,-0.04580928,0.71859757,-0.00049600,0.00212340,-0.00094539,-0.00
 132425,-0.00027262,-0.00191098,0.01466805,0.00016190,0.00574970,-0.000
 48644,-0.00122859,0.00105732,0.00083783,0.00065613,0.00012938,-0.00353
 767,-0.00571932,0.00160480,-0.00054250,0.00087198,0.00072928,0.0397957
 2,-0.15921248,0.06114484,0.00050173,0.00001653,-0.00120934,-0.00120532
 ,-0.00033257,0.00065296,-0.00050269,-0.00131695,0.00072621,-0.00211374
 ,0.00213004,-0.00222487,-0.00002995,-0.00020063,0.00024762,0.00396757,
 -0.00050489,0.00239876,0.00035469,-0.00043484,0.00026682,0.00015286,-0
 .00018179,0.00050773,0.00047766,0.00007355,0.00007206,0.00013752,0.000
 36879,0.00012978,-0.00533132,-0.00229983,-0.00264248,-0.04196213,-0.01
 620751,0.01607127,0.02782333,-0.01912860,0.01190217,-0.00378099,0.0339
 2329,-0.03919454,0.02785790,-0.12479847,0.05743027,0.13964034,0.578067
 77,0.00062800,-0.00170576,0.00068561,0.00195436,-0.00035539,0.00346665
 ,-0.01304879,0.00022294,-0.00255507,-0.00010453,0.00122130,-0.00150975
 ,0.00007954,-0.00137051,-0.00070459,0.00423917,0.00585219,-0.00197654,
 0.00086312,0.00051928,0.00071522,-0.03062457,0.06075784,-0.13218297,-0
 .00164068,-0.00021317,0.00159271,0.00089299,0.00036275,-0.00057734,0.0
 0027844,0.00080093,-0.00079834,0.00169022,-0.00175978,0.00174502,0.000
 31478,0.00007963,-0.00024093,-0.00366531,0.00008473,-0.00257789,-0.000
 26286,0.00045335,-0.00029720,-0.00023002,0.00006370,-0.00048232,-0.000
 30607,0.00004380,0.00003561,0.00013825,-0.00030442,-0.00008804,0.00464
 361,0.00206389,0.00358014,0.03366776,0.01678553,-0.01066016,-0.0219491
 6,0.01114690,-0.01368603,0.00343375,-0.03797327,0.01677455,-0.02284638
 ,0.05790344,-0.09935322,-0.11680154,-0.30132021,0.44855872,-0.00003317
 ,-0.00005382,0.00001893,-0.00023488,-0.00003056,-0.00005724,0.00130092
 ,-0.00229827,0.00138251,0.00004546,0.00005994,-0.00009168,0.00006795,-
 0.00002388,-0.00012353,0.00019034,0.00083637,0.00002740,-0.00042456,0.
 00080463,-0.00057583,0.00859093,-0.01668446,0.01369151,-0.00023534,-0.
 00005913,0.00008446,0.00001790,0.00000549,-0.00001382,0.00006160,0.000
 02456,-0.00003260,0.00003426,-0.00006236,0.00003479,0.00001824,-0.0000
 1509,-0.00000449,-0.00005566,0.00006912,-0.00005778,-0.00000039,0.0000
 1243,-0.00001038,-0.00000651,0.00000412,-0.00000349,-0.00003684,-0.000
 00360,0.00000559,0.00000137,0.00002195,-0.00000886,0.00008004,-0.00001
 354,0.00007377,-0.06190985,0.02566901,-0.02141546,-0.00661962,0.029055
 86,-0.02367800,-0.00437658,-0.00307912,0.00251698,0.00100909,0.0001930
 7,-0.00014245,-0.00491131,-0.00052070,0.00057221,0.06769324,0.00000881
 ,-0.00020187,-0.00015967,0.00054474,0.00061433,0.00021970,0.00191487,-
 0.00195252,-0.00302940,0.00001267,-0.00018171,-0.00003835,0.00004171,-
 0.00003635,-0.00004579,-0.00063295,-0.00019595,-0.00005036,-0.00071679
 ,0.00052548,-0.00024720,0.00375499,-0.00442442,0.01088881,-0.00010578,
 -0.00006586,-0.00017161,0.00002635,0.00003369,-0.00000903,0.00015227,0
 .00002616,-0.00003074,-0.00001760,-0.00002178,0.00005751,-0.00003266,-
 0.00000227,0.00001334,-0.00002711,0.00003456,-0.00004545,0.00000177,-0
 .00000783,-0.00001231,-0.00000796,0.00000008,-0.00001254,-0.00002229,0
 .00000913,-0.00000908,0.00004213,0.00002121,0.00001951,0.00003888,-0.0
 0001266,0.00006528,0.03082424,-0.22073524,0.14843492,0.00027877,-0.002
 44351,0.00430703,0.00066031,0.00356248,0.00023009,-0.00034147,-0.00004
 106,-0.00049716,-0.00249101,0.00441630,0.00556603,-0.03436506,0.223946
 72,0.00002626,-0.00007230,-0.00016770,0.00049011,0.00040605,0.00034017
 ,-0.00024068,-0.00293611,-0.00323400,-0.00006687,-0.00022988,-0.000081
 77,-0.00003690,0.00000944,-0.00002069,-0.00112283,-0.00024725,0.000310
 61,0.00065378,-0.00007225,0.00019142,-0.00347787,0.01096174,-0.0000198
 8,0.00004211,-0.00018917,-0.00016786,-0.00000242,0.00001964,0.00000016
 ,0.00003550,-0.00002061,0.00000120,-0.00014091,0.00007271,0.00000417,-
 0.00004478,-0.00000319,0.00000653,0.00006378,-0.00002699,0.00001951,0.
 00000114,-0.00003879,-0.00000046,-0.00000023,-0.00000892,-0.00000422,0
 .00002131,0.00000878,0.00000308,0.00007562,-0.00001027,0.00000406,-0.0
 0006315,-0.00002219,-0.00001723,-0.02594383,0.14834254,-0.16399251,-0.
 00013840,0.00449232,-0.00054520,-0.00052704,0.00027831,0.00370272,0.00
 026211,-0.00054320,-0.00024029,0.00229679,0.00529919,0.00677628,0.0283
 0749,-0.16381683,0.16074413,-0.00007069,-0.00000940,0.,-0.00008529,0.0
 0011091,-0.00018201,-0.00017975,-0.00066281,0.00070110,0.00003498,-0.0
 0003745,0.00004736,-0.00000101,0.00002655,0.00004801,-0.00009126,-0.00
 003892,0.00000232,0.00001308,0.00000247,-0.00001250,-0.00220793,0.0042
 2400,-0.00352030,-0.00007692,0.00000096,-0.00004961,-0.00003118,-0.000
 00807,0.00001328,0.00007454,-0.00002785,0.00000252,-0.00004652,0.00003
 717,-0.00005243,0.00000458,-0.00001490,0.00000867,0.00009489,0.0000061
 2,0.00006025,0.00001637,-0.00000728,0.00000315,-0.00000074,-0.00000130
 ,0.00001512,-0.00001548,0.00000208,-0.00000149,-0.00002180,0.00002662,
 0.00000220,-0.00012221,-0.00005265,-0.00006826,-0.01833797,-0.01703169
 ,0.01414424,-0.28599080,-0.15113622,0.12528489,0.01719571,0.00334077,-
 0.00286549,-0.00060217,0.00300221,-0.00239266,-0.00073391,-0.00050767,
 0.00036043,0.00070813,0.00023842,-0.00021366,0.29250535,-0.00010804,-0
 .00001247,0.00005122,-0.00014021,0.00028996,0.00002484,-0.00055186,0.0
 0133575,0.00036812,0.00004718,-0.00022580,-0.00002746,-0.00000872,0.00
 000670,0.00001094,0.00102991,0.00011319,0.00006086,0.00004592,-0.00002
 368,0.00005854,0.00348556,0.00149427,0.00121919,-0.00021886,0.00003011
 ,0.00020778,-0.00001712,-0.00000910,0.00000482,0.00013683,-0.00007136,
 -0.00005586,0.00004588,-0.00001950,-0.00003156,0.00009568,-0.00001483,
 -0.00000047,0.00004410,0.00003513,0.00000016,0.00001863,0.00002729,-0.
 00000372,-0.00000939,-0.00000453,0.00000714,-0.00001901,0.00003158,0.0
 0001021,0.00001422,0.00004145,0.00001412,-0.00005726,-0.00005166,-0.00
 000291,0.00747256,0.00632934,-0.01078120,-0.14911622,-0.15125895,0.117
 59888,-0.02546420,-0.01099797,0.00856247,0.00274961,-0.00225075,0.0045
 8856,0.00126075,-0.00186314,0.00090365,0.00034984,-0.00034547,-0.00105
 011,0.15827768,0.15552953,0.00006557,0.00010084,0.00007657,-0.00038024
 ,-0.00009910,-0.00027258,-0.00015208,0.00073587,0.00169473,-0.00017513
 ,0.00010993,0.00004246,0.00001316,0.00000852,-0.00007053,0.00021896,-0
 .00006487,-0.00005570,0.00001612,0.00007099,-0.00002337,-0.00242855,0.
 00117409,0.00214253,0.00009608,-0.00000116,0.00008145,0.00000267,-0.00
 000299,-0.00000132,-0.00017671,-0.00002520,0.00000469,0.00001976,0.000
 01535,0.00004120,-0.00000958,0.00001718,-0.00001314,-0.00004426,-0.000
 04977,-0.00006102,-0.00000926,-0.00000107,0.00000020,-0.00000027,-0.00
 001564,-0.00002224,0.00004211,0.00000955,0.00001922,0.00001560,0.00001
 864,-0.00000378,0.00006719,0.00006950,0.00005501,-0.00632002,-0.010945
 07,0.00221290,0.12384479,0.11801047,-0.10599126,0.02064767,0.00806753,
 -0.00743840,-0.00214869,0.00454868,-0.00026971,-0.00108303,0.00103271,
 -0.00151406,-0.00032903,-0.00100119,-0.00078508,-0.13118611,-0.1178020
 2,0.10986459,-0.00004635,0.00010700,-0.00005261,0.00007543,0.00005151,
 -0.00023344,0.00063628,0.00157995,-0.00100754,-0.00000290,-0.00006829,
 0.00010151,0.00000969,0.00004561,0.00007264,0.00004196,-0.00033961,0.0
 0018206,-0.00053927,0.00007596,-0.00008451,-0.00646576,-0.00040489,0.0
 0036176,0.00005882,0.00001509,-0.00007370,-0.00006390,-0.00001734,0.00
 003226,0.00002143,-0.00007050,0.00003618,-0.00012041,0.00011973,-0.000
 13160,0.00000719,-0.00001350,0.00001737,0.00021250,-0.00006513,0.00016
 769,0.00002281,-0.00002300,0.00001271,0.00000782,-0.00000804,0.0000372
 8,0.00001483,0.00000541,0.00000072,-0.00000832,0.00002449,0.00001780,-
 0.00020813,-0.00003607,-0.00018840,-0.00159974,-0.00005987,0.00008701,
 -0.00531442,-0.00347805,0.00283679,0.01830454,-0.02288744,0.01832032,-
 0.09290326,0.06949306,-0.05563220,0.00062894,0.03013323,-0.02433663,0.
 00005963,0.00001873,-0.00001853,0.00077578,-0.00110923,0.00089890,0.08
 453325,0.00007453,0.00001154,-0.00000364,0.00007098,-0.00011038,0.0000
 4188,-0.00005032,0.00015053,0.00021232,-0.00010244,0.00005493,-0.00003
 676,0.00001389,-0.00002590,-0.00005476,-0.00023240,-0.00006654,-0.0000
 5491,0.00001655,-0.00004951,-0.00005543,0.00033084,0.00293463,0.001277
 22,0.00013778,0.00000469,-0.00000528,0.00002325,0.00002709,-0.00000625
 ,-0.00011461,-0.00000383,0.00000214,-0.00003313,0.00005539,-0.00001094
 ,-0.00003144,-0.00000230,-0.00000482,-0.00002326,-0.00020029,-0.000030
 29,-0.00000728,-0.00000760,-0.00000033,-0.00000268,-0.00000542,-0.0000
 1316,0.00002868,0.00000810,0.00000929,0.00004061,-0.00000380,0.0000046
 1,0.00011618,0.00026914,0.00011722,-0.00001842,0.00005761,-0.00064433,
 -0.00299657,0.00202336,0.00184042,0.00453162,-0.01171664,0.00864955,0.
 06603450,-0.26787768,0.20050216,0.00451248,-0.00089160,0.00170940,0.00
 004548,-0.00020332,-0.00020980,0.00032247,0.00010174,0.00068856,-0.072
 49741,0.27780517,-0.00006213,0.00000071,0.00001424,0.00004004,0.000076
 77,0.00008320,0.00010142,0.00026309,0.00012531,0.00003560,-0.00007329,
 -0.00003949,-0.00000619,0.00001484,0.00000883,0.00012859,-0.00014350,-
 0.00005487,-0.00002745,-0.00004457,-0.00002805,-0.00025912,0.00129749,
 0.00341629,-0.00011687,0.00000738,0.00000986,-0.00002260,0.00000020,0.
 00002682,0.00008522,-0.00004449,-0.00004590,-0.00002365,0.00003827,-0.
 00003260,0.00002152,-0.00000960,0.00000326,0.00009503,-0.00003688,-0.0
 0003294,0.00001734,-0.00000205,0.00000151,-0.00001102,-0.00000505,-0.0
 0000553,-0.00000988,0.00001155,0.00000668,0.00001211,0.00001303,0.0000
 2317,-0.00015243,0.00001490,0.00004938,0.00000871,-0.00067330,-0.00018
 887,0.00241370,0.00192656,0.00272323,-0.00359839,0.00869319,-0.0079491
 7,-0.05292401,0.20031838,-0.17897993,-0.00344476,0.00175809,-0.0000782
 0,-0.00003834,-0.00021808,-0.00028557,-0.00025056,0.00070802,0.0004131
 8,0.05805455,-0.20923405,0.18514221,0.00088603,0.00021727,0.00012721,-
 0.00008502,-0.00164161,-0.00070787,0.00296273,0.00026019,0.00135503,-0
 .00086507,0.00115835,0.00021164,0.00002048,-0.00006902,-0.00033714,-0.
 00288876,-0.00073045,-0.00032438,-0.00027016,0.00009649,-0.00007027,-0
 .00117703,0.00380971,-0.00294904,0.00161838,0.00001816,-0.00047085,0.0
 0014711,0.00005792,-0.00011879,-0.00135230,0.00027641,0.00025611,0.000
 08192,0.00006087,0.00040822,-0.00040373,0.00014128,-0.00006231,-0.0006
 7424,-0.00051084,-0.00043057,-0.00014802,-0.00007927,0.00001541,0.0000
 2781,-0.00000976,-0.00015776,0.00028162,-0.00005685,0.00001521,0.00005
 579,-0.00016465,-0.00011073,0.00091590,0.00084264,0.00056041,-0.000396
 59,0.00102684,-0.00097333,-0.02951548,0.03823107,-0.03072520,-0.647056
 59,0.12617711,-0.10172576,-0.09127005,-0.00481943,0.00424270,0.0179987
 9,-0.00691107,0.00554568,-0.00142674,0.00018812,-0.00017055,-0.0035522
 9,0.00165410,-0.00141453,-0.00152695,0.00177876,-0.00151212,0.76757464
 ,-0.00022743,-0.00034772,-0.00003014,0.00041008,0.00052942,0.00050512,
 -0.00127595,0.00017495,-0.00144689,0.00030685,-0.00019691,-0.00015100,
 -0.00004214,-0.00005575,0.00012001,0.00137790,0.00063214,0.00002525,-0
 .00012495,0.00008393,-0.00005677,0.00243128,0.00321883,-0.00374841,-0.
 00052904,-0.00001931,0.00030653,0.00005863,0.00000076,-0.00002117,0.00
 046164,0.00006166,-0.00011372,0.00022050,-0.00027721,0.00010774,0.0001
 4042,-0.00000235,-0.00001368,-0.00021682,0.00029357,-0.00013643,0.0000
 0360,0.00006916,-0.00002693,-0.00002343,0.00002480,-0.00000383,-0.0001
 2212,-0.00000293,-0.00002020,-0.00001825,-0.00000375,0.00003456,0.0001
 6838,-0.00013956,0.00013404,-0.01164679,-0.00151964,0.00535155,0.05995
 361,-0.01049377,0.02526320,0.12739935,-0.12452146,0.03460654,-0.029815
 94,0.02497381,-0.00311452,0.00826446,-0.00481468,0.00957382,0.00179509
 ,-0.00047762,0.00019230,-0.00058255,0.00120153,-0.00391707,0.00339623,
 0.00012131,-0.00299469,-0.15842951,0.11123726,0.00016905,0.00026883,-0
 .00002451,-0.00031427,-0.00041514,-0.00045042,0.00114163,-0.00068425,0
 .00061970,-0.00018567,0.00020265,0.00018278,0.00004308,0.00004131,-0.0
 0003880,-0.00125615,-0.00040438,0.00010181,0.00012893,-0.00000265,0.00
 002341,-0.00201888,-0.00354076,0.00195420,0.00048408,0.00001410,-0.000
 30015,-0.00003718,-0.00001995,0.00001929,-0.00034946,-0.00000231,0.000
 13508,-0.00015473,0.00015227,-0.00007153,-0.00012980,0.00000931,0.0000
 1620,0.00008295,-0.00016686,0.00013117,-0.00001561,-0.00005495,0.00001
 952,0.00002444,-0.00000242,0.00001384,0.00008202,-0.00002465,-0.000004
 07,-0.00002371,-0.00001572,-0.00004607,-0.00005188,0.00009713,-0.00013
 225,0.00938844,0.00523353,0.00060536,-0.04850473,0.02532697,0.00033588
 ,-0.10261938,0.03462167,-0.10952444,0.02416552,-0.00320122,0.02358058,
 -0.00658992,0.00987457,-0.00050066,-0.00146583,0.00022380,-0.00041941,
 0.00047823,-0.00398269,-0.00045280,-0.00271668,-0.00303196,-0.00123253
 ,0.12759952,-0.05890338,0.08583695,0.00084588,-0.00250285,0.00152962,0
 .00171831,-0.00088220,0.00228348,-0.00642817,-0.00469710,-0.00033738,-
 0.00036793,0.00201547,-0.00105368,-0.00044881,-0.00085943,-0.00072994,
 0.00134836,0.00588037,-0.00431390,0.00072321,0.00009908,-0.00040799,0.
 00865724,-0.02036062,0.01674350,0.00100112,-0.00021427,0.00152129,0.00
 047641,0.00123548,-0.00112085,-0.00067633,0.00162060,-0.00074947,0.001
 87863,-0.00186645,0.00228089,-0.00023628,0.00031137,-0.00031556,-0.005
 10637,-0.00140989,-0.00367099,-0.00047651,0.00038403,-0.00031272,-0.00
 022212,0.00013947,-0.00064050,-0.00030229,-0.00003899,-0.00003596,0.00
 003279,-0.00047375,-0.00021649,0.00288885,0.00289584,0.00264299,0.0022
 4356,0.00499125,-0.00377768,-0.00212191,-0.00649227,0.00523298,0.01088
 093,0.01790779,-0.01423542,-0.09340187,-0.04410906,0.03629424,-0.34567
 125,-0.21709596,0.17651422,0.00039235,0.00001290,-0.00006734,0.0007444
 8,0.00009167,-0.00009111,0.00338850,-0.00196865,0.00144569,-0.00996218
 ,-0.00333311,0.00264599,0.42820139,-0.00019915,-0.00115971,-0.00018280
 ,-0.00017436,0.00028873,0.00018003,-0.00599652,-0.00123075,-0.00409544
 ,0.00100740,0.00010562,0.00009625,0.00042599,-0.00035727,0.00052807,0.
 00271400,0.00354035,0.00037485,-0.00004701,0.00048785,-0.00025908,-0.0
 3299024,-0.02680710,0.03963004,-0.00097251,-0.00031772,0.00048083,0.00
 078974,-0.00064174,-0.00026935,0.00064651,0.00078710,-0.00007636,0.001
 80775,-0.00293936,0.00264019,0.00009659,0.00032682,-0.00011985,-0.0057
 3121,0.00099586,-0.00358232,-0.00050879,0.00048361,-0.00043213,-0.0002
 3955,0.00032947,-0.00059399,-0.00028337,-0.00016580,-0.00011166,-0.000
 22509,-0.00015237,0.00000352,0.00583670,0.00115003,0.00357528,0.016166
 24,-0.00194408,0.00413467,-0.00851096,0.00323037,-0.00256560,0.0039728
 5,0.00023638,0.00618665,-0.02395237,0.02012147,-0.00031211,-0.21455442
 ,-0.28340119,0.16888744,-0.00173737,-0.00184072,-0.00058516,0.00050032
 ,0.00058166,-0.00075330,-0.00398761,-0.00246040,-0.00166290,-0.0025728
 3,0.00024952,-0.00161284,0.26871926,0.29050335,-0.00021448,0.00113344,
 -0.00075997,-0.00105362,-0.00033098,-0.00240616,0.00421131,-0.00235840
 ,-0.00007079,0.00041018,-0.00091315,0.00124030,0.00043382,0.00099250,0
 .00074353,-0.00445802,0.00077302,-0.00215643,0.00001121,-0.00023416,0.
 00020611,0.02657148,0.03909365,-0.00960673,0.00226205,-0.00023365,-0.0
 0100105,-0.00093599,-0.00034501,0.00021320,-0.00008027,-0.00043828,0.0
 0073457,-0.00059087,0.00033485,-0.00018848,-0.00037568,0.00008919,0.00
 023163,0.00043243,-0.00033563,0.00112115,-0.00007590,-0.00017056,-0.00
 001165,0.00010076,0.00007647,0.00019427,0.00016165,-0.00013570,-0.0000
 9160,-0.00020188,0.00021477,-0.00000757,-0.00118075,-0.00007424,-0.002
 47438,-0.01286062,0.00386376,0.00017777,0.00664567,-0.00241906,0.00213
 723,-0.00306762,0.00585272,0.00253296,0.01953649,-0.00112222,0.0193303
 5,0.17525773,0.17066225,-0.21414719,0.00133314,-0.00063122,-0.00212213
 ,-0.00037667,-0.00066157,0.00032623,0.00323830,-0.00165804,-0.00309352
 ,0.00192406,-0.00152184,-0.00037812,-0.21705790,-0.20950293,0.20932646
 \\-0.00001114,0.00001089,0.00000505,0.00000331,-0.00001777,0.00000513,
 0.00001274,0.00001243,-0.00000044,-0.00001945,0.00000094,0.00000118,-0
 .00000283,0.00000038,0.00000106,-0.00000063,-0.00000726,-0.00000894,-0
 .00000061,-0.00000118,0.00000207,-0.00000761,0.00000998,-0.00000376,0.
 00000121,-0.00000168,0.00000784,0.00000288,-0.00000673,-0.00000199,0.0
 0001810,0.00001007,-0.00000231,0.00000176,0.00000524,-0.00001104,0.000
 00042,-0.00000110,-0.00000267,0.00000258,-0.00000329,0.00000294,0.0000
 0112,-0.00000186,0.00000398,-0.00000167,-0.00000189,0.00000223,-0.0000
 0626,-0.00000252,-0.00000034,0.00000558,0.00000473,-0.00000123,-0.0000
 0661,0.00000225,0.00000120,0.00000178,-0.00000638,-0.00000398,-0.00000
 618,0.00000143,0.00000512,0.00001085,-0.00000216,-0.00000401,-0.000013
 66,0.00001564,0.00001555,0.00000579,-0.00002480,0.00000096,-0.00000040
 ,0.00000031,-0.00000111,0.00000208,0.00000315,-0.00000495,0.00000644,-
 0.00000251,-0.00000406,-0.00000378,-0.00000212,-0.00000085,0.00000418,
 0.00000582,-0.00000263\\\@
 The archive entry for this job was punched.


 LET US PLACE AT THE END OF EVERY CHAPTER.....THE
 TWO LETTERS USED BY THE ROMAN JUDGES WHEN THEY DID
 NOT UNDERSTAND A PLEADING.
 N. L. -NON LIQUET- IT IS NOT CLEAR.
                                              -- VOLTAIRE
 Job cpu time:       0 days 10 hours 44 minutes 54.6 seconds.
 Elapsed time:       0 days  0 hours 16 minutes 15.8 seconds.
 File lengths (MBytes):  RWF=    632 Int=      0 D2E=      0 Chk=     21 Scr=      1
 Normal termination of Gaussian 16 at Sat Oct 26 06:40:00 2024.
