 Entering Gaussian System, Link 0=g16
 Input=PseudoUridineAnNallgPBE0aVDZ.gjf
 Output=PseudoUridineAnNallgPBE0aVDZ.log
 Initial command:
 /sw/contrib/chem-src/g16/c01/g16/l1.exe "/scr/Gau-38151.inp" -scrdir="/scr/"
 Entering Link 1 = /sw/contrib/chem-src/g16/c01/g16/l1.exe PID=     38152.
  
 Copyright (c) 1988-2019, Gaussian, Inc.  All Rights Reserved.
  
 This is part of the Gaussian(R) 16 program.  It is based on
 the Gaussian(R) 09 system (copyright 2009, Gaussian, Inc.),
 the Gaussian(R) 03 system (copyright 2003, Gaussian, Inc.),
 the Gaussian(R) 98 system (copyright 1998, Gaussian, Inc.),
 the Gaussian(R) 94 system (copyright 1995, Gaussian, Inc.),
 the Gaussian 92(TM) system (copyright 1992, Gaussian, Inc.),
 the Gaussian 90(TM) system (copyright 1990, Gaussian, Inc.),
 the Gaussian 88(TM) system (copyright 1988, Gaussian, Inc.),
 the Gaussian 86(TM) system (copyright 1986, Carnegie Mellon
 University), and the Gaussian 82(TM) system (copyright 1983,
 Carnegie Mellon University). Gaussian is a federally registered
 trademark of Gaussian, Inc.
  
 This software contains proprietary and confidential information,
 including trade secrets, belonging to Gaussian, Inc.
  
 This software is provided under written license and may be
 used, copied, transmitted, or stored only in accord with that
 written license.
  
 The following legend is applicable only to US Government
 contracts under FAR:
  
                    RESTRICTED RIGHTS LEGEND
  
 Use, reproduction and disclosure by the US Government is
 subject to restrictions as set forth in subparagraphs (a)
 and (c) of the Commercial Computer Software - Restricted
 Rights clause in FAR 52.227-19.
  
 Gaussian, Inc.
 340 Quinnipiac St., Bldg. 40, Wallingford CT 06492
  
  
 ---------------------------------------------------------------
 Warning -- This program may not be used in any manner that
 competes with the business of Gaussian, Inc. or will provide
 assistance to any competitor of Gaussian, Inc.  The licensee
 of this program is prohibited from giving any competitor of
 Gaussian, Inc. access to this program.  By using this program,
 the user acknowledges that Gaussian, Inc. is engaged in the
 business of creating and licensing software in the field of
 computational chemistry and represents and warrants to the
 licensee that it is not a competitor of Gaussian, Inc. and that
 it will not use this program in any manner prohibited above.
 ---------------------------------------------------------------
  

 Cite this work as:
 Gaussian 16, Revision C.01,
 M. J. Frisch, G. W. Trucks, H. B. Schlegel, G. E. Scuseria, 
 M. A. Robb, J. R. Cheeseman, G. Scalmani, V. Barone, 
 G. A. Petersson, H. Nakatsuji, X. Li, M. Caricato, A. V. Marenich, 
 J. Bloino, B. G. Janesko, R. Gomperts, B. Mennucci, H. P. Hratchian, 
 J. V. Ortiz, A. F. Izmaylov, J. L. Sonnenberg, D. Williams-Young, 
 F. Ding, F. Lipparini, F. Egidi, J. Goings, B. Peng, A. Petrone, 
 T. Henderson, D. Ranasinghe, V. G. Zakrzewski, J. Gao, N. Rega, 
 G. Zheng, W. Liang, M. Hada, M. Ehara, K. Toyota, R. Fukuda, 
 J. Hasegawa, M. Ishida, T. Nakajima, Y. Honda, O. Kitao, H. Nakai, 
 T. Vreven, K. Throssell, J. A. Montgomery, Jr., J. E. Peralta, 
 F. Ogliaro, M. J. Bearpark, J. J. Heyd, E. N. Brothers, K. N. Kudin, 
 V. N. Staroverov, T. A. Keith, R. Kobayashi, J. Normand, 
 K. Raghavachari, A. P. Rendell, J. C. Burant, S. S. Iyengar, 
 J. Tomasi, M. Cossi, J. M. Millam, M. Klene, C. Adamo, R. Cammi, 
 J. W. Ochterski, R. L. Martin, K. Morokuma, O. Farkas, 
 J. B. Foresman, and D. J. Fox, Gaussian, Inc., Wallingford CT, 2019.
 
 ******************************************
 Gaussian 16:  EM64L-G16RevC.01  3-Jul-2019
                27-Oct-2024 
 ******************************************
 %nprocshared=40
 Will use up to   40 processors via shared memory.
 %mem=50gb
 ------------------------------------------------------
 # PBE1PBE/aug-cc-pVDZ opt freq EmpiricalDispersion=GD3
 ------------------------------------------------------
 1/18=20,19=15,26=3,38=1/1,3;
 2/9=110,12=2,17=6,18=5,40=1/2;
 3/5=16,7=10,11=2,25=1,30=1,71=1,74=-13,124=31/1,2,3;
 4//1;
 5/5=2,38=5/2;
 6/7=2,8=2,9=2,10=2,28=1/1;
 7//1,2,3,16;
 1/18=20,19=15,26=3/3(2);
 2/9=110/2;
 99//99;
 2/9=110/2;
 3/5=16,7=10,11=2,25=1,30=1,71=1,74=-13,124=31/1,2,3;
 4/5=5,16=3,69=1/1;
 5/5=2,38=5/2;
 7//1,2,3,16;
 1/18=20,19=15,26=3/3(-5);
 2/9=110/2;
 6/7=2,8=2,9=2,10=2,19=2,28=1/1;
 99/9=1/99;
 ----
 blah
 ----
 Symbolic Z-matrix:
 Charge = -1 Multiplicity = 1
 C                     2.38969  -0.25989  -0.61819 
 C                     1.22953  -1.27878  -0.59585 
 C                     0.403    -0.88316   0.64111 
 O                     1.69452  -2.6028   -0.38508 
 H                     0.63488  -1.22519  -1.51845 
 O                     1.04798   0.22907   1.25039 
 H                     0.42568  -1.75024   1.32337 
 C                    -1.02076  -0.51499   0.37088 
 C                     2.39367   0.32073   0.799 
 H                     2.16275   0.53719  -1.33351 
 O                     3.62032  -0.81752  -1.01334 
 C                     2.80484   1.77682   0.88551 
 H                     3.05698  -0.28811   1.44554 
 O                     2.08202   2.59794  -0.00044 
 H                     3.86833   1.86128   0.61993 
 H                     2.68502   2.1109    1.93139 
 H                     3.84791  -1.50003  -0.37091 
 H                     2.18039  -2.86526  -1.17472 
 H                     1.1678    2.28229  -0.03597 
 C                    -2.05969  -1.17561   0.92977 
 N                    -3.36251  -0.84118   0.68063 
 C                    -3.74065   0.20305  -0.14537 
 N                    -2.66667   0.8713   -0.69598 
 C                    -1.30961   0.60879  -0.51392 
 H                    -1.90895  -2.01451   1.60826 
 H                    -4.12475  -1.34819   1.10642 
 O                    -4.90055   0.49273  -0.35643 
 O                    -0.47349   1.2956   -1.08338 
 

 GradGradGradGradGradGradGradGradGradGradGradGradGradGradGradGradGradGrad
 Berny optimization.
 Initialization pass.
                           ----------------------------
                           !    Initial Parameters    !
                           ! (Angstroms and Degrees)  !
 --------------------------                            --------------------------
 ! Name  Definition              Value          Derivative Info.                !
 --------------------------------------------------------------------------------
 ! R1    R(1,2)                  1.5442         estimate D2E/DX2                !
 ! R2    R(1,9)                  1.5315         estimate D2E/DX2                !
 ! R3    R(1,10)                 1.0948         estimate D2E/DX2                !
 ! R4    R(1,11)                 1.4077         estimate D2E/DX2                !
 ! R5    R(2,3)                  1.5394         estimate D2E/DX2                !
 ! R6    R(2,4)                  1.419          estimate D2E/DX2                !
 ! R7    R(2,5)                  1.0989         estimate D2E/DX2                !
 ! R8    R(3,6)                  1.4228         estimate D2E/DX2                !
 ! R9    R(3,7)                  1.1035         estimate D2E/DX2                !
 ! R10   R(3,8)                  1.4952         estimate D2E/DX2                !
 ! R11   R(4,18)                 0.9636         estimate D2E/DX2                !
 ! R12   R(6,9)                  1.4223         estimate D2E/DX2                !
 ! R13   R(8,20)                 1.3521         estimate D2E/DX2                !
 ! R14   R(8,24)                 1.4592         estimate D2E/DX2                !
 ! R15   R(9,12)                 1.5155         estimate D2E/DX2                !
 ! R16   R(9,13)                 1.1085         estimate D2E/DX2                !
 ! R17   R(11,17)                0.9645         estimate D2E/DX2                !
 ! R18   R(12,14)                1.4077         estimate D2E/DX2                !
 ! R19   R(12,15)                1.0994         estimate D2E/DX2                !
 ! R20   R(12,16)                1.1045         estimate D2E/DX2                !
 ! R21   R(14,19)                0.9678         estimate D2E/DX2                !
 ! R22   R(20,21)                1.3679         estimate D2E/DX2                !
 ! R23   R(20,25)                1.0894         estimate D2E/DX2                !
 ! R24   R(21,22)                1.3841         estimate D2E/DX2                !
 ! R25   R(21,26)                1.0096         estimate D2E/DX2                !
 ! R26   R(22,23)                1.3796         estimate D2E/DX2                !
 ! R27   R(22,27)                1.214          estimate D2E/DX2                !
 ! R28   R(23,24)                1.3942         estimate D2E/DX2                !
 ! R29   R(24,28)                1.2227         estimate D2E/DX2                !
 ! A1    A(2,1,9)              103.8102         estimate D2E/DX2                !
 ! A2    A(2,1,10)             109.518          estimate D2E/DX2                !
 ! A3    A(2,1,11)             113.5464         estimate D2E/DX2                !
 ! A4    A(9,1,10)             109.2162         estimate D2E/DX2                !
 ! A5    A(9,1,11)             114.0585         estimate D2E/DX2                !
 ! A6    A(10,1,11)            106.632          estimate D2E/DX2                !
 ! A7    A(1,2,3)              104.2078         estimate D2E/DX2                !
 ! A8    A(1,2,4)              111.8139         estimate D2E/DX2                !
 ! A9    A(1,2,5)              111.2357         estimate D2E/DX2                !
 ! A10   A(3,2,4)              107.24           estimate D2E/DX2                !
 ! A11   A(3,2,5)              111.8103         estimate D2E/DX2                !
 ! A12   A(4,2,5)              110.3353         estimate D2E/DX2                !
 ! A13   A(2,3,6)              107.5542         estimate D2E/DX2                !
 ! A14   A(2,3,7)              106.4883         estimate D2E/DX2                !
 ! A15   A(2,3,8)              115.4239         estimate D2E/DX2                !
 ! A16   A(6,3,7)              109.8866         estimate D2E/DX2                !
 ! A17   A(6,3,8)              108.4554         estimate D2E/DX2                !
 ! A18   A(7,3,8)              108.9521         estimate D2E/DX2                !
 ! A19   A(2,4,18)             107.3165         estimate D2E/DX2                !
 ! A20   A(3,6,9)              110.0822         estimate D2E/DX2                !
 ! A21   A(3,8,20)             122.4557         estimate D2E/DX2                !
 ! A22   A(3,8,24)             119.1911         estimate D2E/DX2                !
 ! A23   A(20,8,24)            118.3483         estimate D2E/DX2                !
 ! A24   A(1,9,6)              105.4729         estimate D2E/DX2                !
 ! A25   A(1,9,12)             114.6947         estimate D2E/DX2                !
 ! A26   A(1,9,13)             109.4543         estimate D2E/DX2                !
 ! A27   A(6,9,12)             107.4867         estimate D2E/DX2                !
 ! A28   A(6,9,13)             110.2216         estimate D2E/DX2                !
 ! A29   A(12,9,13)            109.3954         estimate D2E/DX2                !
 ! A30   A(1,11,17)            107.4348         estimate D2E/DX2                !
 ! A31   A(9,12,14)            112.6561         estimate D2E/DX2                !
 ! A32   A(9,12,15)            108.8122         estimate D2E/DX2                !
 ! A33   A(9,12,16)            108.3758         estimate D2E/DX2                !
 ! A34   A(14,12,15)           107.4493         estimate D2E/DX2                !
 ! A35   A(14,12,16)           111.336          estimate D2E/DX2                !
 ! A36   A(15,12,16)           108.087          estimate D2E/DX2                !
 ! A37   A(12,14,19)           108.5366         estimate D2E/DX2                !
 ! A38   A(8,20,21)            122.4847         estimate D2E/DX2                !
 ! A39   A(8,20,25)            121.8272         estimate D2E/DX2                !
 ! A40   A(21,20,25)           115.6879         estimate D2E/DX2                !
 ! A41   A(20,21,22)           123.5962         estimate D2E/DX2                !
 ! A42   A(20,21,26)           121.2952         estimate D2E/DX2                !
 ! A43   A(22,21,26)           115.1057         estimate D2E/DX2                !
 ! A44   A(21,22,23)           113.0145         estimate D2E/DX2                !
 ! A45   A(21,22,27)           123.0112         estimate D2E/DX2                !
 ! A46   A(23,22,27)           123.9743         estimate D2E/DX2                !
 ! A47   A(22,23,24)           127.9119         estimate D2E/DX2                !
 ! A48   A(8,24,23)            114.6384         estimate D2E/DX2                !
 ! A49   A(8,24,28)            125.4243         estimate D2E/DX2                !
 ! A50   A(23,24,28)           119.936          estimate D2E/DX2                !
 ! D1    D(9,1,2,3)             17.4274         estimate D2E/DX2                !
 ! D2    D(9,1,2,4)            -98.081          estimate D2E/DX2                !
 ! D3    D(9,1,2,5)            138.0621         estimate D2E/DX2                !
 ! D4    D(10,1,2,3)           -99.1065         estimate D2E/DX2                !
 ! D5    D(10,1,2,4)           145.385          estimate D2E/DX2                !
 ! D6    D(10,1,2,5)            21.5282         estimate D2E/DX2                !
 ! D7    D(11,1,2,3)           141.8334         estimate D2E/DX2                !
 ! D8    D(11,1,2,4)            26.325          estimate D2E/DX2                !
 ! D9    D(11,1,2,5)           -97.5319         estimate D2E/DX2                !
 ! D10   D(2,1,9,6)            -28.6126         estimate D2E/DX2                !
 ! D11   D(2,1,9,12)          -146.6767         estimate D2E/DX2                !
 ! D12   D(2,1,9,13)            89.9516         estimate D2E/DX2                !
 ! D13   D(10,1,9,6)            88.1328         estimate D2E/DX2                !
 ! D14   D(10,1,9,12)          -29.9312         estimate D2E/DX2                !
 ! D15   D(10,1,9,13)         -153.3029         estimate D2E/DX2                !
 ! D16   D(11,1,9,6)          -152.6868         estimate D2E/DX2                !
 ! D17   D(11,1,9,12)           89.2492         estimate D2E/DX2                !
 ! D18   D(11,1,9,13)          -34.1225         estimate D2E/DX2                !
 ! D19   D(2,1,11,17)          -61.3799         estimate D2E/DX2                !
 ! D20   D(9,1,11,17)           57.2867         estimate D2E/DX2                !
 ! D21   D(10,1,11,17)         177.9205         estimate D2E/DX2                !
 ! D22   D(1,2,3,6)             -0.6549         estimate D2E/DX2                !
 ! D23   D(1,2,3,7)           -118.4108         estimate D2E/DX2                !
 ! D24   D(1,2,3,8)            120.5434         estimate D2E/DX2                !
 ! D25   D(4,2,3,6)            118.0252         estimate D2E/DX2                !
 ! D26   D(4,2,3,7)              0.2692         estimate D2E/DX2                !
 ! D27   D(4,2,3,8)           -120.7766         estimate D2E/DX2                !
 ! D28   D(5,2,3,6)           -120.904          estimate D2E/DX2                !
 ! D29   D(5,2,3,7)            121.34           estimate D2E/DX2                !
 ! D30   D(5,2,3,8)              0.2942         estimate D2E/DX2                !
 ! D31   D(1,2,4,18)           -68.7266         estimate D2E/DX2                !
 ! D32   D(3,2,4,18)           177.6319         estimate D2E/DX2                !
 ! D33   D(5,2,4,18)            55.6349         estimate D2E/DX2                !
 ! D34   D(2,3,6,9)            -18.3365         estimate D2E/DX2                !
 ! D35   D(7,3,6,9)             97.1937         estimate D2E/DX2                !
 ! D36   D(8,3,6,9)           -143.8057         estimate D2E/DX2                !
 ! D37   D(2,3,8,20)           120.6713         estimate D2E/DX2                !
 ! D38   D(2,3,8,24)           -60.1518         estimate D2E/DX2                !
 ! D39   D(6,3,8,20)          -118.6188         estimate D2E/DX2                !
 ! D40   D(6,3,8,24)            60.5581         estimate D2E/DX2                !
 ! D41   D(7,3,8,20)             0.9689         estimate D2E/DX2                !
 ! D42   D(7,3,8,24)          -179.8542         estimate D2E/DX2                !
 ! D43   D(3,6,9,1)             29.8069         estimate D2E/DX2                !
 ! D44   D(3,6,9,12)           152.6068         estimate D2E/DX2                !
 ! D45   D(3,6,9,13)           -88.2434         estimate D2E/DX2                !
 ! D46   D(3,8,20,21)         -179.8509         estimate D2E/DX2                !
 ! D47   D(3,8,20,25)           -0.0466         estimate D2E/DX2                !
 ! D48   D(24,8,20,21)           0.9657         estimate D2E/DX2                !
 ! D49   D(24,8,20,25)        -179.2301         estimate D2E/DX2                !
 ! D50   D(3,8,24,23)         -179.8026         estimate D2E/DX2                !
 ! D51   D(3,8,24,28)            0.6199         estimate D2E/DX2                !
 ! D52   D(20,8,24,23)          -0.5918         estimate D2E/DX2                !
 ! D53   D(20,8,24,28)         179.8307         estimate D2E/DX2                !
 ! D54   D(1,9,12,14)           51.3635         estimate D2E/DX2                !
 ! D55   D(1,9,12,15)          -67.6798         estimate D2E/DX2                !
 ! D56   D(1,9,12,16)          175.0125         estimate D2E/DX2                !
 ! D57   D(6,9,12,14)          -65.5556         estimate D2E/DX2                !
 ! D58   D(6,9,12,15)          175.4011         estimate D2E/DX2                !
 ! D59   D(6,9,12,16)           58.0934         estimate D2E/DX2                !
 ! D60   D(13,9,12,14)         174.7667         estimate D2E/DX2                !
 ! D61   D(13,9,12,15)          55.7234         estimate D2E/DX2                !
 ! D62   D(13,9,12,16)         -61.5843         estimate D2E/DX2                !
 ! D63   D(9,12,14,19)          37.4965         estimate D2E/DX2                !
 ! D64   D(15,12,14,19)        157.3307         estimate D2E/DX2                !
 ! D65   D(16,12,14,19)        -84.4946         estimate D2E/DX2                !
 ! D66   D(8,20,21,22)          -0.7736         estimate D2E/DX2                !
 ! D67   D(8,20,21,26)         179.8712         estimate D2E/DX2                !
 ! D68   D(25,20,21,22)        179.4109         estimate D2E/DX2                !
 ! D69   D(25,20,21,26)          0.0558         estimate D2E/DX2                !
 ! D70   D(20,21,22,23)          0.1716         estimate D2E/DX2                !
 ! D71   D(20,21,22,27)       -179.8087         estimate D2E/DX2                !
 ! D72   D(26,21,22,23)        179.5632         estimate D2E/DX2                !
 ! D73   D(26,21,22,27)         -0.4172         estimate D2E/DX2                !
 ! D74   D(21,22,23,24)          0.1827         estimate D2E/DX2                !
 ! D75   D(27,22,23,24)       -179.8372         estimate D2E/DX2                !
 ! D76   D(22,23,24,8)           0.0279         estimate D2E/DX2                !
 ! D77   D(22,23,24,28)        179.6306         estimate D2E/DX2                !
 --------------------------------------------------------------------------------
 Trust Radius=3.00D-01 FncErr=1.00D-07 GrdErr=1.00D-06 EigMax=2.50D+02 EigMin=1.00D-04
 Number of steps in this run=    166 maximum allowed number of steps=    168.
 GradGradGradGradGradGradGradGradGradGradGradGradGradGradGradGradGradGrad

                          Input orientation:                          
 ---------------------------------------------------------------------
 Center     Atomic      Atomic             Coordinates (Angstroms)
 Number     Number       Type             X           Y           Z
 ---------------------------------------------------------------------
      1          6           0        2.389694   -0.259892   -0.618189
      2          6           0        1.229529   -1.278783   -0.595846
      3          6           0        0.403004   -0.883164    0.641114
      4          8           0        1.694518   -2.602799   -0.385076
      5          1           0        0.634877   -1.225186   -1.518453
      6          8           0        1.047985    0.229073    1.250393
      7          1           0        0.425683   -1.750242    1.323372
      8          6           0       -1.020762   -0.514987    0.370876
      9          6           0        2.393672    0.320731    0.798997
     10          1           0        2.162749    0.537185   -1.333511
     11          8           0        3.620316   -0.817516   -1.013343
     12          6           0        2.804837    1.776823    0.885511
     13          1           0        3.056981   -0.288108    1.445539
     14          8           0        2.082017    2.597935   -0.000436
     15          1           0        3.868325    1.861284    0.619932
     16          1           0        2.685017    2.110901    1.931394
     17          1           0        3.847909   -1.500032   -0.370914
     18          1           0        2.180392   -2.865261   -1.174722
     19          1           0        1.167795    2.282293   -0.035971
     20          6           0       -2.059687   -1.175606    0.929773
     21          7           0       -3.362513   -0.841177    0.680630
     22          6           0       -3.740646    0.203045   -0.145370
     23          7           0       -2.666672    0.871301   -0.695981
     24          6           0       -1.309611    0.608787   -0.513918
     25          1           0       -1.908948   -2.014514    1.608259
     26          1           0       -4.124750   -1.348188    1.106418
     27          8           0       -4.900554    0.492732   -0.356428
     28          8           0       -0.473485    1.295595   -1.083384
 ---------------------------------------------------------------------
                    Distance matrix (angstroms):
                    1          2          3          4          5
     1  C    0.000000
     2  C    1.544222   0.000000
     3  C    2.433362   1.539392   0.000000
     4  O    2.454959   1.419034   2.382901   0.000000
     5  H    2.195826   1.098948   2.198744   2.074898   0.000000
     6  O    2.351780   2.390646   1.422776   3.333506   3.154685
     7  H    3.138175   2.133504   1.103546   2.292507   2.897484
     8  C    3.560131   2.565491   1.495223   3.507587   2.610572
     9  C    1.531521   2.420591   2.331748   3.230770   3.294510
    10  H    1.094770   2.170896   3.002205   3.313347   2.339775
    11  O    1.407665   2.470412   3.618375   2.700121   3.055189
    12  C    2.565476   3.743360   3.592223   4.693430   4.415861
    13  H    2.169111   2.913464   2.836333   3.250423   3.940806
    14  O    2.939976   4.013750   3.917744   5.229315   4.360601
    15  H    2.866824   4.278011   4.420508   5.065917   4.955217
    16  H    3.494030   4.471615   3.979552   5.344725   5.218620
    17  H    1.930151   2.637320   3.643089   2.419378   3.422859
    18  H    2.672356   1.938079   3.222589   0.963587   2.279608
    19  H    2.880055   3.605348   3.326179   4.925793   3.845018
    20  C    4.799136   3.627272   2.496737   4.226081   3.641009
    21  N    5.925598   4.786203   3.765958   5.460092   4.578488
    22  C    6.165950   5.205899   4.355255   6.121375   4.803166
    23  N    5.181938   4.451210   3.780064   5.584444   3.996491
    24  C    3.801359   3.164943   2.548150   4.399509   2.855448
    25  H    5.149184   3.905050   2.749626   4.159859   4.107361
    26  H    6.826173   5.618792   4.575294   6.136977   5.436831
    27  O    7.333667   6.385413   5.569193   7.285472   5.911222
    28  O    3.291465   3.124960   2.913609   4.515013   2.787847
                    6          7          8          9         10
     6  O    0.000000
     7  H    2.076120   0.000000
     8  C    2.367887   2.127277   0.000000
     9  C    1.422334   2.904631   3.541196   0.000000
    10  H    2.830935   3.912639   3.761216   2.155868   0.000000
    11  O    3.582839   4.066435   4.852545   2.466746   2.015496
    12  C    2.369641   4.276948   4.489148   1.515502   2.621648
    13  H    2.083656   3.012721   4.223075   1.108459   3.033789
    14  O    2.871463   4.837619   4.410827   2.433491   2.455666
    15  H    3.319023   5.038822   5.441678   2.140086   2.911729
    16  H    2.585520   4.514721   4.802427   2.138203   3.661823
    17  H    3.668517   3.826858   5.022402   2.607427   2.813647
    18  H    4.091263   3.250038   4.261461   3.753878   3.406195
    19  H    2.425860   4.319709   3.574924   2.459201   2.391432
    20  C    3.425426   2.581122   1.352090   4.699844   5.087738
    21  N    4.574118   3.948410   2.384564   5.873475   6.040295
    22  C    4.987967   4.830200   2.860044   6.207700   6.031036
    23  N    4.242582   4.529121   2.401874   5.305202   4.882764
    24  C    2.969046   3.457152   1.459165   3.939673   3.568493
    25  H    3.728968   2.366749   2.137422   4.961936   5.634172
    26  H    5.409775   4.573309   3.296966   6.735698   7.002894
    27  O    6.167374   6.018427   4.073973   7.387173   7.130702
    28  O    2.983095   3.984733   2.385915   3.565713   2.754538
                   11         12         13         14         15
    11  O    0.000000
    12  C    3.316813   0.000000
    13  H    2.577541   2.154332   0.000000
    14  O    3.880419   1.407692   3.372038   0.000000
    15  H    3.147231   1.099396   2.441269   2.029386   0.000000
    16  H    4.256981   1.104462   2.475814   2.081533   1.783945
    17  H    0.964542   3.661199   2.322462   4.477607   3.504374
    18  H    2.508522   5.116975   3.778345   5.588840   5.330115
    19  H    4.071723   1.945388   3.517223   0.967830   2.810751
    20  C    6.013848   5.690553   5.218617   5.679667   6.667835
    21  N    7.185402   6.703142   6.488519   6.475666   7.719585
    22  C    7.481890   6.810495   6.998568   6.297611   7.825080
    23  N    6.517595   5.767018   6.220172   5.100499   6.739279
    24  C    5.156350   4.500155   4.869396   3.965289   5.446594
    25  H    6.235252   6.092321   5.259982   6.307962   7.026769
    26  H    8.047425   7.604845   7.267464   7.437807   8.627087
    27  O    8.646011   7.909763   8.196289   7.301706   8.928575
    28  O    4.607532   3.854286   4.622527   3.065853   4.698149
                   16         17         18         19         20
    16  H    0.000000
    17  H    4.437542   0.000000
    18  H    5.887681   2.300124   0.000000
    19  H    2.490354   4.647707   5.368372   0.000000
    20  C    5.858036   6.057783   5.026142   4.827667   0.000000
    21  N    6.844837   7.316421   6.185713   5.549169   1.367944
    22  C    7.017265   7.780585   6.747797   5.331795   2.425332
    23  N    6.089358   6.940364   6.138821   4.138798   2.683530
    24  C    4.918633   5.573830   4.968480   3.027639   2.414729
    25  H    6.182878   6.109273   5.019109   5.534654   1.089418
    26  H    7.682370   8.109800   6.874586   6.518932   2.079777
    27  O    8.086624   8.972565   7.879436   6.334831   3.536692
    28  O    4.441818   5.195921   4.936003   2.182761   3.560291
                   21         22         23         24         25
    21  N    0.000000
    22  C    1.384074   0.000000
    23  N    2.304742   1.379550   0.000000
    24  C    2.782759   2.492064   1.394157   0.000000
    25  H    2.085681   3.368664   3.769827   3.427032   0.000000
    26  H    1.009634   2.029983   3.209480   3.792130   2.367618
    27  O    2.284813   1.214022   2.291035   3.596268   4.369895
    28  O    4.003002   3.570417   2.267196   1.222744   4.501368
                   26         27         28
    26  H    0.000000
    27  O    2.476041   0.000000
    28  O    5.011642   4.557630   0.000000
 Stoichiometry    C9H11N2O6(1-)
 Framework group  C1[X(C9H11N2O6)]
 Deg. of freedom    78
 Full point group                 C1      NOp   1
 Largest Abelian subgroup         C1      NOp   1
 Largest concise Abelian subgroup C1      NOp   1
                         Standard orientation:                         
 ---------------------------------------------------------------------
 Center     Atomic      Atomic             Coordinates (Angstroms)
 Number     Number       Type             X           Y           Z
 ---------------------------------------------------------------------
      1          6           0        2.368006   -0.275289   -0.612204
      2          6           0        1.199675   -1.284544   -0.580123
      3          6           0        0.370030   -0.863250    0.646225
      4          8           0        1.653039   -2.608743   -0.346428
      5          1           0        0.610177   -1.240613   -1.506540
      6          8           0        1.020724    0.253210    1.241546
      7          1           0        0.382335   -1.719771    1.341953
      8          6           0       -1.049367   -0.488120    0.362886
      9          6           0        2.369380    0.327243    0.795812
     10          1           0        2.151056    0.512335   -1.340971
     11          8           0        3.596152   -0.848659   -0.992238
     12          6           0        2.791667    1.781221    0.861887
     13          1           0        3.024522   -0.276677    1.455168
     14          8           0        2.079924    2.594129   -0.040443
     15          1           0        3.857132    1.853168    0.600584
     16          1           0        2.669179    2.132448    1.901826
     17          1           0        3.815032   -1.522878   -0.338126
     18          1           0        2.140828   -2.887265   -1.129364
     19          1           0        1.163414    2.285180   -0.075851
     20          6           0       -2.096348   -1.131772    0.926527
     21          7           0       -3.395186   -0.791008    0.665434
     22          6           0       -3.760788    0.243193   -0.178617
     23          7           0       -2.678741    0.894334   -0.733909
     24          6           0       -1.324756    0.624005   -0.540719
     25          1           0       -1.955745   -1.961193    1.618715
     26          1           0       -4.163591   -1.285323    1.095047
     27          8           0       -4.917265    0.538688   -0.400191
     28          8           0       -0.480303    1.295274   -1.116393
 ---------------------------------------------------------------------
 Rotational constants (GHZ):           0.9204434           0.2951741           0.2555137
 Standard basis: Aug-CC-pVDZ (5D, 7F)
 There are   524 symmetry adapted cartesian basis functions of A   symmetry.
 There are   490 symmetry adapted basis functions of A   symmetry.
   490 basis functions,   852 primitive gaussians,   524 cartesian basis functions
    64 alpha electrons       64 beta electrons
       nuclear repulsion energy      1298.2139434561 Hartrees.
 NAtoms=   28 NActive=   28 NUniq=   28 SFac= 1.00D+00 NAtFMM=   60 NAOKFM=F Big=F
 Integral buffers will be    131072 words long.
 Raffenetti 2 integral format.
 Two-electron integral symmetry is turned on.
 Nuclear repulsion after empirical dispersion term =     1298.1944111052 Hartrees.
 One-electron integrals computed using PRISM.
 NBasis=   490 RedAO= T EigKep=  2.13D-06  NBF=   490
 NBsUse=   490 1.00D-06 EigRej= -1.00D+00 NBFU=   490
 ExpMin= 2.97D-02 ExpMax= 1.17D+04 ExpMxC= 4.01D+02 IAcc=3 IRadAn=         5 AccDes= 0.00D+00
 Harris functional with IExCor= 1009 and IRadAn=       5 diagonalized for initial guess.
 HarFok:  IExCor= 1009 AccDes= 0.00D+00 IRadAn=         5 IDoV= 1 UseB2=F ITyADJ=14
 ICtDFT=  3500011 ScaDFX=  1.000000  1.000000  1.000000  1.000000
 FoFCou: FMM=F IPFlag=           0 FMFlag=      100000 FMFlg1=           0
         NFxFlg=           0 DoJE=T BraDBF=F KetDBF=T FulRan=T
         wScrn=  0.000000 ICntrl=       500 IOpCl=  0 I1Cent=   200000004 NGrid=           0
         NMat0=    1 NMatS0=      1 NMatT0=    0 NMatD0=    1 NMtDS0=    0 NMtDT0=    0
 Petite list used in FoFCou.
 Requested convergence on RMS density matrix=1.00D-08 within 128 cycles.
 Requested convergence on MAX density matrix=1.00D-06.
 Requested convergence on             energy=1.00D-06.
 No special actions if energy rises.
 EnCoef did     2 forward-backward iterations
 SCF Done:  E(RPBE1PBE) =  -909.665307669     A.U. after   17 cycles
            NFock= 17  Conv=0.31D-08     -V/T= 2.0052

 **********************************************************************

            Population analysis using the SCF Density.

 **********************************************************************

 Orbital symmetries:
       Occupied  (A) (A) (A) (A) (A) (A) (A) (A) (A) (A) (A) (A)
                 (A) (A) (A) (A) (A) (A) (A) (A) (A) (A) (A) (A)
                 (A) (A) (A) (A) (A) (A) (A) (A) (A) (A) (A) (A)
                 (A) (A) (A) (A) (A) (A) (A) (A) (A) (A) (A) (A)
                 (A) (A) (A) (A) (A) (A) (A) (A) (A) (A) (A) (A)
                 (A) (A) (A) (A)
       Virtual   (A) (A) (A) (A) (A) (A) (A) (A) (A) (A) (A) (A)
                 (A) (A) (A) (A) (A) (A) (A) (A) (A) (A) (A) (A)
                 (A) (A) (A) (A) (A) (A) (A) (A) (A) (A) (A) (A)
                 (A) (A) (A) (A) (A) (A) (A) (A) (A) (A) (A) (A)
                 (A) (A) (A) (A) (A) (A) (A) (A) (A) (A) (A) (A)
                 (A) (A) (A) (A) (A) (A) (A) (A) (A) (A) (A) (A)
                 (A) (A) (A) (A) (A) (A) (A) (A) (A) (A) (A) (A)
                 (A) (A) (A) (A) (A) (A) (A) (A) (A) (A) (A) (A)
                 (A) (A) (A) (A) (A) (A) (A) (A) (A) (A) (A) (A)
                 (A) (A) (A) (A) (A) (A) (A) (A) (A) (A) (A) (A)
                 (A) (A) (A) (A) (A) (A) (A) (A) (A) (A) (A) (A)
                 (A) (A) (A) (A) (A) (A) (A) (A) (A) (A) (A) (A)
                 (A) (A) (A) (A) (A) (A) (A) (A) (A) (A) (A) (A)
                 (A) (A) (A) (A) (A) (A) (A) (A) (A) (A) (A) (A)
                 (A) (A) (A) (A) (A) (A) (A) (A) (A) (A) (A) (A)
                 (A) (A) (A) (A) (A) (A) (A) (A) (A) (A) (A) (A)
                 (A) (A) (A) (A) (A) (A) (A) (A) (A) (A) (A) (A)
                 (A) (A) (A) (A) (A) (A) (A) (A) (A) (A) (A) (A)
                 (A) (A) (A) (A) (A) (A) (A) (A) (A) (A) (A) (A)
                 (A) (A) (A) (A) (A) (A) (A) (A) (A) (A) (A) (A)
                 (A) (A) (A) (A) (A) (A) (A) (A) (A) (A) (A) (A)
                 (A) (A) (A) (A) (A) (A) (A) (A) (A) (A) (A) (A)
                 (A) (A) (A) (A) (A) (A) (A) (A) (A) (A) (A) (A)
                 (A) (A) (A) (A) (A) (A) (A) (A) (A) (A) (A) (A)
                 (A) (A) (A) (A) (A) (A) (A) (A) (A) (A) (A) (A)
                 (A) (A) (A) (A) (A) (A) (A) (A) (A) (A) (A) (A)
                 (A) (A) (A) (A) (A) (A) (A) (A) (A) (A) (A) (A)
                 (A) (A) (A) (A) (A) (A) (A) (A) (A) (A) (A) (A)
                 (A) (A) (A) (A) (A) (A) (A) (A) (A) (A) (A) (A)
                 (A) (A) (A) (A) (A) (A) (A) (A) (A) (A) (A) (A)
                 (A) (A) (A) (A) (A) (A) (A) (A) (A) (A) (A) (A)
                 (A) (A) (A) (A) (A) (A) (A) (A) (A) (A) (A) (A)
                 (A) (A) (A) (A) (A) (A) (A) (A) (A) (A) (A) (A)
                 (A) (A) (A) (A) (A) (A) (A) (A) (A) (A) (A) (A)
                 (A) (A) (A) (A) (A) (A) (A) (A) (A) (A) (A) (A)
                 (A) (A) (A) (A) (A) (A)
 The electronic state is 1-A.
 Alpha  occ. eigenvalues --  -19.14511 -19.14442 -19.12534 -19.10191 -19.02917
 Alpha  occ. eigenvalues --  -19.02862 -14.31154 -14.19717 -10.19366 -10.18140
 Alpha  occ. eigenvalues --  -10.18116 -10.17780 -10.17754 -10.17305 -10.16791
 Alpha  occ. eigenvalues --  -10.16645 -10.10682  -0.99575  -0.97069  -0.96208
 Alpha  occ. eigenvalues --   -0.93377  -0.93115  -0.90349  -0.84879  -0.72586
 Alpha  occ. eigenvalues --   -0.70984  -0.68951  -0.65424  -0.58920  -0.54088
 Alpha  occ. eigenvalues --   -0.52091  -0.50954  -0.49403  -0.45989  -0.45119
 Alpha  occ. eigenvalues --   -0.42547  -0.41218  -0.40021  -0.39058  -0.38567
 Alpha  occ. eigenvalues --   -0.35264  -0.34767  -0.33378  -0.32466  -0.32421
 Alpha  occ. eigenvalues --   -0.31553  -0.30487  -0.29661  -0.29319  -0.27516
 Alpha  occ. eigenvalues --   -0.25432  -0.25226  -0.23800  -0.23408  -0.22170
 Alpha  occ. eigenvalues --   -0.21519  -0.19218  -0.17534  -0.16897  -0.14127
 Alpha  occ. eigenvalues --   -0.11168  -0.11110  -0.09096  -0.08920
 Alpha virt. eigenvalues --    0.06751   0.08241   0.08385   0.10068   0.10335
 Alpha virt. eigenvalues --    0.11352   0.11486   0.12113   0.12587   0.13287
 Alpha virt. eigenvalues --    0.14078   0.14867   0.14992   0.15491   0.15844
 Alpha virt. eigenvalues --    0.16282   0.16575   0.17020   0.17404   0.17828
 Alpha virt. eigenvalues --    0.18440   0.18629   0.18804   0.19195   0.19974
 Alpha virt. eigenvalues --    0.19995   0.20319   0.20676   0.21107   0.21803
 Alpha virt. eigenvalues --    0.22123   0.22379   0.22573   0.22968   0.23254
 Alpha virt. eigenvalues --    0.24060   0.24406   0.24501   0.25126   0.25544
 Alpha virt. eigenvalues --    0.26169   0.26680   0.27113   0.27598   0.28091
 Alpha virt. eigenvalues --    0.28391   0.28823   0.29936   0.30036   0.30173
 Alpha virt. eigenvalues --    0.30853   0.31018   0.31245   0.31783   0.32002
 Alpha virt. eigenvalues --    0.32379   0.32902   0.33353   0.33450   0.33914
 Alpha virt. eigenvalues --    0.34306   0.35320   0.35374   0.35763   0.35906
 Alpha virt. eigenvalues --    0.36237   0.36514   0.36869   0.37164   0.37638
 Alpha virt. eigenvalues --    0.37737   0.38033   0.38300   0.38400   0.39133
 Alpha virt. eigenvalues --    0.39612   0.39648   0.40128   0.40917   0.41221
 Alpha virt. eigenvalues --    0.41586   0.41728   0.42249   0.42422   0.42760
 Alpha virt. eigenvalues --    0.43204   0.43729   0.43979   0.44707   0.44955
 Alpha virt. eigenvalues --    0.45405   0.46246   0.46486   0.46889   0.47370
 Alpha virt. eigenvalues --    0.48051   0.48246   0.48868   0.49261   0.49783
 Alpha virt. eigenvalues --    0.50092   0.51023   0.51157   0.51321   0.51956
 Alpha virt. eigenvalues --    0.52178   0.52770   0.53100   0.53712   0.54611
 Alpha virt. eigenvalues --    0.55348   0.55520   0.55840   0.56279   0.56445
 Alpha virt. eigenvalues --    0.57553   0.58108   0.58460   0.58897   0.59853
 Alpha virt. eigenvalues --    0.61096   0.61181   0.61764   0.62481   0.62605
 Alpha virt. eigenvalues --    0.63267   0.64131   0.64720   0.65147   0.66131
 Alpha virt. eigenvalues --    0.66626   0.67345   0.67632   0.67844   0.68043
 Alpha virt. eigenvalues --    0.68592   0.69791   0.70476   0.70777   0.71454
 Alpha virt. eigenvalues --    0.71783   0.72358   0.73055   0.73490   0.74005
 Alpha virt. eigenvalues --    0.74197   0.74427   0.75047   0.76108   0.76421
 Alpha virt. eigenvalues --    0.76776   0.76899   0.77338   0.77722   0.78349
 Alpha virt. eigenvalues --    0.79590   0.79941   0.80138   0.80749   0.81176
 Alpha virt. eigenvalues --    0.81418   0.81754   0.82300   0.83370   0.83736
 Alpha virt. eigenvalues --    0.84273   0.85049   0.86006   0.86449   0.86582
 Alpha virt. eigenvalues --    0.87542   0.87579   0.88500   0.89482   0.89754
 Alpha virt. eigenvalues --    0.90680   0.91970   0.92109   0.93352   0.93799
 Alpha virt. eigenvalues --    0.94290   0.94966   0.95536   0.95831   0.97268
 Alpha virt. eigenvalues --    0.97415   0.98107   0.98149   0.98411   1.00469
 Alpha virt. eigenvalues --    1.01118   1.01902   1.02126   1.02947   1.04593
 Alpha virt. eigenvalues --    1.04808   1.05556   1.06917   1.07418   1.08662
 Alpha virt. eigenvalues --    1.09470   1.10032   1.10466   1.11659   1.11984
 Alpha virt. eigenvalues --    1.12914   1.13390   1.14418   1.15060   1.17234
 Alpha virt. eigenvalues --    1.18432   1.19267   1.19610   1.20077   1.21517
 Alpha virt. eigenvalues --    1.21671   1.22570   1.22665   1.24796   1.25602
 Alpha virt. eigenvalues --    1.26120   1.26450   1.26894   1.27954   1.29390
 Alpha virt. eigenvalues --    1.30236   1.30939   1.31584   1.33168   1.34201
 Alpha virt. eigenvalues --    1.34479   1.35474   1.36415   1.37267   1.37636
 Alpha virt. eigenvalues --    1.39664   1.40509   1.41264   1.41380   1.43533
 Alpha virt. eigenvalues --    1.44219   1.45229   1.45700   1.46518   1.47379
 Alpha virt. eigenvalues --    1.48995   1.50017   1.50691   1.51550   1.52797
 Alpha virt. eigenvalues --    1.53224   1.53967   1.55307   1.55522   1.56882
 Alpha virt. eigenvalues --    1.57764   1.59389   1.60517   1.62992   1.63627
 Alpha virt. eigenvalues --    1.63790   1.64943   1.65538   1.67116   1.67615
 Alpha virt. eigenvalues --    1.68832   1.69023   1.69840   1.72013   1.72193
 Alpha virt. eigenvalues --    1.73421   1.73889   1.75733   1.76664   1.77573
 Alpha virt. eigenvalues --    1.78896   1.79676   1.80447   1.81815   1.82796
 Alpha virt. eigenvalues --    1.84171   1.85493   1.85672   1.87083   1.87202
 Alpha virt. eigenvalues --    1.88138   1.89234   1.89895   1.90424   1.91992
 Alpha virt. eigenvalues --    1.92993   1.94431   1.95995   1.96255   1.97217
 Alpha virt. eigenvalues --    1.97923   1.99312   2.00582   2.01256   2.01514
 Alpha virt. eigenvalues --    2.01620   2.03112   2.04237   2.05051   2.05482
 Alpha virt. eigenvalues --    2.08214   2.09367   2.10093   2.10731   2.11623
 Alpha virt. eigenvalues --    2.13226   2.14034   2.15507   2.16518   2.17862
 Alpha virt. eigenvalues --    2.20436   2.20966   2.21627   2.23012   2.23347
 Alpha virt. eigenvalues --    2.24369   2.24569   2.25776   2.26078   2.26280
 Alpha virt. eigenvalues --    2.28029   2.28189   2.31770   2.32134   2.33620
 Alpha virt. eigenvalues --    2.35139   2.36813   2.37401   2.38474   2.39717
 Alpha virt. eigenvalues --    2.40549   2.41417   2.41610   2.43914   2.45136
 Alpha virt. eigenvalues --    2.46347   2.48078   2.49297   2.52123   2.52564
 Alpha virt. eigenvalues --    2.53459   2.54546   2.55885   2.56717   2.58164
 Alpha virt. eigenvalues --    2.60613   2.61194   2.61797   2.63321   2.63957
 Alpha virt. eigenvalues --    2.65550   2.66852   2.69034   2.70339   2.70884
 Alpha virt. eigenvalues --    2.72284   2.74075   2.75711   2.76621   2.77771
 Alpha virt. eigenvalues --    2.80611   2.82655   2.83237   2.86720   2.88422
 Alpha virt. eigenvalues --    2.88731   2.90731   2.92642   2.95608   2.98205
 Alpha virt. eigenvalues --    2.99966   3.04457   3.04555   3.07779   3.09744
 Alpha virt. eigenvalues --    3.10620   3.15774   3.16931   3.21785   3.28330
 Alpha virt. eigenvalues --    3.33860   3.36883   3.40272   3.44197   3.46000
 Alpha virt. eigenvalues --    3.48570   3.53782   3.54216   3.55373   3.56688
 Alpha virt. eigenvalues --    3.59050   3.59863   3.60296   3.60477   3.61280
 Alpha virt. eigenvalues --    3.64482   3.66032   3.67809   3.68219   3.70372
 Alpha virt. eigenvalues --    3.71493   3.74100   3.75914   3.76695   3.77669
 Alpha virt. eigenvalues --    3.80754   3.83269   3.85489   3.86575   3.87825
 Alpha virt. eigenvalues --    3.90566   3.93454   4.00355   4.04304   4.08185
 Alpha virt. eigenvalues --    4.10267   4.14053   4.15798   4.21216   4.34790
 Alpha virt. eigenvalues --    5.32478
          Condensed to atoms (all electrons):
               1          2          3          4          5          6
     1  C    8.016281  -2.488904   1.138029   0.239966   0.596936   0.093256
     2  C   -2.488904  10.146760  -4.064047  -0.592226  -0.843289   0.087727
     3  C    1.138029  -4.064047  20.377697   0.191939  -0.217312  -0.476679
     4  O    0.239966  -0.592226   0.191939   8.735194  -0.069545   0.016277
     5  H    0.596936  -0.843289  -0.217312  -0.069545   2.204201   0.025537
     6  O    0.093256   0.087727  -0.476679   0.016277   0.025537   9.450816
     7  H   -0.008309   0.513871  -1.502686  -0.032859   0.087737  -0.089979
     8  C   -0.031497   0.832196  -4.355892   0.010186  -0.174548  -0.058264
     9  C   -1.696684   1.526848  -3.322165  -0.008901   0.010294  -0.226119
    10  H   -0.542520   0.371958   0.077839  -0.027872  -0.241402   0.068154
    11  O   -0.405950   0.071691   0.036679  -0.024189   0.043699  -0.027432
    12  C    0.058870  -0.203584   0.492166   0.011873   0.006624  -0.010874
    13  H    0.319423  -0.054889   0.145272  -0.002321  -0.013317  -0.091614
    14  O   -0.072095   0.020080  -0.017582  -0.000556  -0.006545  -0.036480
    15  H   -0.009692   0.069973  -0.019645   0.000431   0.005859   0.101062
    16  H   -0.033301  -0.031127   0.006832   0.000451  -0.001831  -0.072879
    17  H   -0.117425  -0.014745   0.025083  -0.011631   0.001610   0.007037
    18  H   -0.114334   0.185065  -0.060912   0.291496  -0.099348   0.001549
    19  H   -0.010061   0.012408  -0.059757  -0.000499   0.002194   0.038744
    20  C    0.128561  -0.359801  -1.419958  -0.010444   0.052954   0.038084
    21  N   -0.003386  -0.011592   0.138457  -0.000558  -0.004663  -0.019000
    22  C    0.002523  -0.001533  -0.445373   0.003024   0.002071  -0.008540
    23  N   -0.029045   0.018627   0.511890   0.000152   0.005974   0.001608
    24  C    0.087995  -0.090391  -2.486935  -0.022767   0.009801   0.071680
    25  H   -0.024726   0.156161   0.068087  -0.006909   0.015194   0.051372
    26  H    0.003544  -0.009933  -0.055796   0.000210  -0.001115  -0.001576
    27  O    0.000082  -0.000170   0.027779  -0.000024  -0.000145   0.000096
    28  O   -0.005627   0.056540   0.017228  -0.001511   0.038116  -0.018580
               7          8          9         10         11         12
     1  C   -0.008309  -0.031497  -1.696684  -0.542520  -0.405950   0.058870
     2  C    0.513871   0.832196   1.526848   0.371958   0.071691  -0.203584
     3  C   -1.502686  -4.355892  -3.322165   0.077839   0.036679   0.492166
     4  O   -0.032859   0.010186  -0.008901  -0.027872  -0.024189   0.011873
     5  H    0.087737  -0.174548   0.010294  -0.241402   0.043699   0.006624
     6  O   -0.089979  -0.058264  -0.226119   0.068154  -0.027432  -0.010874
     7  H    2.256969   0.377352   0.123463  -0.013101   0.004120  -0.011130
     8  C    0.377352  14.208365   0.570540  -0.060311  -0.028342  -0.251797
     9  C    0.123463   0.570540  10.053141  -0.341428   0.204061  -0.421257
    10  H   -0.013101  -0.060311  -0.341428   2.265112  -0.241103  -0.030678
    11  O    0.004120  -0.028342   0.204061  -0.241103   8.701229   0.015922
    12  C   -0.011130  -0.251797  -0.421257  -0.030678   0.015922   4.956845
    13  H    0.027683  -0.015468  -1.093435   0.092925  -0.064289  -0.002210
    14  O    0.000311   0.007888   0.050126   0.019791   0.003448   0.078263
    15  H   -0.002050   0.001258  -0.171776  -0.028168   0.011481   0.139987
    16  H   -0.001958   0.015332   0.324067   0.022235   0.000168   0.083072
    17  H   -0.006342  -0.016011   0.001363   0.042228   0.291478   0.008373
    18  H   -0.010999   0.018284  -0.000229   0.023566  -0.019741  -0.005978
    19  H    0.001793   0.035782  -0.006877  -0.011420  -0.000746  -0.047401
    20  C    0.036547  -4.221560  -0.073141  -0.000990   0.000529  -0.084326
    21  N    0.000804   0.194528  -0.004248   0.000193  -0.000153   0.005788
    22  C    0.006226   0.551003   0.003361   0.000113  -0.000027  -0.006214
    23  N    0.006897   0.342006   0.021414  -0.008553   0.000689   0.008059
    24  C   -0.108297  -3.277195  -0.162959   0.037945  -0.006408   0.014756
    25  H   -0.066345   0.311221   0.062784  -0.002780  -0.000245  -0.001156
    26  H   -0.002713   0.041574  -0.003705   0.000491  -0.000026   0.000133
    27  O    0.001059   0.061855  -0.000122   0.000095  -0.000000   0.000172
    28  O    0.014907  -0.026078   0.016506  -0.013354   0.003258   0.005712
              13         14         15         16         17         18
     1  C    0.319423  -0.072095  -0.009692  -0.033301  -0.117425  -0.114334
     2  C   -0.054889   0.020080   0.069973  -0.031127  -0.014745   0.185065
     3  C    0.145272  -0.017582  -0.019645   0.006832   0.025083  -0.060912
     4  O   -0.002321  -0.000556   0.000431   0.000451  -0.011631   0.291496
     5  H   -0.013317  -0.006545   0.005859  -0.001831   0.001610  -0.099348
     6  O   -0.091614  -0.036480   0.101062  -0.072879   0.007037   0.001549
     7  H    0.027683   0.000311  -0.002050  -0.001958  -0.006342  -0.010999
     8  C   -0.015468   0.007888   0.001258   0.015332  -0.016011   0.018284
     9  C   -1.093435   0.050126  -0.171776   0.324067   0.001363  -0.000229
    10  H    0.092925   0.019791  -0.028168   0.022235   0.042228   0.023566
    11  O   -0.064289   0.003448   0.011481   0.000168   0.291478  -0.019741
    12  C   -0.002210   0.078263   0.139987   0.083072   0.008373  -0.005978
    13  H    2.369709   0.023548  -0.075976  -0.027101  -0.009545   0.007647
    14  O    0.023548   8.420017  -0.132804  -0.045396  -0.002481   0.000845
    15  H   -0.075976  -0.132804   1.670545  -0.324787   0.005869  -0.000775
    16  H   -0.027101  -0.045396  -0.324787   1.378417  -0.001446  -0.000300
    17  H   -0.009545  -0.002481   0.005869  -0.001446   0.728576   0.023518
    18  H    0.007647   0.000845  -0.000775  -0.000300   0.023518   0.676055
    19  H    0.001349   0.242143   0.024926  -0.041496   0.000747   0.000088
    20  C    0.017906  -0.000619  -0.004941   0.000865  -0.001641  -0.002741
    21  N   -0.001310   0.000070   0.000202   0.000378   0.000098  -0.000374
    22  C    0.000820  -0.000664  -0.000376  -0.000005  -0.000158   0.000091
    23  N   -0.000538  -0.003262   0.000380   0.000647  -0.000054  -0.000087
    24  C    0.010065   0.006601  -0.007406  -0.004558   0.002068  -0.000257
    25  H    0.003960  -0.000387   0.000490  -0.000086  -0.000232   0.001723
    26  H   -0.000007   0.000013  -0.000029   0.000049   0.000014  -0.000033
    27  O   -0.000055   0.000010   0.000013  -0.000004   0.000004  -0.000005
    28  O    0.003947  -0.016575   0.003165  -0.002221  -0.001060  -0.000456
              19         20         21         22         23         24
     1  C   -0.010061   0.128561  -0.003386   0.002523  -0.029045   0.087995
     2  C    0.012408  -0.359801  -0.011592  -0.001533   0.018627  -0.090391
     3  C   -0.059757  -1.419958   0.138457  -0.445373   0.511890  -2.486935
     4  O   -0.000499  -0.010444  -0.000558   0.003024   0.000152  -0.022767
     5  H    0.002194   0.052954  -0.004663   0.002071   0.005974   0.009801
     6  O    0.038744   0.038084  -0.019000  -0.008540   0.001608   0.071680
     7  H    0.001793   0.036547   0.000804   0.006226   0.006897  -0.108297
     8  C    0.035782  -4.221560   0.194528   0.551003   0.342006  -3.277195
     9  C   -0.006877  -0.073141  -0.004248   0.003361   0.021414  -0.162959
    10  H   -0.011420  -0.000990   0.000193   0.000113  -0.008553   0.037945
    11  O   -0.000746   0.000529  -0.000153  -0.000027   0.000689  -0.006408
    12  C   -0.047401  -0.084326   0.005788  -0.006214   0.008059   0.014756
    13  H    0.001349   0.017906  -0.001310   0.000820  -0.000538   0.010065
    14  O    0.242143  -0.000619   0.000070  -0.000664  -0.003262   0.006601
    15  H    0.024926  -0.004941   0.000202  -0.000376   0.000380  -0.007406
    16  H   -0.041496   0.000865   0.000378  -0.000005   0.000647  -0.004558
    17  H    0.000747  -0.001641   0.000098  -0.000158  -0.000054   0.002068
    18  H    0.000088  -0.002741  -0.000374   0.000091  -0.000087  -0.000257
    19  H    0.590414   0.003294   0.000077   0.001819   0.003705  -0.025464
    20  C    0.003294  14.824398  -0.835369  -0.564240   0.082171  -1.232073
    21  N    0.000077  -0.835369   7.383665  -0.058223   0.031082   0.195928
    22  C    0.001819  -0.564240  -0.058223   6.361029  -0.086392  -0.346588
    23  N    0.003705   0.082171   0.031082  -0.086392   8.525189  -1.360445
    24  C   -0.025464  -1.232073   0.195928  -0.346588  -1.360445  14.284649
    25  H    0.000755  -1.126520   0.153971  -0.002486   0.005153  -0.013193
    26  H   -0.000294  -0.243039   0.433108  -0.197569   0.001237   0.040298
    27  O    0.000005  -0.032348  -0.090291   0.106970  -0.119414   0.061830
    28  O    0.042197  -0.107585  -0.001892   0.041317  -0.195050   0.060094
              25         26         27         28
     1  C   -0.024726   0.003544   0.000082  -0.005627
     2  C    0.156161  -0.009933  -0.000170   0.056540
     3  C    0.068087  -0.055796   0.027779   0.017228
     4  O   -0.006909   0.000210  -0.000024  -0.001511
     5  H    0.015194  -0.001115  -0.000145   0.038116
     6  O    0.051372  -0.001576   0.000096  -0.018580
     7  H   -0.066345  -0.002713   0.001059   0.014907
     8  C    0.311221   0.041574   0.061855  -0.026078
     9  C    0.062784  -0.003705  -0.000122   0.016506
    10  H   -0.002780   0.000491   0.000095  -0.013354
    11  O   -0.000245  -0.000026  -0.000000   0.003258
    12  C   -0.001156   0.000133   0.000172   0.005712
    13  H    0.003960  -0.000007  -0.000055   0.003947
    14  O   -0.000387   0.000013   0.000010  -0.016575
    15  H    0.000490  -0.000029   0.000013   0.003165
    16  H   -0.000086   0.000049  -0.000004  -0.002221
    17  H   -0.000232   0.000014   0.000004  -0.001060
    18  H    0.001723  -0.000033  -0.000005  -0.000456
    19  H    0.000755  -0.000294   0.000005   0.042197
    20  C   -1.126520  -0.243039  -0.032348  -0.107585
    21  N    0.153971   0.433108  -0.090291  -0.001892
    22  C   -0.002486  -0.197569   0.106970   0.041317
    23  N    0.005153   0.001237  -0.119414  -0.195050
    24  C   -0.013193   0.040298   0.061830   0.060094
    25  H    2.226182  -0.057845  -0.000362  -0.001508
    26  H   -0.057845   1.179770  -0.009181   0.001507
    27  O   -0.000362  -0.009181   8.690228  -0.005668
    28  O   -0.001508   0.001507  -0.005668   8.890649
 Mulliken charges:
               1
     1  C    0.908091
     2  C    0.696327
     3  C    1.249764
     4  O   -0.688389
     5  H   -0.435741
     6  O   -0.914982
     7  H   -0.602969
     8  C    0.937593
     9  C    0.565079
    10  H   -0.458965
    11  O   -0.569800
    12  C    1.189992
    13  H   -0.572180
    14  O   -0.537707
    15  H   -0.257214
    16  H   -0.244015
    17  H    0.044703
    18  H    0.086640
    19  H    0.201575
    20  C    1.136028
    21  N   -0.507289
    22  C    0.638018
    23  N   -0.764040
    24  C    0.261225
    25  H   -0.752274
    26  H   -0.119083
    27  O   -0.692408
    28  O   -0.797980
 Sum of Mulliken charges =  -1.00000
 Mulliken charges with hydrogens summed into heavy atoms:
               1
     1  C    0.449126
     2  C    0.260587
     3  C    0.646795
     4  O   -0.601749
     6  O   -0.914982
     8  C    0.937593
     9  C   -0.007101
    11  O   -0.525097
    12  C    0.688763
    14  O   -0.336132
    20  C    0.383754
    21  N   -0.626372
    22  C    0.638018
    23  N   -0.764040
    24  C    0.261225
    27  O   -0.692408
    28  O   -0.797980
 Electronic spatial extent (au):  <R**2>=           4297.3655
 Charge=             -1.0000 electrons
 Dipole moment (field-independent basis, Debye):
    X=              8.7714    Y=             -7.9611    Z=              4.7242  Tot=             12.7528
 Quadrupole moment (field-independent basis, Debye-Ang):
   XX=           -157.6477   YY=           -115.1473   ZZ=           -106.0875
   XY=              9.8418   XZ=             -9.5712   YZ=              6.5179
 Traceless Quadrupole moment (field-independent basis, Debye-Ang):
   XX=            -31.3535   YY=             11.1468   ZZ=             20.2067
   XY=              9.8418   XZ=             -9.5712   YZ=              6.5179
 Octapole moment (field-independent basis, Debye-Ang**2):
  XXX=            250.3283  YYY=            -33.7816  ZZZ=             -0.5446  XYY=              1.9155
  XXY=            -82.4719  XXZ=             71.1740  XZZ=              7.1250  YZZ=            -16.0922
  YYZ=              6.0570  XYZ=              2.2327
 Hexadecapole moment (field-independent basis, Debye-Ang**3):
 XXXX=          -5373.0839 YYYY=          -1222.4484 ZZZZ=           -491.7349 XXXY=            208.8971
 XXXZ=           -137.8216 YYYX=            -67.5239 YYYZ=             47.9653 ZZZX=            -28.0797
 ZZZY=             15.0963 XXYY=           -866.6294 XXZZ=           -779.6124 YYZZ=           -249.5932
 XXYZ=             16.3236 YYXZ=            -47.5263 ZZXY=             17.0965
 N-N= 1.298194411105D+03 E-N=-4.746507816312D+03  KE= 9.049186711666D+02
 Calling FoFJK, ICntrl=      2127 FMM=F ISym2X=0 I1Cent= 0 IOpClX= 0 NMat=1 NMatS=1 NMatT=0.
 ***** Axes restored to original set *****
 -------------------------------------------------------------------
 Center     Atomic                   Forces (Hartrees/Bohr)
 Number     Number              X              Y              Z
 -------------------------------------------------------------------
      1        6          -0.004750760    0.000649118    0.000128247
      2        6          -0.002090823    0.006688482    0.000809483
      3        6          -0.010241271   -0.003968646   -0.001565495
      4        8           0.004499436   -0.005665206    0.000013482
      5        1          -0.000181927    0.000719179    0.001281393
      6        8           0.010769972    0.002291278    0.001421296
      7        1           0.002189627   -0.001025501    0.001309139
      8        6           0.012179155   -0.003639769    0.002228163
      9        6          -0.007493436    0.000164275    0.000938844
     10        1          -0.001177942   -0.000268999    0.000526623
     11        8           0.006836959   -0.001959251   -0.001250338
     12        6          -0.002164551    0.001103290   -0.002978591
     13        1           0.001912625   -0.001118704    0.000698247
     14        8           0.006000147    0.001163525    0.003086516
     15        1           0.001217561    0.000130989   -0.000111927
     16        1          -0.000161398    0.000020785    0.001096082
     17        1          -0.001526424    0.000211856    0.000084169
     18        1          -0.000847194    0.000869407    0.000052921
     19        1          -0.006863450   -0.003293643   -0.003369823
     20        6          -0.005194586   -0.000912797    0.000696050
     21        7          -0.004944297   -0.018656453    0.015230187
     22        6           0.072981095    0.026986287   -0.022988201
     23        7           0.001326856    0.004275791   -0.003859763
     24        6          -0.077472155   -0.007248412    0.007486415
     25        1           0.000209961   -0.001142881    0.000916491
     26        1           0.001972112   -0.003208045    0.002530757
     27        8          -0.032774921   -0.004678955    0.004248223
     28        8           0.035789628    0.011513001   -0.008658589
 -------------------------------------------------------------------
 Cartesian Forces:  Max     0.077472155 RMS     0.014137158

 GradGradGradGradGradGradGradGradGradGradGradGradGradGradGradGradGradGrad
 Berny optimization.
 FormGI is forming the generalized inverse of G from B-inverse, IUseBI=4.
 Internal  Forces:  Max     0.034972929 RMS     0.006960901
 Search for a local minimum.
 Step number   1 out of a maximum of  166
 All quantities printed in internal units (Hartrees-Bohrs-Radians)
 Mixed Optimization -- RFO/linear search
 Second derivative matrix not updated -- first step.
 ITU=  0
     Eigenvalues ---    0.00336   0.00561   0.00829   0.00922   0.01432
     Eigenvalues ---    0.01440   0.01532   0.01590   0.01590   0.01687
     Eigenvalues ---    0.01922   0.01936   0.02026   0.02283   0.02472
     Eigenvalues ---    0.03048   0.03622   0.04319   0.04879   0.04977
     Eigenvalues ---    0.04983   0.05136   0.05473   0.06062   0.06098
     Eigenvalues ---    0.06171   0.06510   0.08013   0.08352   0.10573
     Eigenvalues ---    0.11619   0.13520   0.13990   0.15968   0.15999
     Eigenvalues ---    0.16000   0.16000   0.16000   0.16000   0.17289
     Eigenvalues ---    0.19401   0.19541   0.22083   0.22442   0.24448
     Eigenvalues ---    0.24997   0.24999   0.25000   0.25000   0.26566
     Eigenvalues ---    0.27333   0.28788   0.30804   0.32764   0.32884
     Eigenvalues ---    0.33193   0.33293   0.33749   0.33799   0.34267
     Eigenvalues ---    0.34880   0.36125   0.39702   0.40285   0.42606
     Eigenvalues ---    0.44250   0.44369   0.44373   0.46034   0.46596
     Eigenvalues ---    0.48166   0.50484   0.53532   0.53823   0.54508
     Eigenvalues ---    0.54709   0.94178   0.98081
 RFO step:  Lambda=-2.09483835D-02 EMin= 3.35937056D-03
 Linear search not attempted -- first point.
 Iteration  1 RMS(Cart)=  0.08802544 RMS(Int)=  0.00257087
 Iteration  2 RMS(Cart)=  0.00405655 RMS(Int)=  0.00011183
 Iteration  3 RMS(Cart)=  0.00001101 RMS(Int)=  0.00011163
 Iteration  4 RMS(Cart)=  0.00000000 RMS(Int)=  0.00011163
 Variable       Old X    -DE/DX   Delta X   Delta X   Delta X     New X
                                 (Linear)    (Quad)   (Total)
    R1        2.91816  -0.00187   0.00000  -0.00756  -0.00755   2.91061
    R2        2.89415  -0.00086   0.00000  -0.00357  -0.00356   2.89059
    R3        2.06882  -0.00030   0.00000  -0.00081  -0.00081   2.06800
    R4        2.66010   0.00566   0.00000   0.01219   0.01219   2.67229
    R5        2.90903  -0.00067   0.00000  -0.00109  -0.00107   2.90796
    R6        2.68159   0.00568   0.00000   0.01271   0.01271   2.69430
    R7        2.07671  -0.00094   0.00000  -0.00263  -0.00263   2.07409
    R8        2.68866   0.00296   0.00000   0.00804   0.00804   2.69669
    R9        2.08540   0.00166   0.00000   0.00469   0.00469   2.09009
   R10        2.82556  -0.00268   0.00000  -0.00765  -0.00765   2.81791
   R11        1.82092  -0.00071   0.00000  -0.00125  -0.00125   1.81967
   R12        2.68782  -0.00701   0.00000  -0.01632  -0.01637   2.67145
   R13        2.55508  -0.00532   0.00000  -0.00845  -0.00850   2.54658
   R14        2.75742   0.01333   0.00000   0.03302   0.03298   2.79040
   R15        2.86388  -0.00151   0.00000  -0.00458  -0.00458   2.85930
   R16        2.09468   0.00217   0.00000   0.00621   0.00621   2.10090
   R17        1.82272  -0.00045   0.00000  -0.00080  -0.00080   1.82192
   R18        2.66015  -0.00062   0.00000  -0.00134  -0.00134   2.65881
   R19        2.07756   0.00121   0.00000   0.00339   0.00339   2.08095
   R20        2.08713   0.00106   0.00000   0.00301   0.00301   2.09014
   R21        1.82893   0.00768   0.00000   0.01374   0.01374   1.84267
   R22        2.58504  -0.01279   0.00000  -0.02222  -0.02224   2.56280
   R23        2.05870   0.00148   0.00000   0.00400   0.00400   2.06270
   R24        2.61552   0.02311   0.00000   0.04670   0.04674   2.66226
   R25        1.90793   0.00119   0.00000   0.00247   0.00247   1.91040
   R26        2.60697  -0.01864   0.00000  -0.03742  -0.03736   2.56961
   R27        2.29417   0.02946   0.00000   0.02941   0.02941   2.32358
   R28        2.63458  -0.02289   0.00000  -0.04888  -0.04886   2.58571
   R29        2.31065   0.03497   0.00000   0.03633   0.03633   2.34698
    A1        1.81183  -0.00032   0.00000   0.00009   0.00004   1.81187
    A2        1.91145  -0.00089   0.00000  -0.01245  -0.01249   1.89896
    A3        1.98176   0.00096   0.00000   0.00835   0.00840   1.99016
    A4        1.90618  -0.00053   0.00000  -0.00475  -0.00470   1.90148
    A5        1.99070   0.00001   0.00000  -0.00161  -0.00170   1.98900
    A6        1.86108   0.00064   0.00000   0.00888   0.00890   1.86998
    A7        1.81877  -0.00003   0.00000   0.00618   0.00615   1.82492
    A8        1.95152  -0.00072   0.00000  -0.00446  -0.00464   1.94688
    A9        1.94143  -0.00042   0.00000  -0.00904  -0.00899   1.93244
   A10        1.87169   0.00163   0.00000   0.01665   0.01675   1.88844
   A11        1.95146  -0.00068   0.00000  -0.01244  -0.01253   1.93893
   A12        1.92571   0.00026   0.00000   0.00376   0.00378   1.92950
   A13        1.87717  -0.00106   0.00000  -0.00804  -0.00836   1.86881
   A14        1.85857  -0.00028   0.00000  -0.00013   0.00000   1.85858
   A15        2.01453  -0.00211   0.00000  -0.01727  -0.01749   1.99704
   A16        1.91788  -0.00014   0.00000   0.00238   0.00247   1.92036
   A17        1.89290   0.00020   0.00000  -0.01306  -0.01344   1.87946
   A18        1.90157   0.00338   0.00000   0.03648   0.03657   1.93814
   A19        1.87303  -0.00166   0.00000  -0.00917  -0.00917   1.86385
   A20        1.92130   0.00002   0.00000   0.01077   0.01075   1.93205
   A21        2.13725   0.00028   0.00000   0.00014   0.00019   2.13744
   A22        2.08028  -0.00244   0.00000  -0.00991  -0.00986   2.07042
   A23        2.06557   0.00217   0.00000   0.00974   0.00964   2.07520
   A24        1.84085   0.00167   0.00000   0.00643   0.00615   1.84700
   A25        2.00180  -0.00193   0.00000  -0.01450  -0.01451   1.98729
   A26        1.91034   0.00003   0.00000   0.00488   0.00486   1.91519
   A27        1.87600  -0.00227   0.00000  -0.01934  -0.01936   1.85664
   A28        1.92373   0.00035   0.00000   0.00468   0.00472   1.92845
   A29        1.90931   0.00212   0.00000   0.01733   0.01741   1.92672
   A30        1.87509  -0.00250   0.00000  -0.01379  -0.01379   1.86130
   A31        1.96622  -0.00349   0.00000  -0.01517  -0.01518   1.95104
   A32        1.89913   0.00188   0.00000   0.01020   0.01022   1.90935
   A33        1.89151  -0.00039   0.00000  -0.00511  -0.00512   1.88639
   A34        1.87534   0.00046   0.00000   0.00073   0.00077   1.87611
   A35        1.94318   0.00197   0.00000   0.00874   0.00867   1.95185
   A36        1.88647  -0.00029   0.00000   0.00146   0.00146   1.88793
   A37        1.89432   0.00247   0.00000   0.01367   0.01367   1.90799
   A38        2.13776  -0.01081   0.00000  -0.03767  -0.03776   2.10000
   A39        2.12629   0.00540   0.00000   0.01880   0.01885   2.14513
   A40        2.01913   0.00541   0.00000   0.01886   0.01890   2.03804
   A41        2.15716  -0.00552   0.00000  -0.01608  -0.01608   2.14108
   A42        2.11700  -0.00142   0.00000  -0.01502  -0.01502   2.10198
   A43        2.00897   0.00694   0.00000   0.03114   0.03113   2.04010
   A44        1.97248   0.02120   0.00000   0.07924   0.07933   2.05180
   A45        2.14695  -0.02860   0.00000  -0.10606  -0.10611   2.04084
   A46        2.16376   0.00740   0.00000   0.02682   0.02677   2.19053
   A47        2.23248  -0.02405   0.00000  -0.09430  -0.09419   2.13829
   A48        2.00082   0.01701   0.00000   0.05900   0.05894   2.05976
   A49        2.18907  -0.02728   0.00000  -0.09874  -0.09876   2.09031
   A50        2.09328   0.01027   0.00000   0.03983   0.03981   2.13309
    D1        0.30417  -0.00019   0.00000   0.00229   0.00246   0.30662
    D2       -1.71184  -0.00175   0.00000  -0.01867  -0.01855  -1.73038
    D3        2.40964  -0.00124   0.00000  -0.01358  -0.01349   2.39615
    D4       -1.72974   0.00098   0.00000   0.01334   0.01339  -1.71635
    D5        2.53745  -0.00057   0.00000  -0.00762  -0.00761   2.52983
    D6        0.37574  -0.00007   0.00000  -0.00253  -0.00255   0.37318
    D7        2.47546   0.00017   0.00000   0.00533   0.00541   2.48087
    D8        0.45946  -0.00139   0.00000  -0.01563  -0.01559   0.44387
    D9       -1.70225  -0.00088   0.00000  -0.01055  -0.01053  -1.71278
   D10       -0.49938  -0.00023   0.00000   0.01709   0.01710  -0.48228
   D11       -2.55999   0.00253   0.00000   0.04477   0.04477  -2.51522
   D12        1.56995   0.00112   0.00000   0.02863   0.02863   1.59858
   D13        1.53821  -0.00166   0.00000   0.00068   0.00070   1.53891
   D14       -0.52240   0.00110   0.00000   0.02835   0.02837  -0.49403
   D15       -2.67564  -0.00031   0.00000   0.01221   0.01223  -2.66341
   D16       -2.66489  -0.00120   0.00000   0.00758   0.00760  -2.65728
   D17        1.55769   0.00156   0.00000   0.03525   0.03528   1.59297
   D18       -0.59555   0.00015   0.00000   0.01911   0.01913  -0.57642
   D19       -1.07128   0.00019   0.00000   0.00546   0.00550  -1.06578
   D20        0.99984   0.00049   0.00000   0.01062   0.01059   1.01043
   D21        3.10530   0.00028   0.00000   0.00986   0.00984   3.11514
   D22       -0.01143  -0.00082   0.00000  -0.02292  -0.02288  -0.03431
   D23       -2.06666   0.00002   0.00000  -0.02160  -0.02159  -2.08825
   D24        2.10388  -0.00274   0.00000  -0.05710  -0.05702   2.04685
   D25        2.05993  -0.00091   0.00000  -0.01735  -0.01726   2.04267
   D26        0.00470  -0.00007   0.00000  -0.01602  -0.01596  -0.01127
   D27       -2.10795  -0.00284   0.00000  -0.05152  -0.05140  -2.15935
   D28       -2.11017   0.00006   0.00000  -0.00931  -0.00930  -2.11947
   D29        2.11778   0.00090   0.00000  -0.00799  -0.00801   2.10978
   D30        0.00514  -0.00186   0.00000  -0.04349  -0.04344  -0.03831
   D31       -1.19951   0.00025   0.00000   0.00269   0.00270  -1.19681
   D32        3.10026  -0.00028   0.00000  -0.01193  -0.01191   3.08836
   D33        0.97101  -0.00063   0.00000  -0.00948  -0.00951   0.96151
   D34       -0.32003   0.00083   0.00000   0.03441   0.03440  -0.28563
   D35        1.69635  -0.00016   0.00000   0.03107   0.03108   1.72743
   D36       -2.50988   0.00397   0.00000   0.06886   0.06880  -2.44108
   D37        2.10611   0.00053   0.00000  -0.00510  -0.00525   2.10086
   D38       -1.04985   0.00043   0.00000  -0.00787  -0.00792  -1.05777
   D39       -2.07029  -0.00212   0.00000  -0.03689  -0.03687  -2.10716
   D40        1.05694  -0.00221   0.00000  -0.03966  -0.03954   1.01740
   D41        0.01691  -0.00021   0.00000  -0.02054  -0.02056  -0.00365
   D42       -3.13905  -0.00031   0.00000  -0.02331  -0.02323   3.12091
   D43        0.52023  -0.00051   0.00000  -0.03128  -0.03138   0.48884
   D44        2.66349  -0.00306   0.00000  -0.05507  -0.05515   2.60834
   D45       -1.54014  -0.00167   0.00000  -0.04306  -0.04312  -1.58326
   D46       -3.13899   0.00010   0.00000   0.00413   0.00412  -3.13487
   D47       -0.00081  -0.00001   0.00000   0.00048   0.00037  -0.00045
   D48        0.01685   0.00023   0.00000   0.00704   0.00695   0.02380
   D49       -3.12816   0.00013   0.00000   0.00338   0.00320  -3.12496
   D50       -3.13815  -0.00028   0.00000  -0.00624  -0.00649   3.13855
   D51        0.01082  -0.00082   0.00000  -0.02136  -0.02108  -0.01026
   D52       -0.01033  -0.00039   0.00000  -0.00897  -0.00913  -0.01946
   D53        3.13864  -0.00092   0.00000  -0.02409  -0.02373   3.11491
   D54        0.89646  -0.00088   0.00000  -0.02674  -0.02666   0.86980
   D55       -1.18124  -0.00053   0.00000  -0.02503  -0.02491  -1.20614
   D56        3.05454  -0.00101   0.00000  -0.02954  -0.02940   3.02514
   D57       -1.14416  -0.00030   0.00000  -0.01319  -0.01335  -1.15751
   D58        3.06133   0.00005   0.00000  -0.01148  -0.01159   3.04974
   D59        1.01392  -0.00042   0.00000  -0.01599  -0.01609   0.99783
   D60        3.05025  -0.00059   0.00000  -0.01726  -0.01728   3.03297
   D61        0.97256  -0.00024   0.00000  -0.01555  -0.01553   0.95703
   D62       -1.07485  -0.00071   0.00000  -0.02006  -0.02002  -1.09487
   D63        0.65444  -0.00238   0.00000  -0.05074  -0.05078   0.60366
   D64        2.74594  -0.00185   0.00000  -0.04674  -0.04674   2.69920
   D65       -1.47471  -0.00081   0.00000  -0.03958  -0.03954  -1.51425
   D66       -0.01350   0.00004   0.00000   0.00108   0.00079  -0.01271
   D67        3.13934  -0.00010   0.00000  -0.00277  -0.00295   3.13639
   D68        3.13131   0.00015   0.00000   0.00451   0.00431   3.13562
   D69        0.00097   0.00000   0.00000   0.00067   0.00056   0.00154
   D70        0.00300  -0.00021   0.00000  -0.00653  -0.00671  -0.00371
   D71       -3.13825  -0.00007   0.00000  -0.00240  -0.00250  -3.14075
   D72        3.13397  -0.00012   0.00000  -0.00315  -0.00335   3.13062
   D73       -0.00728   0.00002   0.00000   0.00097   0.00086  -0.00642
   D74        0.00319   0.00015   0.00000   0.00438   0.00463   0.00782
   D75       -3.13875   0.00001   0.00000   0.00017  -0.00001  -3.13876
   D76        0.00049   0.00012   0.00000   0.00306   0.00289   0.00338
   D77        3.13515   0.00044   0.00000   0.01662   0.01724  -3.13080
         Item               Value     Threshold  Converged?
 Maximum Force            0.034973     0.000450     NO 
 RMS     Force            0.006961     0.000300     NO 
 Maximum Displacement     0.353702     0.001800     NO 
 RMS     Displacement     0.090022     0.001200     NO 
 Predicted change in Energy=-1.158744D-02
 GradGradGradGradGradGradGradGradGradGradGradGradGradGradGradGradGradGrad

                          Input orientation:                          
 ---------------------------------------------------------------------
 Center     Atomic      Atomic             Coordinates (Angstroms)
 Number     Number       Type             X           Y           Z
 ---------------------------------------------------------------------
      1          6           0        2.356198   -0.267503   -0.615898
      2          6           0        1.223591   -1.310056   -0.565090
      3          6           0        0.411628   -0.938409    0.688138
      4          8           0        1.734069   -2.629705   -0.389794
      5          1           0        0.603183   -1.253793   -1.468729
      6          8           0        1.066517    0.173628    1.297158
      7          1           0        0.451853   -1.816113    1.359940
      8          6           0       -0.998403   -0.538704    0.413081
      9          6           0        2.382260    0.312666    0.799203
     10          1           0        2.076564    0.523110   -1.318972
     11          8           0        3.598731   -0.787684   -1.046293
     12          6           0        2.703374    1.790436    0.849098
     13          1           0        3.098575   -0.260833    1.426876
     14          8           0        1.904833    2.528775   -0.043533
     15          1           0        3.754331    1.946314    0.559599
     16          1           0        2.578619    2.133802    1.893078
     17          1           0        3.849710   -1.466207   -0.409002
     18          1           0        2.196161   -2.859484   -1.202754
     19          1           0        1.018452    2.125381   -0.092737
     20          6           0       -2.051908   -1.196799    0.935611
     21          7           0       -3.317001   -0.800271    0.650094
     22          6           0       -3.599331    0.304896   -0.176724
     23          7           0       -2.544392    0.988903   -0.694639
     24          6           0       -1.245846    0.635408   -0.447517
     25          1           0       -1.944268   -2.062518    1.591655
     26          1           0       -4.108621   -1.295469    1.037546
     27          8           0       -4.784892    0.571562   -0.364374
     28          8           0       -0.286314    1.270896   -0.914354
 ---------------------------------------------------------------------
                    Distance matrix (angstroms):
                    1          2          3          4          5
     1  C    0.000000
     2  C    1.540226   0.000000
     3  C    2.435565   1.538826   0.000000
     4  O    2.453195   1.425760   2.402347   0.000000
     5  H    2.184754   1.097559   2.188204   2.082340   0.000000
     6  O    2.348969   2.386201   1.427028   3.339178   3.146798
     7  H    3.150977   2.134809   1.106029   2.316804   2.887987
     8  C    3.519331   2.547363   1.491176   3.533171   2.572477
     9  C    1.529636   2.415996   2.336860   3.239046   3.280614
    10  H    1.094339   2.157869   2.989405   3.304681   2.313150
    11  O    1.414113   2.479057   3.631611   2.702036   3.060886
    12  C    2.549875   3.715204   3.567156   4.691701   4.364683
    13  H    2.173498   2.929908   2.867843   3.282335   3.949365
    14  O    2.889724   3.933540   3.845305   5.172908   4.246563
    15  H    2.870115   4.274754   4.417218   5.091440   4.927935
    16  H    3.480042   4.442842   3.947936   5.349370   5.165258
    17  H    1.926208   2.635384   3.647286   2.414546   3.421708
    18  H    2.662400   1.937327   3.232733   0.962928   2.277403
    19  H    2.790906   3.473820   3.219443   4.817800   3.672142
    20  C    4.764680   3.604695   2.489381   4.259524   3.582402
    21  N    5.837102   4.727951   3.731380   5.471883   4.479166
    22  C    5.999070   5.100929   4.287375   6.091177   4.664752
    23  N    5.059697   4.415845   3.790073   5.611816   3.941589
    24  C    3.717300   3.145913   2.552221   4.420881   2.833877
    25  H    5.156489   3.905519   2.762284   4.216397   4.063187
    26  H    6.751628   5.567867   4.547772   6.160724   5.337064
    27  O    7.194613   6.299415   5.512858   7.262617   5.795072
    28  O    3.072233   3.010500   2.817114   4.424003   2.733604
                    6          7          8          9         10
     6  O    0.000000
     7  H    2.083464   0.000000
     8  C    2.356460   2.152105   0.000000
     9  C    1.413672   2.927900   3.507534   0.000000
    10  H    2.826034   3.910015   3.685495   2.150443   0.000000
    11  O    3.581618   4.092733   4.829638   2.469095   2.027197
    12  C    2.343955   4.282231   4.395242   1.513079   2.588347
    13  H    2.082028   3.070589   4.229683   1.111747   3.032945
    14  O    2.836714   4.791549   4.248140   2.418528   2.383051
    15  H    3.303143   5.069790   5.365190   2.146811   2.893000
    16  H    2.546341   4.517653   4.704015   2.133460   3.628175
    17  H    3.653245   3.846690   5.004026   2.603375   2.815933
    18  H    4.089672   3.270877   4.266401   3.755663   3.386702
    19  H    2.396552   4.238712   3.379483   2.437511   2.278273
    20  C    3.425400   2.613890   1.347591   4.686037   5.008544
    21  N    4.536783   3.967375   2.345312   5.808823   5.892291
    22  C    4.894865   4.824117   2.797206   6.060687   5.793801
    23  N    4.203640   4.589868   2.439407   5.192374   4.686148
    24  C    2.933284   3.486980   1.476616   3.849886   3.436634
    25  H    3.761902   2.419877   2.146092   4.998832   5.596813
    26  H    5.385880   4.601405   3.261305   6.691371   6.864177
    27  O    6.095739   6.008139   4.021769   7.265604   6.927711
    28  O    2.815126   3.904731   2.354528   3.312969   2.511193
                   11         12         13         14         15
    11  O    0.000000
    12  C    3.322782   0.000000
    13  H    2.577652   2.167421   0.000000
    14  O    3.856646   1.406984   3.371800   0.000000
    15  H    3.174563   1.101190   2.460423   2.030683   0.000000
    16  H    4.267974   1.106054   2.494388   2.088170   1.787629
    17  H    0.964118   3.674593   2.321116   4.458251   3.548604
    18  H    2.506799   5.107751   3.805561   5.519239   5.350652
    19  H    4.006627   1.959133   3.511431   0.975099   2.818269
    20  C    6.002087   5.616384   5.257837   5.522176   6.613090
    21  N    7.120761   6.557154   6.484905   6.231469   7.586544
    22  C    7.332256   6.556160   6.910393   5.937946   7.570520
    23  N    6.404521   5.528528   6.156763   4.752972   6.493355
    24  C    5.084649   4.314121   4.815661   3.697948   5.266358
    25  H    6.269674   6.082534   5.357564   6.210426   7.043431
    26  H    8.000220   7.480748   7.291483   7.207996   8.518428
    27  O    8.520428   7.683247   8.127146   6.977538   8.698391
    28  O    4.398720   3.509689   4.391471   2.672398   4.353796
                   16         17         18         19         20
    16  H    0.000000
    17  H    4.458173   0.000000
    18  H    5.887559   2.303365   0.000000
    19  H    2.525401   4.584272   5.240994   0.000000
    20  C    5.783720   6.058850   5.038176   4.639127   0.000000
    21  N    6.701650   7.275088   6.169956   5.282745   1.356176
    22  C    6.767277   7.660220   6.682347   4.964388   2.426292
[...]
 257,-0.00126946,-0.00036419,-0.00061574,-0.02749455,0.06277185,-0.0890
 5243,-0.06452487,-0.29297278,0.28857994,-0.00132523,0.00059202,0.00000
 229,-0.00113839,0.00180313,0.00013542,-0.00197327,-0.00153399,0.000279
 87,0.00111261,-0.00183354,0.00003254,-0.00008192,0.00044164,0.00026868
 ,0.00186564,0.00022237,0.00060010,0.00082592,-0.00073849,0.00061496,-0
 .00209855,-0.00770508,0.00649017,-0.00178890,-0.00010723,0.00005597,-0
 .00065149,-0.00003781,0.00021429,0.00163714,-0.00067291,-0.00029322,-0
 .00114475,0.00089612,-0.00144206,0.00054012,-0.00029915,0.00023097,0.0
 0408252,0.00123346,0.00181199,0.00053565,-0.00005747,0.00007711,0.0000
 5476,-0.00003730,0.00050054,-0.00021965,0.00002362,0.00005968,-0.00008
 147,0.00026017,0.00003674,-0.00583886,-0.00285472,-0.00217910,0.013348
 27,0.02183567,-0.01870570,-0.13256521,0.01144500,-0.00652124,0.9507043
 8,0.00008648,0.00131337,0.00001248,-0.00192540,-0.00083706,-0.00128885
 ,0.00673224,-0.00250621,0.00423197,-0.00063606,0.00003535,0.00057583,0
 .00009431,0.00040149,-0.00030737,-0.00525336,-0.00254636,-0.00025633,0
 .00070043,-0.00007538,0.00016118,-0.01476808,-0.01551527,0.01304712,0.
 00122137,0.00049676,-0.00148291,-0.00044929,0.00003127,0.00020932,-0.0
 0086990,-0.00047559,0.00039133,-0.00126168,0.00130416,-0.00111417,-0.0
 0054486,-0.00012965,0.00017314,0.00327009,0.00013812,0.00155085,0.0001
 6301,-0.00030691,0.00016971,0.00013883,-0.00008642,0.00025046,0.000305
 97,-0.00000462,0.00003052,-0.00003291,0.00015130,-0.00001760,-0.004032
 29,-0.00170320,-0.00175362,0.06124111,-0.01115096,0.00547060,-0.024709
 25,-0.12800580,0.05460876,-0.02888362,0.40100125,-0.00007070,-0.001079
 79,0.00011273,0.00178854,0.00033569,0.00135318,-0.00518145,0.00211157,
 -0.00324398,0.00043044,0.00001695,-0.00063709,-0.00010066,-0.00037723,
 0.00016576,0.00382171,0.00187217,-0.00018566,-0.00065958,-0.00000314,-
 0.00006491,0.01170435,0.01155947,-0.01213262,-0.00103739,-0.00030729,0
 .00114424,0.00046050,0.00008385,-0.00017642,0.00060338,0.00037548,-0.0
 0042617,0.00088656,-0.00077060,0.00075124,0.00040787,0.00007472,-0.000
 14610,-0.00165626,0.00022572,-0.00099500,-0.00006703,0.00021945,-0.000
 10796,-0.00009583,0.00002566,-0.00019447,-0.00024323,0.00004647,-0.000
 00031,0.00009463,-0.00013576,0.00002783,0.00235146,0.00065330,0.001171
 04,-0.04922340,0.00690539,-0.00433167,0.02181891,0.05418862,-0.1071686
 7,0.00720221,-0.14393293,0.34075872,0.00139863,-0.00178737,0.00058315,
 0.00183550,-0.00184050,0.00059270,-0.00033768,0.00176938,-0.00179483,-
 0.00064412,0.00208046,-0.00040135,-0.00009606,-0.00085752,-0.00003718,
 0.00106133,0.00167241,-0.00115099,-0.00092074,0.00067967,-0.00069153,-
 0.00342887,0.02894091,-0.02334421,0.00116852,-0.00034679,0.00106933,0.
 00135962,0.00011988,-0.00065331,-0.00136842,0.00133546,-0.00014345,0.0
 0222888,-0.00198569,0.00265329,-0.00021476,0.00040237,-0.00039883,-0.0
 0755818,-0.00251633,-0.00379518,-0.00072462,0.00029212,-0.00025485,-0.
 00023964,0.00011486,-0.00082664,-0.00009455,0.00000378,-0.00006645,0.0
 0003818,-0.00041652,-0.00011854,0.01032256,0.00645529,0.00501117,-0.04
 211020,0.00320806,-0.00054604,0.02794789,-0.03670919,0.02864644,-0.222
 92253,-0.08152830,0.07033746,0.71595748,-0.00000577,-0.00063213,0.0002
 9266,-0.00018822,0.00015967,0.00091637,-0.00249886,-0.00419062,0.00335
 141,0.00016137,0.00020704,-0.00036785,-0.00013943,-0.00014485,-0.00021
 848,0.00109621,0.00150655,-0.00014190,0.00157436,-0.00087706,0.0003161
 6,0.03025057,0.00367281,0.01258405,-0.00059001,-0.00020988,0.00055144,
 0.00024799,0.00004332,-0.00021641,0.00018725,0.00038024,-0.00020812,0.
 00061373,-0.00055254,0.00050837,0.00013904,0.00003607,-0.00006924,-0.0
 0134994,0.00004611,-0.00068902,-0.00008029,0.00012084,-0.00004859,-0.0
 0003063,0.00002753,-0.00010555,-0.00018152,0.00000864,-0.00001647,-0.0
 0003453,-0.00007796,-0.00009498,0.00131667,0.00048727,0.00085775,-0.00
 927124,0.00119084,-0.00124655,-0.02136504,-0.02177021,0.03309622,-0.06
 954253,-0.14789463,0.06408744,0.03800646,0.25004618,0.00003560,0.00029
 826,-0.00008161,-0.00003033,0.00017637,-0.00105445,0.00202626,0.004874
 53,-0.00103908,-0.00018774,-0.00000677,0.00041099,-0.00002935,0.000180
 05,0.00007874,-0.00046116,-0.00135688,0.00067891,-0.00141496,0.0003188
 9,-0.00059908,-0.02334104,0.01249545,0.01225614,0.00051379,0.00015667,
 -0.00044552,-0.00021964,-0.00001249,0.00008113,-0.00009619,-0.00017534
 ,0.00020046,-0.00054274,0.00050071,-0.00052259,-0.00010246,-0.00002336
 ,0.00004230,0.00152582,0.00060632,0.00085359,0.00007244,-0.00010689,0.
 00006441,0.00008273,-0.00001894,0.00015157,0.00011236,-0.00000309,-0.0
 0000831,-0.00008640,0.00008578,0.00005151,-0.00172993,-0.00176379,-0.0
 0094278,0.00861288,-0.00179672,0.00054164,0.01723262,0.03376732,-0.009
 54491,0.05993796,0.06320745,-0.12429000,-0.04685296,-0.15222836,0.1843
 7900,-0.00289872,0.00299680,-0.00022708,-0.00307569,0.00265859,-0.0039
 9030,0.00229324,0.02970893,-0.01816751,0.00111987,-0.00338493,0.001760
 88,-0.00007302,0.00261623,0.00127953,-0.00091789,-0.00708143,0.0033444
 5,-0.00547460,0.00144404,0.00018295,-0.11326501,0.01807958,-0.01282521
 ,-0.00139164,0.00063189,-0.00234450,-0.00226089,-0.00030827,0.00075084
 ,0.00148317,-0.00206031,0.00036200,-0.00381612,0.00303081,-0.00419731,
 0.00033388,-0.00050590,0.00060050,0.01188192,0.00286386,0.00481490,0.0
 0109695,-0.00055902,0.00045040,0.00032992,-0.00013821,0.00122250,0.000
 31120,0.00007504,0.00007425,-0.00017555,0.00070108,0.00057274,-0.01919
 612,-0.00919747,-0.00481360,0.04324614,-0.02415286,0.01700571,-0.01980
 015,0.02561453,-0.02007101,-0.08101912,-0.02989943,0.02461830,-0.28409
 366,0.06499791,-0.04547248,0.78168056,-0.00040732,0.00236515,-0.001117
 38,-0.00165934,0.00033101,-0.00179364,0.01439656,-0.00088498,0.0052693
 6,-0.00047490,-0.00140541,0.00114542,0.00094729,0.00069583,-0.00013356
 ,-0.00420707,-0.00566683,0.00141073,-0.00036286,0.00157045,0.00066753,
 0.03506244,-0.14707304,0.04666021,0.00061310,0.00051076,-0.00197051,-0
 .00168388,-0.00028943,0.00075871,-0.00012036,-0.00176189,0.00095409,-0
 .00291955,0.00222495,-0.00278548,-0.00024341,-0.00025389,0.00034310,0.
 00710132,0.00197391,0.00305396,0.00052189,-0.00045989,0.00027409,0.000
 18229,-0.00011561,0.00066711,0.00067842,-0.00004780,0.00008779,0.00009
 485,0.00046546,0.00024534,-0.00975070,-0.00680336,-0.00258880,-0.04366
 860,-0.01261940,0.01599810,0.02678090,-0.01891551,0.00924043,-0.012830
 69,0.01391990,-0.02748549,0.08366663,-0.11749492,0.04327713,0.08423759
 ,0.48344973,0.00076151,-0.00182481,0.00076991,0.00176097,-0.00079164,0
 .00296488,-0.01270206,-0.00134840,-0.00196464,-0.00003922,0.00129656,-
 0.00131435,0.00017466,-0.00145154,-0.00031749,0.00514700,0.00610265,-0
 .00124833,0.00141243,0.00006068,0.00118054,-0.02466542,0.04729383,-0.1
 2080023,-0.00151424,-0.00072799,0.00221156,0.00097677,0.00021586,-0.00
 075181,0.00000755,0.00114933,-0.00076060,0.00246041,-0.00246000,0.0027
 6226,0.00045768,0.00023427,-0.00031870,-0.01019091,-0.00366528,-0.0047
 5166,-0.00061714,0.00057000,-0.00043265,-0.00031420,0.00008827,-0.0007
 6376,-0.00042394,0.00006577,0.00000591,0.00010201,-0.00037224,-0.00022
 910,0.01216657,0.00782329,0.00604231,0.03317630,0.01615464,-0.00902544
 ,-0.02027504,0.00913470,-0.01199340,0.01232193,-0.02499987,0.00029896,
 -0.06281419,0.04346426,-0.09410783,-0.08001129,-0.20948606,0.38263031,
 -0.00001497,-0.00009590,-0.00001261,-0.00011150,0.00011547,0.00000725,
 0.00129048,-0.00237475,0.00098314,0.00004382,-0.00000390,-0.00006523,0
 .00005475,-0.00002482,-0.00010019,0.00025550,0.00063628,0.00009105,-0.
 00026985,0.00089750,-0.00055752,0.00850430,-0.01706861,0.01355047,-0.0
 0022296,-0.00005208,0.00008588,0.00002226,0.00000176,-0.00001284,0.000
 08588,0.00003053,-0.00004048,0.00006030,-0.00006026,0.00004220,0.00003
 243,-0.00001229,-0.00000268,-0.00010180,0.00003875,-0.00007442,0.00000
 130,0.00001817,-0.00001150,-0.00000870,0.00000338,-0.00000572,-0.00003
 335,0.00000220,0.00000265,0.00000943,0.00001337,-0.00001251,0.00013737
 ,0.00004895,0.00010829,-0.05950128,0.01452742,-0.01068581,-0.00271567,
 0.03005759,-0.02370527,-0.00390122,-0.00423108,0.00399968,0.00141803,0
 .00037797,-0.00044001,-0.00487352,0.00026294,0.00053899,0.06114776,0.0
 0011187,-0.00015676,-0.00013570,0.00052931,0.00035306,0.00016539,0.001
 61331,-0.00179602,-0.00296411,-0.00003853,0.00002180,-0.00005245,0.000
 06376,-0.00006029,-0.00008123,-0.00075290,-0.00026961,-0.00019224,-0.0
 0083533,0.00059767,-0.00023931,0.00438388,-0.00615661,0.01191228,-0.00
 008537,-0.00003004,-0.00016970,0.00005657,0.00003351,-0.00001985,0.000
 04098,0.00006988,-0.00002924,0.00005965,-0.00008088,0.00013803,-0.0000
 6546,0.00001209,0.00000851,-0.00023699,-0.00000182,-0.00015911,-0.0000
 1916,0.00000015,-0.00001835,-0.00001308,-0.00000195,-0.00004336,-0.000
 02212,-0.00000277,-0.00000809,0.00003169,0.00000161,0.00000770,0.00032
 237,0.00011575,0.00021693,0.01899507,-0.21869909,0.14337821,0.00028578
 ,-0.00644361,0.00728426,0.00119219,0.00497742,-0.00099494,-0.00022363,
 -0.00103273,-0.00101087,-0.00281588,0.00588141,0.00384296,-0.02305735,
 0.22627261,-0.00002625,-0.00001045,-0.00015410,0.00043294,0.00036874,0
 .00035215,-0.00059812,-0.00260688,-0.00342597,-0.00000050,-0.00029561,
 -0.00009055,-0.00003074,0.00002337,-0.00002781,-0.00101951,-0.00031875
 ,0.00033501,0.00078356,-0.00027295,0.00021637,-0.00396178,0.01242288,-
 0.00050720,-0.00004035,-0.00014085,-0.00017366,-0.00003263,0.00002520,
 0.00000685,0.00006120,-0.00005827,0.00000064,-0.00017704,0.00008908,-0
 .00004744,-0.00002747,-0.00001531,0.00001925,0.00020880,0.00002246,0.0
 0008654,0.00001502,-0.00003626,0.00000027,0.00000293,-0.00001033,0.000
 00854,0.00002227,0.00001097,0.00000254,0.00007419,-0.00001218,-0.00000
 935,-0.00024235,-0.00017638,-0.00009386,-0.01418015,0.14353033,-0.1524
 6076,-0.00012957,0.00607615,-0.00187274,-0.00067714,-0.00044973,0.0045
 6386,0.00015370,-0.00107511,-0.00150196,0.00312708,0.00366574,0.007408
 66,0.01678616,-0.16039417,0.15126878,-0.00004178,-0.00002844,0.0000065
 8,-0.00005854,0.00012158,-0.00019300,-0.00039355,-0.00063505,0.0007800
 4,-0.00000207,-0.00000571,0.00005446,-0.00000618,0.00002698,0.00003293
 ,-0.00005795,-0.00001745,-0.00003336,0.00001477,-0.00001837,-0.0000151
 9,-0.00138527,0.00489056,-0.00375417,-0.00004281,0.00001352,-0.0000291
 5,-0.00003243,-0.00000092,0.00000676,0.00005038,-0.00001806,0.00000264
 ,-0.00003459,0.00003134,-0.00003868,0.00000132,-0.00000921,0.00000522,
 0.00011697,0.00003148,0.00005015,0.00001992,-0.00000449,0.00000334,-0.
 00000030,-0.00000156,0.00001164,-0.00000546,0.00000095,0.00000025,-0.0
 0001803,0.00002135,0.00000059,-0.00017566,-0.00007704,-0.00006371,-0.0
 1827772,-0.01608768,0.01315156,-0.31864130,-0.14280386,0.12437058,0.00
 993457,0.00034098,-0.00061144,0.00086983,0.00235721,-0.00180614,0.0005
 2776,-0.00114570,0.00082473,0.00070091,0.00043927,-0.00042137,0.329113
 87,-0.00006025,-0.00003096,0.00005912,-0.00013810,0.00024009,0.0000310
 6,-0.00044075,0.00139335,0.00050245,0.00000944,-0.00014536,-0.00002988
 ,-0.00001118,-0.00000648,-0.00001261,0.00111938,0.00020640,0.00011764,
 0.00000554,-0.00000056,0.00003924,0.00384807,0.00138852,0.00180283,-0.
 00015055,-0.00003452,0.00024727,0.00000027,-0.00000869,-0.00000931,0.0
 0008702,-0.00003946,-0.00005910,0.00007167,-0.00004347,0.00002337,0.00
 011320,-0.00000109,-0.00001499,-0.00006565,0.00001769,-0.00006852,0.00
 001261,0.00003108,-0.00000890,-0.00001210,-0.00000342,-0.00000783,-0.0
 0001075,0.00002680,0.00001499,0.00001727,0.00002349,0.00000447,0.00005
 885,0.00001835,0.00006853,0.01087044,0.00538285,-0.01170666,-0.1448378
 7,-0.12696119,0.10248549,-0.02900675,-0.00629194,0.00460467,0.00117363
 ,-0.00344157,0.00569212,0.00283395,-0.00178577,0.00105254,-0.00003851,
 -0.00032602,-0.00128135,0.15224073,0.12881521,0.00004043,0.00011163,0.
 00007382,-0.00051550,0.00002224,-0.00027335,-0.00023828,0.00091623,0.0
 0186751,-0.00017606,0.00006475,0.00007242,0.00001079,0.00002490,-0.000
 06212,0.00036518,-0.00012141,0.00001815,0.00004310,0.00006918,0.000031
 66,-0.00235122,0.00158110,0.00284106,0.00007740,-0.00000050,0.00007269
 ,-0.00000626,-0.00001271,0.00000749,-0.00014300,-0.00005104,0.00000704
 ,-0.00000144,0.00002222,0.00002153,0.00000322,0.00001059,-0.00001313,-
 0.00003147,-0.00005786,-0.00004608,-0.00000877,-0.00000130,-0.00000134
 ,0.00000038,-0.00001562,-0.00002013,0.00003836,0.00001679,0.00001846,0
 .00000184,0.00004385,0.00000791,0.00007147,0.00006309,0.00004225,-0.00
 787556,-0.01082069,0.00003680,0.12488566,0.10194904,-0.09079596,0.0232
 6005,0.00408423,-0.00510366,-0.00091442,0.00562759,-0.00107562,-0.0023
 1099,0.00137281,-0.00134047,-0.00014178,-0.00124038,-0.00096301,-0.132
 06465,-0.09887579,0.09476350,0.00103062,-0.00011789,0.00011047,0.00009
 685,-0.00171194,-0.00047766,0.00356624,0.00032641,0.00110073,-0.000980
 68,0.00141543,0.00014525,0.00004099,-0.00016966,-0.00031553,-0.0029711
 6,-0.00088595,-0.00049921,-0.00022665,0.00026359,-0.00015307,-0.001035
 52,0.00695180,-0.00548125,0.00170718,0.00018672,-0.00046773,0.00035529
 ,0.00003132,-0.00016171,-0.00151902,0.00041613,0.00033151,0.00055595,-
 0.00036264,0.00083567,-0.00055855,0.00019252,-0.00012374,-0.00233913,-
 0.00106251,-0.00105700,-0.00035956,-0.00004234,-0.00000960,-0.00001370
 ,0.00001077,-0.00032083,0.00023689,-0.00001972,-0.00003562,0.00002250,
 -0.00015983,-0.00004849,0.00327793,0.00208595,0.00136570,-0.00492204,0
 .00425227,-0.00311000,-0.03121090,0.03763225,-0.02997778,-0.54847522,0
 .10447401,-0.07549796,-0.09671736,-0.00751226,0.00807749,0.02676578,-0
 .00985535,0.00723573,-0.00193836,0.00089301,-0.00058002,-0.00256791,0.
 00286414,-0.00224145,0.67282821,-0.00016586,-0.00031390,-0.00003075,0.
 00051673,0.00040572,0.00040316,-0.00202291,0.00032241,-0.00162581,0.00
 032980,-0.00016452,-0.00015636,-0.00002275,-0.00007797,0.00013413,0.00
 167480,0.00082687,0.00013919,-0.00020860,0.00010303,-0.00007170,0.0031
 8573,0.00126668,-0.00303013,-0.00055192,-0.00014462,0.00041609,0.00006
 599,-0.00001258,-0.00003081,0.00044316,0.00008960,-0.00013676,0.000263
 52,-0.00029028,0.00015861,0.00020529,0.00000901,-0.00002335,-0.0004485
 9,0.00018789,-0.00021174,0.00000999,0.00008037,-0.00003697,-0.00002951
 ,0.00002274,-0.00000974,-0.00012223,-0.00000952,-0.00001133,-0.0000119
 9,-0.00003137,0.00000578,0.00039982,0.00006876,0.00019762,-0.01071265,
 -0.00088446,0.00497509,0.06201967,-0.01849020,0.03098132,0.10661025,-0
 .11325158,0.02342090,-0.02610089,0.02067078,-0.00182858,0.00237504,-0.
 00003486,0.00793850,0.00196885,-0.00094200,0.00060304,-0.00016817,0.00
 128990,-0.00385787,-0.13667373,0.10964285,0.00012102,0.00025519,-0.000
 04949,-0.00041441,-0.00027893,-0.00037614,0.00157416,-0.00086817,0.000
 59803,-0.00017642,0.00014766,0.00019245,0.00003137,0.00006831,-0.00004
 819,-0.00139546,-0.00054976,0.00004611,0.00021421,-0.00001206,0.000059
 70,-0.00259768,-0.00270028,0.00053984,0.00044480,0.00009887,-0.0003674
 0,-0.00006598,-0.00002163,0.00003053,-0.00030643,-0.00003288,0.0001681
 9,-0.00016191,0.00013726,-0.00011548,-0.00016610,0.00000179,0.00002691
 ,0.00016227,-0.00012815,0.00018970,-0.00002600,-0.00006089,0.00002773,
 0.00002695,0.00000088,0.00002942,0.00008035,-0.00002586,-0.00001297,-0
 .00003517,0.00000600,-0.00002461,-0.00020279,0.00002497,-0.00021081,0.
 00881860,0.00437575,0.00026779,-0.04958739,0.03163583,-0.00318019,-0.0
 7703228,0.02373132,-0.09978411,0.02290915,-0.00298877,0.01932955,-0.00
 211619,0.00866027,0.00359409,-0.00165718,0.00077363,-0.00055599,0.0001
 2982,-0.00389677,-0.00026210,0.09883832,-0.05706119,0.08076806,0.00027
 547,-0.00348458,0.00240587,0.00177144,-0.00183427,0.00211896,-0.009901
 61,-0.00451540,-0.00150376,-0.00010850,0.00303267,-0.00115545,-0.00048
 438,-0.00111798,-0.00033597,0.00420009,0.00782041,-0.00396619,0.000640
 71,0.00011718,-0.00075169,0.00003065,-0.02327908,0.01939949,0.00076686
 ,-0.00096057,0.00305919,-0.00056648,0.00201171,-0.00151027,-0.00148249
 ,0.00304821,-0.00122123,0.00451344,-0.00493946,0.00530512,-0.00001914,
 0.00063257,-0.00059880,-0.02235830,-0.01008707,-0.01173106,-0.00145720
 ,0.00085717,-0.00073853,-0.00064292,0.00031100,-0.00160954,-0.00074505
 ,0.00003722,-0.00008857,-0.00007913,-0.00074927,-0.00038199,0.01265478
 ,0.00929269,0.00557991,-0.00059095,0.00260202,-0.00153647,-0.00075653,
 -0.01008663,0.00833074,0.02058420,0.02025667,-0.01608104,-0.10413505,-
 0.02853648,0.02458357,-0.32873867,-0.16521649,0.13404241,-0.00007133,-
 0.00085292,0.00047713,0.00039125,-0.00055376,0.00022298,-0.01464868,-0
 .00282884,0.00259036,0.44095754,-0.00023803,-0.00133118,-0.00078656,-0
 .00072934,0.00043223,-0.00003114,-0.00637745,-0.00121607,-0.00435174,0
 .00165848,-0.00038090,0.00038471,0.00044728,-0.00010926,0.00076153,0.0
 0379096,0.00384043,0.00094002,-0.00008944,0.00051115,-0.00000236,-0.03
 557189,-0.02682750,0.03877421,-0.00178320,-0.00099159,0.00078015,0.001
 73299,-0.00155774,-0.00048126,0.00092430,0.00108484,0.00018772,0.00351
 052,-0.00574307,0.00502492,0.00023251,0.00061588,-0.00018817,-0.020679
 05,-0.00422069,-0.00965720,-0.00137153,0.00086279,-0.00081854,-0.00056
 381,0.00054496,-0.00127113,-0.00035657,-0.00026140,-0.00021930,-0.0003
 1834,-0.00023163,-0.00003171,0.01659163,0.00597048,0.00572852,0.011841
 17,-0.00392657,0.00457617,-0.00599095,0.00105086,-0.00105595,0.0095856
 4,0.00701118,0.00427967,-0.01560864,0.01971520,-0.00530496,-0.16476217
 ,-0.19777596,0.10063973,-0.00198162,-0.00233676,0.00031662,0.00050576,
 0.00028678,-0.00092508,-0.00342251,-0.00033876,-0.00129241,0.20902328,
 0.20532229,0.00008039,0.00129958,-0.00142588,-0.00114885,-0.00013712,-
 0.00250109,0.00405976,-0.00267294,-0.00044062,0.00069813,-0.00127294,0
 .00147984,0.00048753,0.00146513,0.00059180,-0.00461594,0.00174696,-0.0
 0246751,0.00002019,-0.00021409,0.00015290,0.02823536,0.03814545,-0.008
 12042,0.00288037,-0.00023485,-0.00127319,-0.00154668,-0.00059654,0.000
 47444,0.00029910,-0.00076633,0.00111924,0.00007191,-0.00041251,0.00051
 176,-0.00037322,0.00012656,0.00033438,-0.00265082,-0.00123203,0.002241
 39,-0.00029612,-0.00007851,-0.00013318,0.00007763,0.00015727,0.0002191
 6,0.00029315,-0.00030219,-0.00010981,-0.00025681,0.00031005,0.00005252
 ,-0.00228653,-0.00207517,-0.00872149,-0.00891850,0.00454254,-0.0004301
 5,0.00440150,-0.00119041,0.00018117,-0.00728271,0.00369711,0.00864125,
 0.01284855,-0.00593834,0.01609381,0.13638044,0.10360900,-0.15974893,0.
 00133000,0.00002519,-0.00238505,-0.00040041,-0.00077408,0.00007472,0.0
 0251777,-0.00125035,-0.00088061,-0.16490517,-0.13597645,0.15646953\\0.
 00000620,-0.00001013,-0.00000215,-0.00000736,0.00002618,0.00000514,-0.
 00001586,-0.00001669,-0.00001517,0.00001548,-0.00000973,0.00000097,0.0
 0000219,-0.00000153,-0.00000143,0.00002177,0.00000951,0.00000843,-0.00
 000070,0.00000480,0.00000265,0.00000864,0.00001415,-0.00001361,-0.0000
 1962,0.00000605,-0.00000028,-0.00000399,0.00000043,0.00000149,-0.00000
 738,-0.00000389,0.00000158,0.00001066,-0.00001803,0.00001174,0.0000019
 9,-0.00000224,0.00000360,-0.00002627,-0.00000178,-0.00001147,-0.000000
 99,-0.00000221,-0.00000126,-0.00000024,0.00000278,-0.00000204,0.000002
 03,-0.00000047,0.00000219,-0.00000466,-0.00000308,0.00000081,0.0000201
 4,0.00000634,0.00000167,-0.00002032,0.00000031,0.00000401,0.00001416,-
 0.00002783,0.00001649,-0.00000192,0.00003729,-0.00002135,-0.00001912,-
 0.00000613,-0.00000166,0.00003517,0.00000680,-0.00000067,0.00000273,0.
 00000102,0.00000051,-0.00000153,0.00000292,-0.00000354,0.00000546,-0.0
 0000355,0.00000284,-0.00001666,-0.00001130,0.00001052\\\@
 The archive entry for this job was punched.


 Ideas are like rabbits. You get a couple and learn
 how to handle them, and pretty soon you have a dozen.
                                    -- John Steinbeck
 Job cpu time:       0 days  9 hours 53 minutes 22.4 seconds.
 Elapsed time:       0 days  0 hours 14 minutes 57.7 seconds.
 File lengths (MBytes):  RWF=    600 Int=      0 D2E=      0 Chk=     20 Scr=      1
 Normal termination of Gaussian 16 at Sun Oct 27 03:53:31 2024.
