 Entering Gaussian System, Link 0=g16
 Input=PseudoUridineAnNallgPBE0aVDZ.gjf
 Output=PseudoUridineAnNallgPBE0aVDZ.log
 Initial command:
 /sw/contrib/chem-src/g16/c01/g16/l1.exe "/scr/Gau-56683.inp" -scrdir="/scr/"
 Entering Link 1 = /sw/contrib/chem-src/g16/c01/g16/l1.exe PID=     56697.
  
 Copyright (c) 1988-2019, Gaussian, Inc.  All Rights Reserved.
  
 This is part of the Gaussian(R) 16 program.  It is based on
 the Gaussian(R) 09 system (copyright 2009, Gaussian, Inc.),
 the Gaussian(R) 03 system (copyright 2003, Gaussian, Inc.),
 the Gaussian(R) 98 system (copyright 1998, Gaussian, Inc.),
 the Gaussian(R) 94 system (copyright 1995, Gaussian, Inc.),
 the Gaussian 92(TM) system (copyright 1992, Gaussian, Inc.),
 the Gaussian 90(TM) system (copyright 1990, Gaussian, Inc.),
 the Gaussian 88(TM) system (copyright 1988, Gaussian, Inc.),
 the Gaussian 86(TM) system (copyright 1986, Carnegie Mellon
 University), and the Gaussian 82(TM) system (copyright 1983,
 Carnegie Mellon University). Gaussian is a federally registered
 trademark of Gaussian, Inc.
  
 This software contains proprietary and confidential information,
 including trade secrets, belonging to Gaussian, Inc.
  
 This software is provided under written license and may be
 used, copied, transmitted, or stored only in accord with that
 written license.
  
 The following legend is applicable only to US Government
 contracts under FAR:
  
                    RESTRICTED RIGHTS LEGEND
  
 Use, reproduction and disclosure by the US Government is
 subject to restrictions as set forth in subparagraphs (a)
 and (c) of the Commercial Computer Software - Restricted
 Rights clause in FAR 52.227-19.
  
 Gaussian, Inc.
 340 Quinnipiac St., Bldg. 40, Wallingford CT 06492
  
  
 ---------------------------------------------------------------
 Warning -- This program may not be used in any manner that
 competes with the business of Gaussian, Inc. or will provide
 assistance to any competitor of Gaussian, Inc.  The licensee
 of this program is prohibited from giving any competitor of
 Gaussian, Inc. access to this program.  By using this program,
 the user acknowledges that Gaussian, Inc. is engaged in the
 business of creating and licensing software in the field of
 computational chemistry and represents and warrants to the
 licensee that it is not a competitor of Gaussian, Inc. and that
 it will not use this program in any manner prohibited above.
 ---------------------------------------------------------------
  

 Cite this work as:
 Gaussian 16, Revision C.01,
 M. J. Frisch, G. W. Trucks, H. B. Schlegel, G. E. Scuseria, 
 M. A. Robb, J. R. Cheeseman, G. Scalmani, V. Barone, 
 G. A. Petersson, H. Nakatsuji, X. Li, M. Caricato, A. V. Marenich, 
 J. Bloino, B. G. Janesko, R. Gomperts, B. Mennucci, H. P. Hratchian, 
 J. V. Ortiz, A. F. Izmaylov, J. L. Sonnenberg, D. Williams-Young, 
 F. Ding, F. Lipparini, F. Egidi, J. Goings, B. Peng, A. Petrone, 
 T. Henderson, D. Ranasinghe, V. G. Zakrzewski, J. Gao, N. Rega, 
 G. Zheng, W. Liang, M. Hada, M. Ehara, K. Toyota, R. Fukuda, 
 J. Hasegawa, M. Ishida, T. Nakajima, Y. Honda, O. Kitao, H. Nakai, 
 T. Vreven, K. Throssell, J. A. Montgomery, Jr., J. E. Peralta, 
 F. Ogliaro, M. J. Bearpark, J. J. Heyd, E. N. Brothers, K. N. Kudin, 
 V. N. Staroverov, T. A. Keith, R. Kobayashi, J. Normand, 
 K. Raghavachari, A. P. Rendell, J. C. Burant, S. S. Iyengar, 
 J. Tomasi, M. Cossi, J. M. Millam, M. Klene, C. Adamo, R. Cammi, 
 J. W. Ochterski, R. L. Martin, K. Morokuma, O. Farkas, 
 J. B. Foresman, and D. J. Fox, Gaussian, Inc., Wallingford CT, 2019.
 
 ******************************************
 Gaussian 16:  EM64L-G16RevC.01  3-Jul-2019
                28-Oct-2024 
 ******************************************
 %nprocshared=40
 Will use up to   40 processors via shared memory.
 %mem=50gb
 ------------------------------------------------------
 # PBE1PBE/aug-cc-pVDZ opt freq EmpiricalDispersion=GD3
 ------------------------------------------------------
 1/18=20,19=15,26=3,38=1/1,3;
 2/9=110,12=2,17=6,18=5,40=1/2;
 3/5=16,7=10,11=2,25=1,30=1,71=1,74=-13,124=31/1,2,3;
 4//1;
 5/5=2,38=5/2;
 6/7=2,8=2,9=2,10=2,28=1/1;
 7//1,2,3,16;
 1/18=20,19=15,26=3/3(2);
 2/9=110/2;
 99//99;
 2/9=110/2;
 3/5=16,7=10,11=2,25=1,30=1,71=1,74=-13,124=31/1,2,3;
 4/5=5,16=3,69=1/1;
 5/5=2,38=5/2;
 7//1,2,3,16;
 1/18=20,19=15,26=3/3(-5);
 2/9=110/2;
 6/7=2,8=2,9=2,10=2,19=2,28=1/1;
 99/9=1/99;
 ----
 blah
 ----
 Symbolic Z-matrix:
 Charge =  0 Multiplicity = 2
 C                     2.31197  -0.19676  -0.62762 
 C                     1.22125  -1.28231  -0.58032 
 C                     0.38062  -0.95268   0.66126 
 O                     1.79679  -2.57878  -0.38882 
 H                     0.6062   -1.27123  -1.489 
 O                     1.06154   0.09304   1.36766 
 H                     0.37777  -1.85913   1.29207 
 C                    -1.027    -0.5458    0.3849 
 C                     2.32162   0.37872   0.79377 
 H                     2.02541   0.57675  -1.34427 
 O                     3.57769  -0.68697  -1.04135 
 C                     2.5545    1.87848   0.86258 
 H                     3.12512  -0.12668   1.37331 
 O                     1.74748   2.62677  -0.00204 
 H                     3.61046   2.07301   0.60468 
 H                     2.40694   2.18635   1.91616 
 H                     3.83222  -1.35692  -0.396 
 H                     2.28932  -2.77713  -1.19233 
 H                     0.92116   2.13226  -0.2161 
 C                    -2.07789  -1.19854   0.93052 
 N                    -3.34488  -0.81056   0.63695 
 C                    -3.63246   0.26098  -0.24746 
 N                    -2.5935    0.93     -0.78595 
 C                    -1.31592   0.59338  -0.50717 
 H                    -1.96163  -2.04556   1.61011 
 H                    -4.14975  -1.28133   1.02012 
 O                    -4.83143   0.49183  -0.448 
 O                    -0.3439    1.2167   -1.00726 
 

 GradGradGradGradGradGradGradGradGradGradGradGradGradGradGradGradGradGrad
 Berny optimization.
 Initialization pass.
                           ----------------------------
                           !    Initial Parameters    !
                           ! (Angstroms and Degrees)  !
 --------------------------                            --------------------------
 ! Name  Definition              Value          Derivative Info.                !
 --------------------------------------------------------------------------------
 ! R1    R(1,2)                  1.5396         estimate D2E/DX2                !
 ! R2    R(1,9)                  1.5335         estimate D2E/DX2                !
 ! R3    R(1,10)                 1.0927         estimate D2E/DX2                !
 ! R4    R(1,11)                 1.419          estimate D2E/DX2                !
 ! R5    R(2,3)                  1.5352         estimate D2E/DX2                !
 ! R6    R(2,4)                  1.4313         estimate D2E/DX2                !
 ! R7    R(2,5)                  1.0973         estimate D2E/DX2                !
 ! R8    R(3,6)                  1.4339         estimate D2E/DX2                !
 ! R9    R(3,7)                  1.1043         estimate D2E/DX2                !
 ! R10   R(3,8)                  1.4911         estimate D2E/DX2                !
 ! R11   R(4,18)                 0.9631         estimate D2E/DX2                !
 ! R12   R(6,9)                  1.4138         estimate D2E/DX2                !
 ! R13   R(8,20)                 1.3521         estimate D2E/DX2                !
 ! R14   R(8,24)                 1.4755         estimate D2E/DX2                !
 ! R15   R(9,12)                 1.5193         estimate D2E/DX2                !
 ! R16   R(9,13)                 1.1122         estimate D2E/DX2                !
 ! R17   R(11,17)                0.9644         estimate D2E/DX2                !
 ! R18   R(12,14)                1.3996         estimate D2E/DX2                !
 ! R19   R(12,15)                1.1043         estimate D2E/DX2                !
 ! R20   R(12,16)                1.1075         estimate D2E/DX2                !
 ! R21   R(14,19)                0.9865         estimate D2E/DX2                !
 ! R22   R(20,21)                1.3572         estimate D2E/DX2                !
 ! R23   R(20,25)                1.0922         estimate D2E/DX2                !
 ! R24   R(21,22)                1.4188         estimate D2E/DX2                !
 ! R25   R(21,26)                1.0081         estimate D2E/DX2                !
 ! R26   R(22,23)                1.348          estimate D2E/DX2                !
 ! R27   R(22,27)                1.2374         estimate D2E/DX2                !
 ! R28   R(23,24)                1.3503         estimate D2E/DX2                !
 ! R29   R(24,28)                1.2583         estimate D2E/DX2                !
 ! A1    A(2,1,9)              103.9207         estimate D2E/DX2                !
 ! A2    A(2,1,10)             109.48           estimate D2E/DX2                !
 ! A3    A(2,1,11)             113.4098         estimate D2E/DX2                !
 ! A4    A(9,1,10)             110.1147         estimate D2E/DX2                !
 ! A5    A(9,1,11)             113.2215         estimate D2E/DX2                !
 ! A6    A(10,1,11)            106.6931         estimate D2E/DX2                !
 ! A7    A(1,2,3)              105.1517         estimate D2E/DX2                !
 ! A8    A(1,2,4)              110.9705         estimate D2E/DX2                !
 ! A9    A(1,2,5)              111.3784         estimate D2E/DX2                !
 ! A10   A(3,2,4)              107.846          estimate D2E/DX2                !
 ! A11   A(3,2,5)              111.139          estimate D2E/DX2                !
 ! A12   A(4,2,5)              110.2014         estimate D2E/DX2                !
 ! A13   A(2,3,6)              107.1562         estimate D2E/DX2                !
 ! A14   A(2,3,7)              106.6863         estimate D2E/DX2                !
 ! A15   A(2,3,8)              115.1896         estimate D2E/DX2                !
 ! A16   A(6,3,7)              108.5674         estimate D2E/DX2                !
 ! A17   A(6,3,8)              109.913          estimate D2E/DX2                !
 ! A18   A(7,3,8)              109.1111         estimate D2E/DX2                !
 ! A19   A(2,4,18)             106.2931         estimate D2E/DX2                !
 ! A20   A(3,6,9)              111.7545         estimate D2E/DX2                !
 ! A21   A(3,8,20)             121.8172         estimate D2E/DX2                !
 ! A22   A(3,8,24)             120.5035         estimate D2E/DX2                !
 ! A23   A(20,8,24)            117.679          estimate D2E/DX2                !
 ! A24   A(1,9,6)              107.1463         estimate D2E/DX2                !
 ! A25   A(1,9,12)             114.418          estimate D2E/DX2                !
 ! A26   A(1,9,13)             108.4817         estimate D2E/DX2                !
 ! A27   A(6,9,12)             108.5245         estimate D2E/DX2                !
 ! A28   A(6,9,13)             109.912          estimate D2E/DX2                !
 ! A29   A(12,9,13)            108.3152         estimate D2E/DX2                !
 ! A30   A(1,11,17)            106.2777         estimate D2E/DX2                !
 ! A31   A(9,12,14)            114.2935         estimate D2E/DX2                !
 ! A32   A(9,12,15)            108.0529         estimate D2E/DX2                !
 ! A33   A(9,12,16)            107.2817         estimate D2E/DX2                !
 ! A34   A(14,12,15)           108.2361         estimate D2E/DX2                !
 ! A35   A(14,12,16)           111.238          estimate D2E/DX2                !
 ! A36   A(15,12,16)           107.4947         estimate D2E/DX2                !
 ! A37   A(12,14,19)           110.4286         estimate D2E/DX2                !
 ! A38   A(8,20,21)            120.0188         estimate D2E/DX2                !
 ! A39   A(8,20,25)            122.8718         estimate D2E/DX2                !
 ! A40   A(21,20,25)           117.109          estimate D2E/DX2                !
 ! A41   A(20,21,22)           122.6801         estimate D2E/DX2                !
 ! A42   A(20,21,26)           121.9801         estimate D2E/DX2                !
 ! A43   A(22,21,26)           115.3268         estimate D2E/DX2                !
 ! A44   A(21,22,23)           117.8802         estimate D2E/DX2                !
 ! A45   A(21,22,27)           115.9973         estimate D2E/DX2                !
 ! A46   A(23,22,27)           126.1224         estimate D2E/DX2                !
 ! A47   A(22,23,24)           121.5376         estimate D2E/DX2                !
 ! A48   A(8,24,23)            120.1706         estimate D2E/DX2                !
 ! A49   A(8,24,28)            118.1294         estimate D2E/DX2                !
 ! A50   A(23,24,28)           121.691          estimate D2E/DX2                !
 ! D1    D(9,1,2,3)             18.2746         estimate D2E/DX2                !
 ! D2    D(9,1,2,4)            -98.0722         estimate D2E/DX2                !
 ! D3    D(9,1,2,5)            138.7541         estimate D2E/DX2                !
 ! D4    D(10,1,2,3)           -99.3382         estimate D2E/DX2                !
 ! D5    D(10,1,2,4)           144.315          estimate D2E/DX2                !
 ! D6    D(10,1,2,5)            21.1413         estimate D2E/DX2                !
 ! D7    D(11,1,2,3)           141.639          estimate D2E/DX2                !
 ! D8    D(11,1,2,4)            25.2922         estimate D2E/DX2                !
 ! D9    D(11,1,2,5)           -97.8815         estimate D2E/DX2                !
 ! D10   D(2,1,9,6)            -22.4322         estimate D2E/DX2                !
 ! D11   D(2,1,9,12)          -142.778          estimate D2E/DX2                !
 ! D12   D(2,1,9,13)            96.1828         estimate D2E/DX2                !
 ! D13   D(10,1,9,6)            94.7397         estimate D2E/DX2                !
 ! D14   D(10,1,9,12)          -25.6061         estimate D2E/DX2                !
 ! D15   D(10,1,9,13)         -146.6453         estimate D2E/DX2                !
 ! D16   D(11,1,9,6)          -145.9195         estimate D2E/DX2                !
 ! D17   D(11,1,9,12)           93.7346         estimate D2E/DX2                !
 ! D18   D(11,1,9,13)          -27.3046         estimate D2E/DX2                !
 ! D19   D(2,1,11,17)          -60.4275         estimate D2E/DX2                !
 ! D20   D(9,1,11,17)           57.673          estimate D2E/DX2                !
 ! D21   D(10,1,11,17)         178.9614         estimate D2E/DX2                !
 ! D22   D(1,2,3,6)             -8.3215         estimate D2E/DX2                !
 ! D23   D(1,2,3,7)           -124.4532         estimate D2E/DX2                !
 ! D24   D(1,2,3,8)            114.3018         estimate D2E/DX2                !
 ! D25   D(4,2,3,6)            110.1486         estimate D2E/DX2                !
 ! D26   D(4,2,3,7)             -5.9831         estimate D2E/DX2                !
 ! D27   D(4,2,3,8)           -127.2281         estimate D2E/DX2                !
 ! D28   D(5,2,3,6)           -128.9588         estimate D2E/DX2                !
 ! D29   D(5,2,3,7)            114.9096         estimate D2E/DX2                !
 ! D30   D(5,2,3,8)             -6.3355         estimate D2E/DX2                !
 ! D31   D(1,2,4,18)           -67.4903         estimate D2E/DX2                !
 ! D32   D(3,2,4,18)           177.8353         estimate D2E/DX2                !
 ! D33   D(5,2,4,18)            56.3582         estimate D2E/DX2                !
 ! D34   D(2,3,6,9)             -6.1971         estimate D2E/DX2                !
 ! D35   D(7,3,6,9)            108.6818         estimate D2E/DX2                !
 ! D36   D(8,3,6,9)           -132.0419         estimate D2E/DX2                !
 ! D37   D(2,3,8,20)           123.4555         estimate D2E/DX2                !
 ! D38   D(2,3,8,24)           -56.3516         estimate D2E/DX2                !
 ! D39   D(6,3,8,20)          -115.4074         estimate D2E/DX2                !
 ! D40   D(6,3,8,24)            64.7854         estimate D2E/DX2                !
 ! D41   D(7,3,8,20)             3.5357         estimate D2E/DX2                !
 ! D42   D(7,3,8,24)          -176.2714         estimate D2E/DX2                !
 ! D43   D(3,6,9,1)             18.3161         estimate D2E/DX2                !
 ! D44   D(3,6,9,12)           142.3466         estimate D2E/DX2                !
 ! D45   D(3,6,9,13)           -99.3682         estimate D2E/DX2                !
 ! D46   D(3,8,20,21)         -178.938          estimate D2E/DX2                !
 ! D47   D(3,8,20,25)            0.8496         estimate D2E/DX2                !
 ! D48   D(24,8,20,21)           0.8744         estimate D2E/DX2                !
 ! D49   D(24,8,20,25)        -179.3381         estimate D2E/DX2                !
 ! D50   D(3,8,24,23)          177.9296         estimate D2E/DX2                !
 ! D51   D(3,8,24,28)           -0.9971         estimate D2E/DX2                !
 ! D52   D(20,8,24,23)          -1.8854         estimate D2E/DX2                !
 ! D53   D(20,8,24,28)         179.188          estimate D2E/DX2                !
 ! D54   D(1,9,12,14)           48.8903         estimate D2E/DX2                !
 ! D55   D(1,9,12,15)          -71.6561         estimate D2E/DX2                !
 ! D56   D(1,9,12,16)          172.7153         estimate D2E/DX2                !
 ! D57   D(6,9,12,14)          -70.6862         estimate D2E/DX2                !
 ! D58   D(6,9,12,15)          168.7674         estimate D2E/DX2                !
 ! D59   D(6,9,12,16)           53.1387         estimate D2E/DX2                !
 ! D60   D(13,9,12,14)         170.0214         estimate D2E/DX2                !
 ! D61   D(13,9,12,15)          49.475          estimate D2E/DX2                !
 ! D62   D(13,9,12,16)         -66.1536         estimate D2E/DX2                !
 ! D63   D(9,12,14,19)          24.5911         estimate D2E/DX2                !
 ! D64   D(15,12,14,19)        145.0356         estimate D2E/DX2                !
 ! D65   D(16,12,14,19)        -97.0841         estimate D2E/DX2                !
 ! D66   D(8,20,21,22)           0.7992         estimate D2E/DX2                !
 ! D67   D(8,20,21,26)         179.4218         estimate D2E/DX2                !
 ! D68   D(25,20,21,22)       -179.0003         estimate D2E/DX2                !
 ! D69   D(25,20,21,26)         -0.3777         estimate D2E/DX2                !
 ! D70   D(20,21,22,23)         -1.5396         estimate D2E/DX2                !
 ! D71   D(20,21,22,27)        178.5718         estimate D2E/DX2                !
 ! D72   D(26,21,22,23)        179.753          estimate D2E/DX2                !
 ! D73   D(26,21,22,27)         -0.1357         estimate D2E/DX2                !
 ! D74   D(21,22,23,24)          0.4772         estimate D2E/DX2                !
 ! D75   D(27,22,23,24)       -179.6467         estimate D2E/DX2                !
 ! D76   D(22,23,24,8)           1.1788         estimate D2E/DX2                !
 ! D77   D(22,23,24,28)       -179.9336         estimate D2E/DX2                !
 --------------------------------------------------------------------------------
 Trust Radius=3.00D-01 FncErr=1.00D-07 GrdErr=1.00D-06 EigMax=2.50D+02 EigMin=1.00D-04
 Number of steps in this run=    166 maximum allowed number of steps=    168.
 GradGradGradGradGradGradGradGradGradGradGradGradGradGradGradGradGradGrad

                          Input orientation:                          
 ---------------------------------------------------------------------
 Center     Atomic      Atomic             Coordinates (Angstroms)
 Number     Number       Type             X           Y           Z
 ---------------------------------------------------------------------
      1          6           0        2.311972   -0.196761   -0.627620
      2          6           0        1.221246   -1.282311   -0.580321
      3          6           0        0.380621   -0.952677    0.661263
      4          8           0        1.796793   -2.578778   -0.388820
      5          1           0        0.606195   -1.271225   -1.489001
      6          8           0        1.061538    0.093035    1.367657
      7          1           0        0.377766   -1.859128    1.292068
      8          6           0       -1.027004   -0.545804    0.384903
      9          6           0        2.321616    0.378717    0.793772
     10          1           0        2.025409    0.576752   -1.344274
     11          8           0        3.577687   -0.686969   -1.041351
     12          6           0        2.554504    1.878484    0.862582
     13          1           0        3.125116   -0.126683    1.373306
     14          8           0        1.747483    2.626765   -0.002044
     15          1           0        3.610461    2.073007    0.604683
     16          1           0        2.406940    2.186353    1.916157
     17          1           0        3.832218   -1.356916   -0.396002
     18          1           0        2.289316   -2.777125   -1.192334
     19          1           0        0.921156    2.132255   -0.216099
     20          6           0       -2.077894   -1.198537    0.930518
     21          7           0       -3.344875   -0.810557    0.636950
     22          6           0       -3.632457    0.260977   -0.247464
     23          7           0       -2.593501    0.930001   -0.785952
     24          6           0       -1.315923    0.593383   -0.507174
     25          1           0       -1.961625   -2.045563    1.610112
     26          1           0       -4.149745   -1.281326    1.020122
     27          8           0       -4.831434    0.491834   -0.447997
     28          8           0       -0.343901    1.216697   -1.007255
 ---------------------------------------------------------------------
                    Distance matrix (angstroms):
                    1          2          3          4          5
     1  C    0.000000
     2  C    1.539591   0.000000
     3  C    2.441873   1.535200   0.000000
     4  O    2.448763   1.431347   2.398421   0.000000
     5  H    2.192288   1.097319   2.185404   2.082695   0.000000
     6  O    2.372488   2.389917   1.433930   3.280914   3.198287
     7  H    3.192150   2.133077   1.104344   2.314502   2.851693
     8  C    3.506536   2.555138   1.491083   3.564472   2.589419
     9  C    1.533500   2.420322   2.357463   3.228117   3.297883
    10  H    1.092718   2.164814   3.011089   3.304925   2.334552
    11  O    1.418983   2.473822   3.631904   2.678866   3.061292
    12  C    2.566353   3.721582   3.575160   4.691196   4.387085
    13  H    2.160976   2.962576   2.953223   3.298833   3.980922
    14  O    2.946573   3.986503   3.888534   5.220125   4.325264
    15  H    2.890760   4.286110   4.426040   5.090731   4.959134
    16  H    3.486983   4.435076   3.941350   5.328384   5.176160
    17  H    1.926332   2.618533   3.632457   2.374016   3.407230
    18  H    2.641532   1.936441   3.226073   0.963097   2.277859
    19  H    2.743726   3.447024   3.252499   4.794831   3.647349
    20  C    4.764690   3.629597   2.485406   4.319597   3.614373
    21  N    5.828876   4.749080   3.728285   5.533133   4.510303
    22  C    5.974134   5.104015   4.289934   6.128699   4.674958
    23  N    5.035705   4.414624   3.805826   5.634175   3.946863
    24  C    3.714897   3.156074   2.575618   4.445854   2.852242
    25  H    5.166154   3.938428   2.753331   4.290193   4.098512
    26  H    6.756117   5.604370   4.556425   6.247385   5.377245
    27  O    7.178766   6.308727   5.521104   7.305173   5.810325
    28  O    3.032433   2.979429   2.831090   4.401212   2.706385
                    6          7          8          9         10
     6  O    0.000000
     7  H    2.069830   0.000000
     8  C    2.394980   2.126299   0.000000
     9  C    1.413773   3.005795   3.497881   0.000000
    10  H    2.918493   3.949498   3.683397   2.167533   0.000000
    11  O    3.569696   4.130169   4.822583   2.465984   2.024431
    12  C    2.381570   4.346538   4.351155   1.519300   2.616230
    13  H    2.075250   3.248984   4.288672   1.112161   3.014866
    14  O    2.960809   4.865602   4.232340   2.452890   2.466045
    15  H    3.316538   5.136585   5.330343   2.137170   2.923970
    16  H    2.548125   4.568692   4.647730   2.129454   3.656062
    17  H    3.590198   3.877504   4.987961   2.590348   2.811201
    18  H    4.037179   3.266343   4.297028   3.728941   3.367673
    19  H    2.585809   4.301276   3.365788   2.460899   2.216245
    20  C    3.422759   2.568534   1.352082   4.675694   5.016316
    21  N    4.557070   3.922593   2.346518   5.792071   5.889807
    22  C    4.966932   4.790291   2.799852   6.045579   5.771841
    23  N    4.324102   4.574477   2.450064   5.192092   4.665923
    24  C    3.068821   3.481474   1.475474   3.869138   3.444635
    25  H    3.711051   2.368261   2.150333   4.988958   5.612608
    26  H    5.400659   4.572326   3.270475   6.684721   6.868431
    27  O    6.179220   5.974162   4.030397   7.260917   6.915694
    28  O    2.979611   3.907479   2.347582   3.324288   2.477245
                   11         12         13         14         15
    11  O    0.000000
    12  C    3.354611   0.000000
    13  H    2.519784   2.146423   0.000000
    14  O    3.925639   1.399566   3.372082   0.000000
    15  H    3.213716   1.104263   2.380121   2.036038   0.000000
    16  H    4.286430   1.107510   2.482056   2.075654   1.783613
    17  H    0.964412   3.699243   2.268021   4.513429   3.579793
    18  H    2.459969   5.095851   3.782316   5.559892   5.338396
    19  H    3.960584   1.973773   3.533617   0.986497   2.812393
    20  C    6.011287   5.561635   5.330689   5.489637   6.570126
    21  N    7.124172   6.487259   6.547571   6.177022   7.529454
    22  C    7.315397   6.490533   6.960026   5.882256   7.514617
    23  N    6.384621   5.488100   6.203350   4.726274   6.459835
    24  C    5.086459   4.302083   4.876221   3.711368   5.262582
    25  H    6.289675   6.029292   5.441793   6.179577   7.001546
    26  H    8.019734   7.413243   7.374384   7.148097   8.464333
    27  O    8.512048   7.628401   8.185743   6.931014   8.652967
    28  O    4.359353   3.512122   4.416539   2.715258   4.355294
                   16         17         18         19         20
    16  H    0.000000
    17  H    4.464555   0.000000
    18  H    5.857701   2.243142   0.000000
    19  H    2.599422   4.547632   5.189114   0.000000
    20  C    5.704621   6.059221   5.105973   4.626360   0.000000
    21  N    6.610690   7.271600   6.241617   5.252319   1.357185
    22  C    6.697958   7.639438   6.722369   4.923216   2.436081
    23  N    5.821016   6.831685   6.144089   3.758053   2.782588
    24  C    4.719088   5.506304   4.982722   2.730819   2.420441
    25  H    6.089921   6.169874   5.143869   5.394408   1.092163
    26  H    7.471131   8.106963   6.970931   6.236571   2.075440
    27  O    7.800941   8.858863   7.870528   5.986405   3.512782
    28  O    4.129612   4.943388   4.787348   1.750584   3.548951
                   21         22         23         24         25
    21  N    0.000000
    22  C    1.418829   0.000000
    23  N    2.370391   1.347958   0.000000
    24  C    2.719690   2.354628   1.350272   0.000000
    25  H    2.094198   3.400352   3.872257   3.444396   0.000000
    26  H    1.008097   2.062295   3.251733   3.725280   2.391655
    27  O    2.254593   1.237358   2.305330   3.517475   4.348563
    28  O    3.977312   3.507889   2.278567   1.258343   4.484415
                   26         27         28
    26  H    0.000000
    27  O    2.400869   0.000000
    28  O    4.983455   4.579973   0.000000
 Stoichiometry    C9H11N2O6(2)
 Framework group  C1[X(C9H11N2O6)]
 Deg. of freedom    78
 Full point group                 C1      NOp   1
 Largest Abelian subgroup         C1      NOp   1
 Largest concise Abelian subgroup C1      NOp   1
                         Standard orientation:                         
 ---------------------------------------------------------------------
 Center     Atomic      Atomic             Coordinates (Angstroms)
 Number     Number       Type             X           Y           Z
 ---------------------------------------------------------------------
      1          6           0        2.311972   -0.196761   -0.627620
      2          6           0        1.221246   -1.282311   -0.580321
      3          6           0        0.380621   -0.952677    0.661263
      4          8           0        1.796793   -2.578778   -0.388820
      5          1           0        0.606195   -1.271225   -1.489001
      6          8           0        1.061538    0.093035    1.367657
      7          1           0        0.377766   -1.859128    1.292068
      8          6           0       -1.027004   -0.545804    0.384903
      9          6           0        2.321616    0.378717    0.793772
     10          1           0        2.025409    0.576752   -1.344274
     11          8           0        3.577687   -0.686969   -1.041351
     12          6           0        2.554504    1.878484    0.862582
     13          1           0        3.125116   -0.126683    1.373306
     14          8           0        1.747483    2.626765   -0.002044
     15          1           0        3.610461    2.073007    0.604683
     16          1           0        2.406940    2.186353    1.916157
     17          1           0        3.832218   -1.356916   -0.396002
     18          1           0        2.289316   -2.777125   -1.192334
     19          1           0        0.921156    2.132255   -0.216099
     20          6           0       -2.077894   -1.198537    0.930518
     21          7           0       -3.344875   -0.810557    0.636950
     22          6           0       -3.632457    0.260977   -0.247464
     23          7           0       -2.593501    0.930001   -0.785952
     24          6           0       -1.315923    0.593383   -0.507174
     25          1           0       -1.961625   -2.045563    1.610112
     26          1           0       -4.149745   -1.281326    1.020122
     27          8           0       -4.831434    0.491834   -0.447997
     28          8           0       -0.343901    1.216697   -1.007255
 ---------------------------------------------------------------------
 Rotational constants (GHZ):           0.9094414           0.3078484           0.2654855
 Standard basis: Aug-CC-pVDZ (5D, 7F)
 There are   524 symmetry adapted cartesian basis functions of A   symmetry.
 There are   490 symmetry adapted basis functions of A   symmetry.
   490 basis functions,   852 primitive gaussians,   524 cartesian basis functions
    64 alpha electrons       63 beta electrons
       nuclear repulsion energy      1307.8873799346 Hartrees.
 NAtoms=   28 NActive=   28 NUniq=   28 SFac= 1.00D+00 NAtFMM=   60 NAOKFM=F Big=F
 Integral buffers will be    131072 words long.
 Raffenetti 2 integral format.
 Two-electron integral symmetry is turned on.
 Nuclear repulsion after empirical dispersion term =     1307.8675136360 Hartrees.
 One-electron integrals computed using PRISM.
 NBasis=   490 RedAO= T EigKep=  2.12D-06  NBF=   490
 NBsUse=   490 1.00D-06 EigRej= -1.00D+00 NBFU=   490
 ExpMin= 2.97D-02 ExpMax= 1.17D+04 ExpMxC= 4.01D+02 IAcc=3 IRadAn=         5 AccDes= 0.00D+00
 Harris functional with IExCor= 1009 and IRadAn=       5 diagonalized for initial guess.
 HarFok:  IExCor= 1009 AccDes= 0.00D+00 IRadAn=         5 IDoV= 1 UseB2=F ITyADJ=14
 ICtDFT=  3500011 ScaDFX=  1.000000  1.000000  1.000000  1.000000
 FoFCou: FMM=F IPFlag=           0 FMFlag=      100000 FMFlg1=           0
         NFxFlg=           0 DoJE=T BraDBF=F KetDBF=T FulRan=T
         wScrn=  0.000000 ICntrl=       500 IOpCl=  0 I1Cent=   200000004 NGrid=           0
         NMat0=    1 NMatS0=      1 NMatT0=    0 NMatD0=    1 NMtDS0=    0 NMtDT0=    0
 Petite list used in FoFCou.
 Initial guess <Sx>= 0.0000 <Sy>= 0.0000 <Sz>= 0.5000 <S**2>= 0.7500 S= 0.5000
 Requested convergence on RMS density matrix=1.00D-08 within 128 cycles.
 Requested convergence on MAX density matrix=1.00D-06.
 Requested convergence on             energy=1.00D-06.
 No special actions if energy rises.
 Restarting incremental Fock formation.
 SCF Done:  E(UPBE1PBE) =  -909.515182521     A.U. after   34 cycles
            NFock= 34  Conv=0.79D-08     -V/T= 2.0054
 <Sx>= 0.0000 <Sy>= 0.0000 <Sz>= 0.5000 <S**2>= 0.7748 S= 0.5123
 <L.S>= 0.000000000000E+00
 Annihilation of the first spin contaminant:
 S**2 before annihilation     0.7748,   after     0.7504

 **********************************************************************

            Population analysis using the SCF Density.

 **********************************************************************

 Orbital symmetries:
 Alpha Orbitals:
       Occupied  (A) (A) (A) (A) (A) (A) (A) (A) (A) (A) (A) (A)
                 (A) (A) (A) (A) (A) (A) (A) (A) (A) (A) (A) (A)
                 (A) (A) (A) (A) (A) (A) (A) (A) (A) (A) (A) (A)
                 (A) (A) (A) (A) (A) (A) (A) (A) (A) (A) (A) (A)
                 (A) (A) (A) (A) (A) (A) (A) (A) (A) (A) (A) (A)
                 (A) (A) (A) (A)
       Virtual   (A) (A) (A) (A) (A) (A) (A) (A) (A) (A) (A) (A)
                 (A) (A) (A) (A) (A) (A) (A) (A) (A) (A) (A) (A)
                 (A) (A) (A) (A) (A) (A) (A) (A) (A) (A) (A) (A)
                 (A) (A) (A) (A) (A) (A) (A) (A) (A) (A) (A) (A)
                 (A) (A) (A) (A) (A) (A) (A) (A) (A) (A) (A) (A)
                 (A) (A) (A) (A) (A) (A) (A) (A) (A) (A) (A) (A)
                 (A) (A) (A) (A) (A) (A) (A) (A) (A) (A) (A) (A)
                 (A) (A) (A) (A) (A) (A) (A) (A) (A) (A) (A) (A)
                 (A) (A) (A) (A) (A) (A) (A) (A) (A) (A) (A) (A)
                 (A) (A) (A) (A) (A) (A) (A) (A) (A) (A) (A) (A)
                 (A) (A) (A) (A) (A) (A) (A) (A) (A) (A) (A) (A)
                 (A) (A) (A) (A) (A) (A) (A) (A) (A) (A) (A) (A)
                 (A) (A) (A) (A) (A) (A) (A) (A) (A) (A) (A) (A)
                 (A) (A) (A) (A) (A) (A) (A) (A) (A) (A) (A) (A)
                 (A) (A) (A) (A) (A) (A) (A) (A) (A) (A) (A) (A)
                 (A) (A) (A) (A) (A) (A) (A) (A) (A) (A) (A) (A)
                 (A) (A) (A) (A) (A) (A) (A) (A) (A) (A) (A) (A)
                 (A) (A) (A) (A) (A) (A) (A) (A) (A) (A) (A) (A)
                 (A) (A) (A) (A) (A) (A) (A) (A) (A) (A) (A) (A)
                 (A) (A) (A) (A) (A) (A) (A) (A) (A) (A) (A) (A)
                 (A) (A) (A) (A) (A) (A) (A) (A) (A) (A) (A) (A)
                 (A) (A) (A) (A) (A) (A) (A) (A) (A) (A) (A) (A)
                 (A) (A) (A) (A) (A) (A) (A) (A) (A) (A) (A) (A)
                 (A) (A) (A) (A) (A) (A) (A) (A) (A) (A) (A) (A)
                 (A) (A) (A) (A) (A) (A) (A) (A) (A) (A) (A) (A)
                 (A) (A) (A) (A) (A) (A) (A) (A) (A) (A) (A) (A)
                 (A) (A) (A) (A) (A) (A) (A) (A) (A) (A) (A) (A)
                 (A) (A) (A) (A) (A) (A) (A) (A) (A) (A) (A) (A)
                 (A) (A) (A) (A) (A) (A) (A) (A) (A) (A) (A) (A)
                 (A) (A) (A) (A) (A) (A) (A) (A) (A) (A) (A) (A)
                 (A) (A) (A) (A) (A) (A) (A) (A) (A) (A) (A) (A)
                 (A) (A) (A) (A) (A) (A) (A) (A) (A) (A) (A) (A)
                 (A) (A) (A) (A) (A) (A) (A) (A) (A) (A) (A) (A)
                 (A) (A) (A) (A) (A) (A) (A) (A) (A) (A) (A) (A)
                 (A) (A) (A) (A) (A) (A) (A) (A) (A) (A) (A) (A)
                 (A) (A) (A) (A) (A) (A)
 Beta  Orbitals:
       Occupied  (A) (A) (A) (A) (A) (A) (A) (A) (A) (A) (A) (A)
                 (A) (A) (A) (A) (A) (A) (A) (A) (A) (A) (A) (A)
                 (A) (A) (A) (A) (A) (A) (A) (A) (A) (A) (A) (A)
                 (A) (A) (A) (A) (A) (A) (A) (A) (A) (A) (A) (A)
                 (A) (A) (A) (A) (A) (A) (A) (A) (A) (A) (A) (A)
                 (A) (A) (A)
       Virtual   (A) (A) (A) (A) (A) (A) (A) (A) (A) (A) (A) (A)
                 (A) (A) (A) (A) (A) (A) (A) (A) (A) (A) (A) (A)
                 (A) (A) (A) (A) (A) (A) (A) (A) (A) (A) (A) (A)
                 (A) (A) (A) (A) (A) (A) (A) (A) (A) (A) (A) (A)
                 (A) (A) (A) (A) (A) (A) (A) (A) (A) (A) (A) (A)
                 (A) (A) (A) (A) (A) (A) (A) (A) (A) (A) (A) (A)
                 (A) (A) (A) (A) (A) (A) (A) (A) (A) (A) (A) (A)
                 (A) (A) (A) (A) (A) (A) (A) (A) (A) (A) (A) (A)
                 (A) (A) (A) (A) (A) (A) (A) (A) (A) (A) (A) (A)
                 (A) (A) (A) (A) (A) (A) (A) (A) (A) (A) (A) (A)
                 (A) (A) (A) (A) (A) (A) (A) (A) (A) (A) (A) (A)
                 (A) (A) (A) (A) (A) (A) (A) (A) (A) (A) (A) (A)
                 (A) (A) (A) (A) (A) (A) (A) (A) (A) (A) (A) (A)
                 (A) (A) (A) (A) (A) (A) (A) (A) (A) (A) (A) (A)
                 (A) (A) (A) (A) (A) (A) (A) (A) (A) (A) (A) (A)
                 (A) (A) (A) (A) (A) (A) (A) (A) (A) (A) (A) (A)
                 (A) (A) (A) (A) (A) (A) (A) (A) (A) (A) (A) (A)
                 (A) (A) (A) (A) (A) (A) (A) (A) (A) (A) (A) (A)
                 (A) (A) (A) (A) (A) (A) (A) (A) (A) (A) (A) (A)
                 (A) (A) (A) (A) (A) (A) (A) (A) (A) (A) (A) (A)
                 (A) (A) (A) (A) (A) (A) (A) (A) (A) (A) (A) (A)
                 (A) (A) (A) (A) (A) (A) (A) (A) (A) (A) (A) (A)
                 (A) (A) (A) (A) (A) (A) (A) (A) (A) (A) (A) (A)
                 (A) (A) (A) (A) (A) (A) (A) (A) (A) (A) (A) (A)
                 (A) (A) (A) (A) (A) (A) (A) (A) (A) (A) (A) (A)
                 (A) (A) (A) (A) (A) (A) (A) (A) (A) (A) (A) (A)
                 (A) (A) (A) (A) (A) (A) (A) (A) (A) (A) (A) (A)
                 (A) (A) (A) (A) (A) (A) (A) (A) (A) (A) (A) (A)
                 (A) (A) (A) (A) (A) (A) (A) (A) (A) (A) (A) (A)
                 (A) (A) (A) (A) (A) (A) (A) (A) (A) (A) (A) (A)
                 (A) (A) (A) (A) (A) (A) (A) (A) (A) (A) (A) (A)
                 (A) (A) (A) (A) (A) (A) (A) (A) (A) (A) (A) (A)
                 (A) (A) (A) (A) (A) (A) (A) (A) (A) (A) (A) (A)
                 (A) (A) (A) (A) (A) (A) (A) (A) (A) (A) (A) (A)
                 (A) (A) (A) (A) (A) (A) (A) (A) (A) (A) (A) (A)
                 (A) (A) (A) (A) (A) (A) (A)
 The electronic state is 2-A.
 Alpha  occ. eigenvalues --  -19.27911 -19.26512 -19.25991 -19.24905 -19.21103
 Alpha  occ. eigenvalues --  -19.19823 -14.52035 -14.43376 -10.40786 -10.36326
 Alpha  occ. eigenvalues --  -10.36294 -10.32955 -10.31518 -10.31485 -10.29572
 Alpha  occ. eigenvalues --  -10.29514 -10.27080  -1.15353  -1.11900  -1.09205
 Alpha  occ. eigenvalues --   -1.08037  -1.06842  -1.05292  -1.03161  -0.96306
 Alpha  occ. eigenvalues --   -0.89073  -0.81269  -0.80281  -0.73279  -0.70218
 Alpha  occ. eigenvalues --   -0.69988  -0.65795  -0.63385  -0.61871  -0.61313
 Alpha  occ. eigenvalues --   -0.56929  -0.56250  -0.54002  -0.53493  -0.52454
 Alpha  occ. eigenvalues --   -0.51767  -0.50875  -0.49495  -0.49170  -0.47342
 Alpha  occ. eigenvalues --   -0.45216  -0.44532  -0.44119  -0.43347  -0.43130
 Alpha  occ. eigenvalues --   -0.41820  -0.40822  -0.37652  -0.36120  -0.35677
 Alpha  occ. eigenvalues --   -0.34974  -0.33522  -0.32982  -0.32435  -0.31247
 Alpha  occ. eigenvalues --   -0.30516  -0.29439  -0.28651  -0.26787
 Alpha virt. eigenvalues --   -0.07672  -0.03589  -0.03184  -0.01567  -0.00211
 Alpha virt. eigenvalues --    0.00692   0.01154   0.02560   0.02931   0.03598
 Alpha virt. eigenvalues --    0.03982   0.04331   0.05234   0.05553   0.05739
 Alpha virt. eigenvalues --    0.06020   0.06182   0.07090   0.07328   0.07639
 Alpha virt. eigenvalues --    0.08027   0.08674   0.08975   0.09076   0.09476
 Alpha virt. eigenvalues --    0.09976   0.10113   0.10390   0.11360   0.11630
 Alpha virt. eigenvalues --    0.11739   0.12132   0.12344   0.12639   0.13069
 Alpha virt. eigenvalues --    0.13518   0.13821   0.14372   0.14501   0.14554
 Alpha virt. eigenvalues --    0.15458   0.15508   0.15558   0.16260   0.16560
 Alpha virt. eigenvalues --    0.16949   0.17704   0.18094   0.18219   0.18354
 Alpha virt. eigenvalues --    0.19090   0.19517   0.20298   0.20648   0.20882
 Alpha virt. eigenvalues --    0.21223   0.21604   0.22053   0.22420   0.22776
 Alpha virt. eigenvalues --    0.23093   0.23495   0.23638   0.23924   0.24390
 Alpha virt. eigenvalues --    0.24497   0.24668   0.25131   0.25654   0.26142
 Alpha virt. eigenvalues --    0.26319   0.26553   0.27145   0.27264   0.27343
 Alpha virt. eigenvalues --    0.27773   0.28234   0.28502   0.28886   0.29350
 Alpha virt. eigenvalues --    0.29833   0.30054   0.30315   0.30795   0.31063
 Alpha virt. eigenvalues --    0.31191   0.32169   0.32349   0.32965   0.33215
 Alpha virt. eigenvalues --    0.33427   0.33686   0.34600   0.34985   0.35192
 Alpha virt. eigenvalues --    0.35978   0.36361   0.36994   0.37288   0.37522
 Alpha virt. eigenvalues --    0.37863   0.38690   0.38854   0.39524   0.39831
 Alpha virt. eigenvalues --    0.40564   0.40856   0.41318   0.41541   0.42335
 Alpha virt. eigenvalues --    0.42647   0.42975   0.43909   0.44030   0.44506
 Alpha virt. eigenvalues --    0.45344   0.45523   0.45902   0.46156   0.46998
 Alpha virt. eigenvalues --    0.47547   0.48347   0.48695   0.49386   0.50677
 Alpha virt. eigenvalues --    0.50969   0.51691   0.52198   0.52665   0.53468
 Alpha virt. eigenvalues --    0.53631   0.54446   0.55092   0.55360   0.56064
 Alpha virt. eigenvalues --    0.56284   0.56881   0.57328   0.57667   0.58348
 Alpha virt. eigenvalues --    0.58763   0.59231   0.59444   0.60354   0.61017
 Alpha virt. eigenvalues --    0.61750   0.62173   0.62482   0.62915   0.63214
 Alpha virt. eigenvalues --    0.63693   0.64067   0.64651   0.65513   0.65792
 Alpha virt. eigenvalues --    0.66622   0.66755   0.67648   0.67826   0.68125
 Alpha virt. eigenvalues --    0.68792   0.69536   0.69939   0.70106   0.70838
 Alpha virt. eigenvalues --    0.70978   0.71346   0.72011   0.73293   0.73787
 Alpha virt. eigenvalues --    0.74534   0.74907   0.75129   0.75715   0.76878
 Alpha virt. eigenvalues --    0.77727   0.78229   0.79316   0.79572   0.79907
 Alpha virt. eigenvalues --    0.80643   0.81034   0.81591   0.82371   0.82926
 Alpha virt. eigenvalues --    0.83597   0.84608   0.85105   0.85998   0.86868
 Alpha virt. eigenvalues --    0.87544   0.88335   0.88451   0.89379   0.90808
 Alpha virt. eigenvalues --    0.91852   0.92568   0.93325   0.94007   0.94588
 Alpha virt. eigenvalues --    0.95528   0.96360   0.96944   0.97554   0.98531
 Alpha virt. eigenvalues --    0.98847   0.99524   1.00887   1.01415   1.02393
 Alpha virt. eigenvalues --    1.03745   1.03907   1.06680   1.06933   1.07628
 Alpha virt. eigenvalues --    1.08669   1.09169   1.09892   1.10814   1.11502
 Alpha virt. eigenvalues --    1.11874   1.12874   1.13603   1.15136   1.15611
 Alpha virt. eigenvalues --    1.17109   1.17889   1.18852   1.19249   1.20348
 Alpha virt. eigenvalues --    1.21696   1.22543   1.23628   1.24491   1.24870
 Alpha virt. eigenvalues --    1.25933   1.27072   1.27200   1.28402   1.30034
 Alpha virt. eigenvalues --    1.31180   1.31365   1.31940   1.32953   1.33734
 Alpha virt. eigenvalues --    1.34968   1.35263   1.36217   1.38018   1.38758
 Alpha virt. eigenvalues --    1.39494   1.40760   1.41990   1.43683   1.44157
 Alpha virt. eigenvalues --    1.44648   1.45535   1.46939   1.47593   1.49357
 Alpha virt. eigenvalues --    1.49835   1.50554   1.52027   1.52246   1.53276
 Alpha virt. eigenvalues --    1.55344   1.56268   1.57079   1.58348   1.59290
 Alpha virt. eigenvalues --    1.60061   1.60591   1.61230   1.62947   1.63623
 Alpha virt. eigenvalues --    1.64395   1.65871   1.66052   1.67866   1.68600
 Alpha virt. eigenvalues --    1.69065   1.70103   1.70965   1.71963   1.72904
 Alpha virt. eigenvalues --    1.73740   1.75580   1.75998   1.76977   1.77804
 Alpha virt. eigenvalues --    1.79289   1.79571   1.81150   1.82164   1.82387
 Alpha virt. eigenvalues --    1.83545   1.85108   1.85458   1.85651   1.87402
 Alpha virt. eigenvalues --    1.87811   1.88488   1.89782   1.91350   1.93566
 Alpha virt. eigenvalues --    1.94912   1.95205   1.95671   1.96230   1.97583
 Alpha virt. eigenvalues --    1.99137   2.00378   2.00985   2.03369   2.04407
 Alpha virt. eigenvalues --    2.05013   2.05653   2.07382   2.07545   2.08843
 Alpha virt. eigenvalues --    2.09569   2.11024   2.11821   2.12464   2.12899
 Alpha virt. eigenvalues --    2.13799   2.14333   2.15868   2.17868   2.18097
 Alpha virt. eigenvalues --    2.20857   2.21697   2.21992   2.24269   2.24957
 Alpha virt. eigenvalues --    2.26545   2.26771   2.27875   2.29226   2.30238
 Alpha virt. eigenvalues --    2.32111   2.33929   2.34337   2.36724   2.38478
 Alpha virt. eigenvalues --    2.40130   2.40469   2.41473   2.42521   2.43786
 Alpha virt. eigenvalues --    2.45077   2.47282   2.47741   2.48420   2.49749
 Alpha virt. eigenvalues --    2.50834   2.51384   2.53956   2.55226   2.56260
 Alpha virt. eigenvalues --    2.59495   2.62126   2.62622   2.63824   2.64832
 Alpha virt. eigenvalues --    2.68282   2.69708   2.71398   2.73251   2.76639
 Alpha virt. eigenvalues --    2.77739   2.78056   2.79686   2.80361   2.83131
 Alpha virt. eigenvalues --    2.85967   2.87184   2.88593   2.92672   2.97324
 Alpha virt. eigenvalues --    2.97591   3.00044   3.00773   3.07510   3.14515
 Alpha virt. eigenvalues --    3.18652   3.23394   3.23791   3.27821   3.30043
 Alpha virt. eigenvalues --    3.34493   3.36138   3.36984   3.37264   3.41529
 Alpha virt. eigenvalues --    3.45127   3.45760   3.48603   3.49695   3.50857
 Alpha virt. eigenvalues --    3.51607   3.53416   3.55164   3.56831   3.58898
 Alpha virt. eigenvalues --    3.59027   3.61321   3.62640   3.63496   3.64269
 Alpha virt. eigenvalues --    3.65821   3.70367   3.72405   3.73413   3.74220
 Alpha virt. eigenvalues --    3.76397   3.78316   3.85176   3.91397   3.96899
 Alpha virt. eigenvalues --    3.99169   4.01752   4.06033   4.20117   4.25342
 Alpha virt. eigenvalues --    5.13883
  Beta  occ. eigenvalues --  -19.26785 -19.26341 -19.25988 -19.24887 -19.21128
  Beta  occ. eigenvalues --  -19.19795 -14.51704 -14.42871 -10.41018 -10.36411
  Beta  occ. eigenvalues --  -10.36228 -10.32980 -10.31440 -10.31140 -10.29574
  Beta  occ. eigenvalues --  -10.29501 -10.27081  -1.13773  -1.11658  -1.09081
  Beta  occ. eigenvalues --   -1.07666  -1.06808  -1.04333  -1.03084  -0.95276
  Beta  occ. eigenvalues --   -0.88132  -0.81080  -0.80082  -0.72985  -0.69963
  Beta  occ. eigenvalues --   -0.69804  -0.65613  -0.63241  -0.61611  -0.61057
  Beta  occ. eigenvalues --   -0.56855  -0.56068  -0.53445  -0.52366  -0.52301
  Beta  occ. eigenvalues --   -0.50915  -0.49989  -0.49391  -0.48949  -0.47177
  Beta  occ. eigenvalues --   -0.44904  -0.44100  -0.43191  -0.42705  -0.41958
  Beta  occ. eigenvalues --   -0.40740  -0.40223  -0.37451  -0.35571  -0.34826
  Beta  occ. eigenvalues --   -0.34635  -0.33393  -0.31691  -0.30513  -0.30300
  Beta  occ. eigenvalues --   -0.28402  -0.27894  -0.26555
  Beta virt. eigenvalues --   -0.22415  -0.06265  -0.03160  -0.02227  -0.01544
  Beta virt. eigenvalues --   -0.00180   0.00729   0.01203   0.02634   0.02946
  Beta virt. eigenvalues --    0.03626   0.04014   0.04360   0.05257   0.05648
  Beta virt. eigenvalues --    0.05788   0.06072   0.06423   0.07127   0.07405
  Beta virt. eigenvalues --    0.07739   0.08271   0.08733   0.09033   0.09094
  Beta virt. eigenvalues --    0.09505   0.10110   0.10278   0.10561   0.11402
  Beta virt. eigenvalues --    0.11680   0.11786   0.12190   0.12410   0.12667
  Beta virt. eigenvalues --    0.13121   0.13617   0.13867   0.14472   0.14555
  Beta virt. eigenvalues --    0.14676   0.15514   0.15551   0.15690   0.16365
  Beta virt. eigenvalues --    0.16680   0.16982   0.17857   0.18135   0.18323
  Beta virt. eigenvalues --    0.18419   0.19167   0.19610   0.20378   0.20718
  Beta virt. eigenvalues --    0.20944   0.21311   0.21668   0.22131   0.22488
  Beta virt. eigenvalues --    0.22860   0.23212   0.23608   0.23799   0.23969
  Beta virt. eigenvalues --    0.24476   0.24551   0.24740   0.25280   0.25737
  Beta virt. eigenvalues --    0.26281   0.26449   0.26605   0.27230   0.27338
  Beta virt. eigenvalues --    0.27446   0.27831   0.28286   0.28582   0.28977
  Beta virt. eigenvalues --    0.29450   0.29933   0.30142   0.30386   0.30847
  Beta virt. eigenvalues --    0.31130   0.31231   0.32259   0.32411   0.33021
  Beta virt. eigenvalues --    0.33293   0.33490   0.33762   0.34688   0.35086
  Beta virt. eigenvalues --    0.35279   0.36129   0.36463   0.37089   0.37354
  Beta virt. eigenvalues --    0.37579   0.37977   0.38751   0.38939   0.39604
  Beta virt. eigenvalues --    0.39875   0.40672   0.40934   0.41364   0.41670
  Beta virt. eigenvalues --    0.42486   0.42772   0.43096   0.43981   0.44112
  Beta virt. eigenvalues --    0.44574   0.45396   0.45585   0.45975   0.46244
  Beta virt. eigenvalues --    0.47102   0.47664   0.48421   0.48773   0.49432
  Beta virt. eigenvalues --    0.50800   0.51088   0.51817   0.52332   0.52745
  Beta virt. eigenvalues --    0.53588   0.53698   0.54507   0.55211   0.55439
  Beta virt. eigenvalues --    0.56137   0.56459   0.56991   0.57479   0.57741
  Beta virt. eigenvalues --    0.58452   0.58847   0.59352   0.59627   0.60429
  Beta virt. eigenvalues --    0.61206   0.61886   0.62367   0.62582   0.63027
  Beta virt. eigenvalues --    0.63325   0.63844   0.64164   0.64793   0.65562
  Beta virt. eigenvalues --    0.65878   0.66749   0.66824   0.67866   0.67932
  Beta virt. eigenvalues --    0.68186   0.68923   0.69624   0.70034   0.70169
  Beta virt. eigenvalues --    0.70933   0.71030   0.71488   0.72054   0.73434
  Beta virt. eigenvalues --    0.73862   0.74645   0.75007   0.75331   0.75868
  Beta virt. eigenvalues --    0.76945   0.77839   0.78464   0.79396   0.79726
  Beta virt. eigenvalues --    0.80045   0.80808   0.81281   0.81787   0.82478
  Beta virt. eigenvalues --    0.83044   0.83700   0.84682   0.85180   0.86226
  Beta virt. eigenvalues --    0.86965   0.87673   0.88424   0.88666   0.89514
  Beta virt. eigenvalues --    0.90985   0.92040   0.92881   0.93573   0.94065
  Beta virt. eigenvalues --    0.94721   0.96105   0.96615   0.97073   0.97708
  Beta virt. eigenvalues --    0.98653   0.99005   0.99647   1.01226   1.01953
  Beta virt. eigenvalues --    1.02543   1.03844   1.04363   1.06811   1.07201
  Beta virt. eigenvalues --    1.07786   1.08954   1.09369   1.10145   1.10911
  Beta virt. eigenvalues --    1.11685   1.12093   1.13098   1.13725   1.15240
  Beta virt. eigenvalues --    1.15676   1.17221   1.18030   1.19087   1.19492
  Beta virt. eigenvalues --    1.20417   1.21798   1.22653   1.23739   1.24694
  Beta virt. eigenvalues --    1.25017   1.26070   1.27193   1.27411   1.28553
  Beta virt. eigenvalues --    1.30182   1.31453   1.31490   1.32116   1.33147
  Beta virt. eigenvalues --    1.33909   1.35118   1.35578   1.36558   1.38168
  Beta virt. eigenvalues --    1.38946   1.39610   1.40924   1.42178   1.43997
  Beta virt. eigenvalues --    1.44285   1.44901   1.45842   1.47051   1.47908
  Beta virt. eigenvalues --    1.49911   1.50446   1.50823   1.52390   1.52481
  Beta virt. eigenvalues --    1.53824   1.55464   1.56428   1.57208   1.58449
  Beta virt. eigenvalues --    1.59531   1.60257   1.60768   1.61405   1.63157
  Beta virt. eigenvalues --    1.63748   1.64492   1.66090   1.66183   1.67938
  Beta virt. eigenvalues --    1.68785   1.69195   1.70449   1.71143   1.72074
  Beta virt. eigenvalues --    1.73010   1.73897   1.75662   1.76152   1.77107
  Beta virt. eigenvalues --    1.77897   1.79455   1.79719   1.81265   1.82278
  Beta virt. eigenvalues --    1.82442   1.83751   1.85204   1.85561   1.85805
  Beta virt. eigenvalues --    1.87490   1.87862   1.88633   1.89929   1.91575
  Beta virt. eigenvalues --    1.93689   1.95077   1.95319   1.95900   1.96411
  Beta virt. eigenvalues --    1.97711   1.99250   2.00606   2.01114   2.03609
  Beta virt. eigenvalues --    2.04564   2.05052   2.05843   2.07580   2.07831
  Beta virt. eigenvalues --    2.08936   2.09697   2.11134   2.11948   2.12609
  Beta virt. eigenvalues --    2.13086   2.13865   2.14485   2.15944   2.18185
  Beta virt. eigenvalues --    2.18206   2.21007   2.21897   2.22114   2.24366
  Beta virt. eigenvalues --    2.25089   2.26700   2.26925   2.28058   2.29399
  Beta virt. eigenvalues --    2.30329   2.32240   2.34043   2.34474   2.36884
  Beta virt. eigenvalues --    2.39008   2.40491   2.40641   2.41646   2.42647
  Beta virt. eigenvalues --    2.44168   2.45297   2.47511   2.48185   2.49105
  Beta virt. eigenvalues --    2.49936   2.51194   2.51973   2.54137   2.55327
  Beta virt. eigenvalues --    2.56431   2.59696   2.62362   2.62702   2.64556
  Beta virt. eigenvalues --    2.64959   2.68517   2.69780   2.71486   2.73334
  Beta virt. eigenvalues --    2.76680   2.77817   2.78182   2.79840   2.80529
  Beta virt. eigenvalues --    2.83195   2.86262   2.87314   2.88935   2.93133
  Beta virt. eigenvalues --    2.97636   2.97867   3.00128   3.01079   3.07696
  Beta virt. eigenvalues --    3.14653   3.18860   3.23549   3.24106   3.28127
  Beta virt. eigenvalues --    3.33016   3.34858   3.36533   3.39177   3.39876
  Beta virt. eigenvalues --    3.41645   3.45210   3.45855   3.48660   3.49757
  Beta virt. eigenvalues --    3.50967   3.51748   3.53836   3.55405   3.56935
  Beta virt. eigenvalues --    3.59047   3.59190   3.61417   3.62756   3.63639
  Beta virt. eigenvalues --    3.64594   3.66007   3.70482   3.72706   3.73891
  Beta virt. eigenvalues --    3.74589   3.76654   3.78384   3.85369   3.91594
  Beta virt. eigenvalues --    3.97032   3.99291   4.01853   4.06133   4.20139
  Beta virt. eigenvalues --    4.25531   5.13940
          Condensed to atoms (all electrons):
               1          2          3          4          5          6
     1  C    8.497509  -2.892704   1.666022   0.246785   0.682692   0.023990
     2  C   -2.892704   9.926398  -4.149820  -0.464945  -0.934316   0.112118
     3  C    1.666022  -4.149820  19.406695   0.120028  -0.032578  -0.396961
     4  O    0.246785  -0.464945   0.120028   8.680975  -0.072511   0.005101
     5  H    0.682692  -0.934316  -0.032578  -0.072511   2.233906   0.010167
     6  O    0.023990   0.112118  -0.396961   0.005101   0.010167   9.423047
     7  H   -0.001898   0.433298  -1.313744  -0.022071   0.084897  -0.083822
     8  C   -0.304167   1.174437  -4.268754   0.006275  -0.271825  -0.007058
     9  C   -1.883522   1.849211  -3.961562  -0.020156  -0.081554  -0.289078
    10  H   -0.688613   0.366643   0.119116  -0.027960  -0.235807   0.063261
    11  O   -0.328856   0.087481  -0.023720  -0.024460   0.042092  -0.016538
    12  C    0.004452  -0.183390   0.499712   0.011391   0.006829   0.012427
    13  H    0.288449  -0.130339   0.282120   0.006667  -0.017249  -0.114980
    14  O   -0.082748   0.030079  -0.038577  -0.000843  -0.003343  -0.015695
    15  H    0.034768   0.030446   0.011383   0.000322   0.003491   0.098607
    16  H   -0.036452  -0.020258   0.002648   0.000637  -0.000876  -0.061395
    17  H   -0.127976  -0.004814   0.019226  -0.013009   0.003742   0.008961
    18  H   -0.138669   0.200079  -0.074983   0.293216  -0.099885   0.003295
    19  H   -0.041338   0.021892  -0.068677  -0.000908  -0.002526   0.028952
    20  C    0.141086  -0.440235  -1.164386  -0.003208   0.022358  -0.030492
    21  N   -0.004359  -0.006670   0.102104  -0.000752  -0.001761  -0.014254
    22  C   -0.013817   0.032377  -0.354234   0.002573   0.001329   0.000676
    23  N   -0.027099   0.012496   0.394238   0.001031  -0.007849  -0.008584
    24  C    0.044270   0.020159  -1.892307  -0.031973   0.050449   0.084997
    25  H   -0.022855   0.123862  -0.049796  -0.005752   0.010885   0.042327
    26  H    0.002814  -0.007883  -0.025007   0.000208  -0.000403  -0.000876
    27  O    0.000541  -0.000889   0.020537  -0.000022  -0.000207  -0.000033
    28  O    0.020518   0.011561   0.028862   0.001227   0.044002  -0.006592
               7          8          9         10         11         12
     1  C   -0.001898  -0.304167  -1.883522  -0.688613  -0.328856   0.004452
     2  C    0.433298   1.174437   1.849211   0.366643   0.087481  -0.183390
     3  C   -1.313744  -4.268754  -3.961562   0.119116  -0.023720   0.499712
     4  O   -0.022071   0.006275  -0.020156  -0.027960  -0.024460   0.011391
     5  H    0.084897  -0.271825  -0.081554  -0.235807   0.042092   0.006829
     6  O   -0.083822  -0.007058  -0.289078   0.063261  -0.016538   0.012427
     7  H    2.153014   0.287099   0.120391  -0.009627   0.003022  -0.010852
     8  C    0.287099  13.259632   1.006516  -0.096437  -0.011429  -0.241693
     9  C    0.120391   1.006516   9.906020  -0.414949   0.208762  -0.282051
    10  H   -0.009627  -0.096437  -0.414949   2.484418  -0.233726  -0.012019
    11  O    0.003022  -0.011429   0.208762  -0.233726   8.631696   0.004836
    12  C   -0.010852  -0.241693  -0.282051  -0.012019   0.004836   4.847885
    13  H    0.029761  -0.086433  -0.954200   0.092097  -0.058749  -0.007770
    14  O    0.000104   0.011598   0.051124   0.028246   0.003594   0.053912
    15  H   -0.001962   0.000658  -0.118872  -0.022474   0.006492   0.111225
    16  H   -0.001395   0.015222   0.260920   0.022831   0.000576   0.110095
    17  H   -0.005435  -0.010717  -0.012320   0.044564   0.296843   0.010616
    18  H   -0.008906   0.020101   0.014897   0.023884  -0.015838  -0.004436
    19  H    0.002840   0.019454   0.036801   0.002186  -0.002172  -0.055419
    20  C   -0.010780  -3.775401  -0.005316  -0.003793  -0.000230  -0.087368
    21  N   -0.003591   0.081740  -0.009907   0.000485  -0.000122   0.006796
    22  C    0.008485   0.386010   0.019392  -0.001541   0.000075  -0.004945
    23  N    0.003631   0.263189   0.008855  -0.007513   0.000859   0.010811
    24  C   -0.068790  -2.897047  -0.093333   0.076055  -0.010430  -0.000978
    25  H   -0.069304   0.330831   0.049360  -0.002700  -0.000023  -0.001585
    26  H   -0.001283   0.088930  -0.002816   0.000410  -0.000015   0.000262
    27  O    0.000481   0.047186  -0.000691   0.000212  -0.000001   0.000293
    28  O    0.014440  -0.057663  -0.018414  -0.043071   0.006987   0.030087
              13         14         15         16         17         18
     1  C    0.288449  -0.082748   0.034768  -0.036452  -0.127976  -0.138669
     2  C   -0.130339   0.030079   0.030446  -0.020258  -0.004814   0.200079
     3  C    0.282120  -0.038577   0.011383   0.002648   0.019226  -0.074983
     4  O    0.006667  -0.000843   0.000322   0.000637  -0.013009   0.293216
     5  H   -0.017249  -0.003343   0.003491  -0.000876   0.003742  -0.099885
     6  O   -0.114980  -0.015695   0.098607  -0.061395   0.008961   0.003295
     7  H    0.029761   0.000104  -0.001962  -0.001395  -0.005435  -0.008906
     8  C   -0.086433   0.011598   0.000658   0.015222  -0.010717   0.020101
     9  C   -0.954200   0.051124  -0.118872   0.260920  -0.012320   0.014897
    10  H    0.092097   0.028246  -0.022474   0.022831   0.044564   0.023884
    11  O   -0.058749   0.003594   0.006492   0.000576   0.296843  -0.015838
    12  C   -0.007770   0.053912   0.111225   0.110095   0.010616  -0.004436
    13  H    2.257222   0.020231  -0.104909  -0.013221  -0.008653   0.006943
    14  O    0.020231   8.473057  -0.103844  -0.059439  -0.001265   0.000470
    15  H   -0.104909  -0.103844   1.576192  -0.285181   0.007170  -0.000628
    16  H   -0.013221  -0.059439  -0.285181   1.319965  -0.001102  -0.000403
    17  H   -0.008653  -0.001265   0.007170  -0.001102   0.704548   0.022041
    18  H    0.006943   0.000470  -0.000628  -0.000403   0.022041   0.643397
    19  H   -0.002690   0.210214   0.006702  -0.029202   0.000728   0.000512
    20  C    0.012847   0.001802  -0.005045   0.000699  -0.000938  -0.002185
    21  N   -0.001025   0.000015   0.000237   0.000386   0.000042  -0.000346
    22  C    0.001376  -0.002504  -0.000717   0.001022  -0.000278   0.000414
    23  N   -0.000036  -0.004681   0.000091   0.000702  -0.000134   0.000135
    24  C    0.017977   0.010744  -0.013373   0.002504   0.002616   0.000569
    25  H    0.001063  -0.000015   0.000408  -0.000037  -0.000128   0.001373
    26  H    0.000043  -0.000068  -0.000025   0.000065   0.000006  -0.000036
    27  O   -0.000048   0.000037   0.000019  -0.000003   0.000006  -0.000006
    28  O    0.007549  -0.057691   0.003360  -0.002336  -0.001372  -0.000658
              19         20         21         22         23         24
     1  C   -0.041338   0.141086  -0.004359  -0.013817  -0.027099   0.044270
     2  C    0.021892  -0.440235  -0.006670   0.032377   0.012496   0.020159
     3  C   -0.068677  -1.164386   0.102104  -0.354234   0.394238  -1.892307
     4  O   -0.000908  -0.003208  -0.000752   0.002573   0.001031  -0.031973
     5  H   -0.002526   0.022358  -0.001761   0.001329  -0.007849   0.050449
     6  O    0.028952  -0.030492  -0.014254   0.000676  -0.008584   0.084997
     7  H    0.002840  -0.010780  -0.003591   0.008485   0.003631  -0.068790
     8  C    0.019454  -3.775401   0.081740   0.386010   0.263189  -2.897047
     9  C    0.036801  -0.005316  -0.009907   0.019392   0.008855  -0.093333
    10  H    0.002186  -0.003793   0.000485  -0.001541  -0.007513   0.076055
    11  O   -0.002172  -0.000230  -0.000122   0.000075   0.000859  -0.010430
    12  C   -0.055419  -0.087368   0.006796  -0.004945   0.010811  -0.000978
    13  H   -0.002690   0.012847  -0.001025   0.001376  -0.000036   0.017977
    14  O    0.210214   0.001802   0.000015  -0.002504  -0.004681   0.010744
    15  H    0.006702  -0.005045   0.000237  -0.000717   0.000091  -0.013373
    16  H   -0.029202   0.000699   0.000386   0.001022   0.000702   0.002504
    17  H    0.000728  -0.000938   0.000042  -0.000278  -0.000134   0.002616
    18  H    0.000512  -0.002185  -0.000346   0.000414   0.000135   0.000569
    19  H    0.591886   0.003938   0.000187   0.002185  -0.003847   0.005392
    20  C    0.003938  13.473575  -0.628723  -0.361987  -0.113978  -0.892718
    21  N    0.000187  -0.628723   7.383868  -0.089245  -0.003163   0.213099
    22  C    0.002185  -0.361987  -0.089245   6.238004   0.072450  -0.666208
    23  N   -0.003847  -0.113978  -0.003163   0.072450   8.156737  -0.951361
    24  C    0.005392  -0.892718   0.213099  -0.666208  -0.951361  12.653236
    25  H    0.000419  -0.931698   0.154267   0.013770  -0.001181   0.037069
    26  H   -0.000467  -0.290848   0.481295  -0.184610   0.002521  -0.012739
    27  O   -0.000042  -0.032340  -0.114066   0.066481  -0.093434   0.093466
    28  O    0.035906  -0.089426  -0.003883   0.048254  -0.152350   0.058154
              25         26         27         28
     1  C   -0.022855   0.002814   0.000541   0.020518
     2  C    0.123862  -0.007883  -0.000889   0.011561
     3  C   -0.049796  -0.025007   0.020537   0.028862
     4  O   -0.005752   0.000208  -0.000022   0.001227
     5  H    0.010885  -0.000403  -0.000207   0.044002
     6  O    0.042327  -0.000876  -0.000033  -0.006592
     7  H   -0.069304  -0.001283   0.000481   0.014440
     8  C    0.330831   0.088930   0.047186  -0.057663
     9  C    0.049360  -0.002816  -0.000691  -0.018414
    10  H   -0.002700   0.000410   0.000212  -0.043071
    11  O   -0.000023  -0.000015  -0.000001   0.006987
    12  C   -0.001585   0.000262   0.000293   0.030087
    13  H    0.001063   0.000043  -0.000048   0.007549
    14  O   -0.000015  -0.000068   0.000037  -0.057691
    15  H    0.000408  -0.000025   0.000019   0.003360
    16  H   -0.000037   0.000065  -0.000003  -0.002336
    17  H   -0.000128   0.000006   0.000006  -0.001372
    18  H    0.001373  -0.000036  -0.000006  -0.000658
    19  H    0.000419  -0.000467  -0.000042   0.035906
    20  C   -0.931698  -0.290848  -0.032340  -0.089426
    21  N    0.154267   0.481295  -0.114066  -0.003883
    22  C    0.013770  -0.184610   0.066481   0.048254
    23  N   -0.001181   0.002521  -0.093434  -0.152350
    24  C    0.037069  -0.012739   0.093466   0.058154
    25  H    2.015017  -0.047132   0.000853  -0.001244
    26  H   -0.047132   1.067165  -0.006217   0.002084
    27  O    0.000853  -0.006217   8.557038  -0.003871
    28  O   -0.001244   0.002084  -0.003871   8.943558
          Atomic-Atomic Spin Densities.
               1          2          3          4          5          6
     1  C    0.020450   0.003477  -0.010480   0.003001  -0.005464   0.004263
     2  C    0.003477   0.015109  -0.011225  -0.000033  -0.002318  -0.003310
     3  C   -0.010480  -0.011225   0.125469  -0.002690   0.026561  -0.060312
     4  O    0.003001  -0.000033  -0.002690   0.001328  -0.002477   0.000589
     5  H   -0.005464  -0.002318   0.026561  -0.002477  -0.001866  -0.003802
     6  O    0.004263  -0.003310  -0.060312   0.000589  -0.003802   0.093436
     7  H    0.000128  -0.005717  -0.025947  -0.000701  -0.001145   0.001542
     8  C    0.002231   0.017881  -0.121368   0.003281  -0.014337   0.013151
     9  C   -0.005409  -0.000604  -0.027866   0.000591  -0.002301  -0.002743
    10  H    0.002399  -0.001423   0.003454  -0.000219  -0.000350   0.000192
    11  O   -0.004308  -0.000041   0.001561  -0.000404   0.000502  -0.000492
    12  C    0.000418  -0.002236   0.001183  -0.000030  -0.000095   0.000732
    13  H    0.000577   0.000719  -0.000235  -0.000138  -0.000299   0.000204
    14  O   -0.000115   0.000253   0.001821  -0.000022  -0.000053  -0.000061
    15  H    0.000520   0.000078  -0.000334   0.000017  -0.000031   0.000134
    16  H   -0.000555  -0.000044  -0.001148   0.000001  -0.000023  -0.000357
    17  H   -0.001588   0.000260   0.000560  -0.000193   0.000236   0.000014
    18  H   -0.001594  -0.000823   0.000467  -0.000997   0.001239  -0.000083
    19  H   -0.000369   0.000033   0.003206  -0.000047   0.000215  -0.002072
    20  C    0.004432   0.000525   0.031960   0.000374  -0.000529   0.004800
    21  N   -0.000914   0.000338   0.008677  -0.000109   0.000361  -0.000011
    22  C    0.000356   0.003412  -0.002721   0.000021   0.000221   0.002164
    23  N    0.000031  -0.000529  -0.012309   0.000021  -0.000280   0.003266
    24  C   -0.003004   0.010801   0.043799   0.000224   0.004886  -0.002477
    25  H    0.000202   0.002788  -0.006827   0.000235  -0.000155   0.000984
    26  H   -0.000019   0.000022  -0.000556  -0.000000   0.000017   0.000070
    27  O    0.000033   0.000195  -0.000448   0.000004  -0.000027  -0.000087
    28  O    0.000806   0.000938  -0.009320   0.000211  -0.001951   0.001633
               7          8          9         10         11         12
     1  C    0.000128   0.002231  -0.005409   0.002399  -0.004308   0.000418
     2  C   -0.005717   0.017881  -0.000604  -0.001423  -0.000041  -0.002236
     3  C   -0.025947  -0.121368  -0.027866   0.003454   0.001561   0.001183
     4  O   -0.000701   0.003281   0.000591  -0.000219  -0.000404  -0.000030
     5  H   -0.001145  -0.014337  -0.002301  -0.000350   0.000502  -0.000095
     6  O    0.001542   0.013151  -0.002743   0.000192  -0.000492   0.000732
     7  H    0.001199   0.018192  -0.001164  -0.000055   0.000112  -0.000159
     8  C    0.018192   0.224275   0.016774  -0.001325  -0.000581  -0.000051
     9  C   -0.001164   0.016774   0.024574  -0.003446   0.001266  -0.003017
    10  H   -0.000055  -0.001325  -0.003446  -0.000780   0.000081  -0.000189
    11  O    0.000112  -0.000581   0.001266   0.000081   0.007684   0.000081
    12  C   -0.000159  -0.000051  -0.003017  -0.000189   0.000081  -0.000262
    13  H   -0.000343  -0.000093  -0.004446   0.000039   0.000461   0.002386
    14  O    0.000081  -0.001411  -0.001995   0.000210   0.000008  -0.000794
    15  H    0.000004   0.000284  -0.000331   0.000068  -0.000208   0.000063
    16  H   -0.000170   0.000144   0.001153  -0.000024   0.000099  -0.000187
    17  H    0.000099  -0.000090  -0.000151  -0.000028   0.000478  -0.000134
    18  H    0.000183   0.000124  -0.000004   0.000019   0.000492  -0.000094
    19  H    0.000125  -0.000410   0.001077  -0.000010  -0.000035  -0.000511
    20  C    0.019154   0.155236  -0.004354  -0.000342  -0.000130   0.000248
    21  N   -0.000514  -0.003585   0.000833  -0.000008   0.000011  -0.000002
    22  C   -0.000385  -0.018335   0.001398   0.000020  -0.000018   0.000268
    23  N   -0.000677  -0.022059  -0.000542  -0.000129   0.000004   0.001042
    24  C    0.004532   0.063068   0.004401   0.001229  -0.000154  -0.000056
    25  H    0.002443   0.010904   0.000560  -0.000038  -0.000029   0.000125
    26  H    0.000096   0.005144  -0.000045  -0.000006   0.000000   0.000008
    27  O   -0.000036   0.003592  -0.000040   0.000003  -0.000000  -0.000014
    28  O   -0.000506   0.005016   0.001390   0.000076  -0.000048   0.000061
              13         14         15         16         17         18
     1  C    0.000577  -0.000115   0.000520  -0.000555  -0.001588  -0.001594
     2  C    0.000719   0.000253   0.000078  -0.000044   0.000260  -0.000823
     3  C   -0.000235   0.001821  -0.000334  -0.001148   0.000560   0.000467
     4  O   -0.000138  -0.000022   0.000017   0.000001  -0.000193  -0.000997
     5  H   -0.000299  -0.000053  -0.000031  -0.000023   0.000236   0.001239
     6  O    0.000204  -0.000061   0.000134  -0.000357   0.000014  -0.000083
     7  H   -0.000343   0.000081   0.000004  -0.000170   0.000099   0.000183
     8  C   -0.000093  -0.001411   0.000284   0.000144  -0.000090   0.000124
     9  C   -0.004446  -0.001995  -0.000331   0.001153  -0.000151  -0.000004
    10  H    0.000039   0.000210   0.000068  -0.000024  -0.000028   0.000019
    11  O    0.000461   0.000008  -0.000208   0.000099   0.000478   0.000492
    12  C    0.002386  -0.000794   0.000063  -0.000187  -0.000134  -0.000094
    13  H    0.008747   0.000023  -0.000105   0.000610  -0.000383  -0.000003
    14  O    0.000023   0.012736  -0.000095  -0.000346  -0.000023   0.000004
    15  H   -0.000105  -0.000095   0.000271  -0.000267  -0.000021  -0.000011
    16  H    0.000610  -0.000346  -0.000267   0.001916  -0.000018  -0.000001
    17  H   -0.000383  -0.000023  -0.000021  -0.000018   0.000304   0.000340
    18  H   -0.000003   0.000004  -0.000011  -0.000001   0.000340   0.001302
    19  H   -0.000169   0.000191  -0.000009  -0.000256   0.000017  -0.000002
    20  C   -0.000614  -0.000121   0.000083   0.000058   0.000090  -0.000096
    21  N    0.000058   0.000002  -0.000004   0.000004  -0.000010   0.000001
    22  C    0.000043  -0.000058   0.000024   0.000044   0.000013  -0.000001
    23  N    0.000020  -0.000566   0.000070   0.000093   0.000004   0.000010
    24  C    0.000179   0.000769  -0.000201   0.000117  -0.000101  -0.000020
    25  H    0.000055  -0.000024   0.000015   0.000042  -0.000009   0.000008
    26  H   -0.000003  -0.000000   0.000000   0.000001   0.000001  -0.000003
    27  O   -0.000000   0.000009  -0.000002  -0.000002  -0.000000   0.000004
    28  O    0.000247   0.000416  -0.000063   0.000066  -0.000025   0.000012
              19         20         21         22         23         24
     1  C   -0.000369   0.004432  -0.000914   0.000356   0.000031  -0.003004
     2  C    0.000033   0.000525   0.000338   0.003412  -0.000529   0.010801
     3  C    0.003206   0.031960   0.008677  -0.002721  -0.012309   0.043799
     4  O   -0.000047   0.000374  -0.000109   0.000021   0.000021   0.000224
     5  H    0.000215  -0.000529   0.000361   0.000221  -0.000280   0.004886
     6  O   -0.002072   0.004800  -0.000011   0.002164   0.003266  -0.002477
     7  H    0.000125   0.019154  -0.000514  -0.000385  -0.000677   0.004532
     8  C   -0.000410   0.155236  -0.003585  -0.018335  -0.022059   0.063068
     9  C    0.001077  -0.004354   0.000833   0.001398  -0.000542   0.004401
    10  H   -0.000010  -0.000342  -0.000008   0.000020  -0.000129   0.001229
    11  O   -0.000035  -0.000130   0.000011  -0.000018   0.000004  -0.000154
    12  C   -0.000511   0.000248  -0.000002   0.000268   0.001042  -0.000056
    13  H   -0.000169  -0.000614   0.000058   0.000043   0.000020   0.000179
    14  O    0.000191  -0.000121   0.000002  -0.000058  -0.000566   0.000769
    15  H   -0.000009   0.000083  -0.000004   0.000024   0.000070  -0.000201
    16  H   -0.000256   0.000058   0.000004   0.000044   0.000093   0.000117
    17  H    0.000017   0.000090  -0.000010   0.000013   0.000004  -0.000101
    18  H   -0.000002  -0.000096   0.000001  -0.000001   0.000010  -0.000020
    19  H   -0.000124   0.000320  -0.000037  -0.000339  -0.000398  -0.000686
    20  C    0.000320  -0.304639  -0.060326   0.039310   0.012764   0.076153
    21  N   -0.000037  -0.060326   0.207106   0.022203   0.004900  -0.007408
    22  C   -0.000339   0.039310   0.022203  -0.238864   0.027071   0.032361
    23  N   -0.000398   0.012764   0.004900   0.027071   0.278093  -0.011516
    24  C   -0.000686   0.076153  -0.007408   0.032361  -0.011516  -0.285991
    25  H   -0.000043  -0.019781   0.005576   0.002642   0.001643  -0.007015
    26  H   -0.000003  -0.011986   0.008235   0.001789   0.000040   0.003091
    27  O    0.000036  -0.003331  -0.015972  -0.013803  -0.014408  -0.005851
    28  O   -0.000826   0.010647  -0.000887  -0.001579   0.000437   0.006521
              25         26         27         28
     1  C    0.000202  -0.000019   0.000033   0.000806
     2  C    0.002788   0.000022   0.000195   0.000938
     3  C   -0.006827  -0.000556  -0.000448  -0.009320
     4  O    0.000235  -0.000000   0.000004   0.000211
     5  H   -0.000155   0.000017  -0.000027  -0.001951
     6  O    0.000984   0.000070  -0.000087   0.001633
     7  H    0.002443   0.000096  -0.000036  -0.000506
     8  C    0.010904   0.005144   0.003592   0.005016
     9  C    0.000560  -0.000045  -0.000040   0.001390
    10  H   -0.000038  -0.000006   0.000003   0.000076
    11  O   -0.000029   0.000000  -0.000000  -0.000048
    12  C    0.000125   0.000008  -0.000014   0.000061
    13  H    0.000055  -0.000003  -0.000000   0.000247
    14  O   -0.000024  -0.000000   0.000009   0.000416
    15  H    0.000015   0.000000  -0.000002  -0.000063
    16  H    0.000042   0.000001  -0.000002   0.000066
    17  H   -0.000009   0.000001  -0.000000  -0.000025
    18  H    0.000008  -0.000003   0.000004   0.000012
    19  H   -0.000043  -0.000003   0.000036  -0.000826
    20  C   -0.019781  -0.011986  -0.003331   0.010647
    21  N    0.005576   0.008235  -0.015972  -0.000887
    22  C    0.002642   0.001789  -0.013803  -0.001579
    23  N    0.001643   0.000040  -0.014408   0.000437
    24  C   -0.007015   0.003091  -0.005851   0.006521
    25  H    0.000779  -0.001046   0.000074   0.000542
    26  H   -0.001046  -0.013781  -0.002208   0.000007
    27  O    0.000074  -0.002208   0.475854   0.000085
    28  O    0.000542   0.000007   0.000085  -0.017853
 Mulliken charges and spin densities:
               1          2
     1  C    0.941178   0.009506
     2  C    0.803724   0.028525
     3  C    1.142414  -0.045069
     4  O   -0.687866   0.001842
     5  H   -0.434148  -0.003267
     6  O   -0.871567   0.051367
     7  H   -0.528002   0.010370
     8  C    1.029747   0.355651
     9  C    0.616493  -0.004440
    10  H   -0.524178  -0.000583
    11  O   -0.567004   0.006392
    12  C    1.170877  -0.001212
    13  H   -0.524044   0.007537
    14  O   -0.524515   0.010839
    15  H   -0.234540  -0.000049
    16  H   -0.226969   0.000950
    17  H    0.067032  -0.000359
    18  H    0.115654   0.000472
    19  H    0.237093  -0.001125
    20  C    1.214788  -0.050095
    21  N   -0.542655   0.168519
    22  C    0.785213  -0.142741
    23  N   -0.552538   0.266095
    24  C    0.160502  -0.072347
    25  H   -0.648053  -0.005350
    26  H   -0.065378  -0.011136
    27  O   -0.535282   0.423656
    28  O   -0.817977  -0.003950
 Sum of Mulliken charges =  -0.00000   1.00000
 Mulliken charges and spin densities with hydrogens summed into heavy atoms:
               1          2
     1  C    0.417000   0.008923
     2  C    0.369576   0.025258
     3  C    0.614412  -0.034698
     4  O   -0.572212   0.002314
     6  O   -0.871567   0.051367
     8  C    1.029747   0.355651
     9  C    0.092449   0.003097
    11  O   -0.499972   0.006033
    12  C    0.709368  -0.000311
    14  O   -0.287422   0.009714
    20  C    0.566735  -0.055444
    21  N   -0.608033   0.157383
    22  C    0.785213  -0.142741
    23  N   -0.552538   0.266095
    24  C    0.160502  -0.072347
    27  O   -0.535282   0.423656
    28  O   -0.817977  -0.003950
 Electronic spatial extent (au):  <R**2>=           4110.9742
 Charge=             -0.0000 electrons
 Dipole moment (field-independent basis, Debye):
    X=             -1.1878    Y=             -7.9827    Z=              4.0382  Tot=              9.0245
 Quadrupole moment (field-independent basis, Debye-Ang):
   XX=            -98.8543   YY=           -104.5521   ZZ=            -97.9568
   XY=              7.6784   XZ=             -8.1194   YZ=              3.2470
 Traceless Quadrupole moment (field-independent basis, Debye-Ang):
   XX=              1.6001   YY=             -4.0977   ZZ=              2.4976
   XY=              7.6784   XZ=             -8.1194   YZ=              3.2470
 Octapole moment (field-independent basis, Debye-Ang**2):
  XXX=             55.7104  YYY=            -37.8746  ZZZ=             -1.4218  XYY=             -9.6037
  XXY=            -65.9140  XXZ=             59.8845  XZZ=             -3.5503  YZZ=            -16.2057
  YYZ=              6.3654  XYZ=             12.9607
 Hexadecapole moment (field-independent basis, Debye-Ang**3):
 XXXX=          -3915.0282 YYYY=          -1179.7561 ZZZZ=           -466.9698 XXXY=            131.7894
 XXXZ=            -94.5209 YYYX=            -50.3658 YYYZ=             28.8947 ZZZX=            -23.9937
 ZZZY=              6.6744 XXYY=           -724.4830 XXZZ=           -680.1211 YYZZ=           -228.8537
 XXYZ=              7.3371 YYXZ=            -50.9411 ZZXY=             14.2067
 N-N= 1.307867513636D+03 E-N=-4.745857631069D+03  KE= 9.045930419382D+02
                          Isotropic Fermi Contact Couplings
        Atom                 a.u.       MegaHertz       Gauss      10(-4) cm-1
     1  C(13)             -0.00021      -0.23908      -0.08531      -0.07975
     2  C(13)              0.00740       8.32444       2.97037       2.77673
     3  C(13)             -0.01004     -11.28307      -4.02608      -3.76363
     4  O(17)             -0.00009       0.05596       0.01997       0.01867
     5  H(1)              -0.00012      -0.54070      -0.19294      -0.18036
     6  O(17)              0.01955     -11.85143      -4.22889      -3.95321
     7  H(1)               0.00344      15.37148       5.48492       5.12737
     8  C(13)              0.02865      32.20256      11.49067      10.74162
     9  C(13)             -0.00101      -1.13831      -0.40618      -0.37970
    10  H(1)              -0.00013      -0.56780      -0.20260      -0.18940
    11  O(17)              0.00100      -0.60436      -0.21565      -0.20159
    12  C(13)             -0.00078      -0.87998      -0.31400      -0.29353
    13  H(1)               0.00298      13.32215       4.75368       4.44379
    14  O(17)              0.00177      -1.07295      -0.38286      -0.35790
    15  H(1)               0.00004       0.16531       0.05899       0.05514
    16  H(1)               0.00033       1.46205       0.52170       0.48769
    17  H(1)              -0.00008      -0.37204      -0.13275      -0.12410
    18  H(1)               0.00010       0.45886       0.16373       0.15306
    19  H(1)              -0.00013      -0.59687      -0.21298      -0.19910
[...]
 87528,0.00001163,-0.00018346,-0.00025153,0.00100014,-0.00027335,0.0000
 5186,0.00021751,-0.00008906,-0.00008642,0.00005125,0.00001902,-0.00044
 367,0.00009069,-0.00004274,0.00001359,0.00014643,0.00025435,-0.0000509
 2,-0.00077435,0.00019680,0.02691388,0.03488152,-0.03011031,-0.12128483
 ,0.00685610,-0.03871192,0.76126036,0.00012982,0.00046967,0.00012939,-0
 .00167414,-0.00051226,-0.00060068,0.00120598,-0.00325414,0.00666923,-0
 .00044310,0.00021293,0.00018644,0.00005569,0.00007558,-0.00038825,-0.0
 0220685,0.00057286,-0.00056262,0.00124305,-0.00031592,0.00021547,-0.00
 444190,-0.00759518,0.00728199,0.00050333,-0.00021481,-0.00018989,0.000
 00697,-0.00000586,0.00000978,-0.00054659,-0.00009634,0.00015402,-0.000
 22933,0.00026429,-0.00010026,-0.00014448,0.00002526,0.00000473,0.00013
 966,-0.00036244,0.00006821,-0.00002816,-0.00007423,0.00001923,0.000016
 65,-0.00001710,0.00000287,0.00011337,0.00000608,0.00001892,-0.00000356
 ,0.00004855,-0.00007644,0.00009488,0.00045870,0.00000948,0.05424830,-0
 .00841796,0.00197327,-0.02117199,-0.11804697,0.09263789,-0.08444999,0.
 33803112,0.00042918,0.00043811,-0.00002256,0.00172961,-0.00116446,-0.0
 0019854,-0.00024802,0.00203837,-0.00783008,0.00028021,-0.00008513,-0.0
 0004300,-0.00000515,0.00020008,0.00037444,-0.00108316,-0.00266111,-0.0
 0013030,-0.00092616,0.00070548,0.00018055,0.01274997,0.01645709,-0.018
 21948,0.00053321,0.00092299,-0.00104263,-0.00018497,-0.00003835,0.0000
 2704,-0.00028248,-0.00006988,0.00004308,-0.00019639,0.00038675,-0.0002
 2492,-0.00036240,-0.00007613,0.00018590,0.00046841,-0.00033396,0.00023
 081,0.00007488,-0.00006609,0.00004625,0.00001357,-0.00003023,0.0000391
 7,0.00008754,-0.00003544,0.00001057,0.00000849,-0.00007694,-0.00001148
 ,-0.00078982,0.00000247,-0.00024792,-0.08947266,0.00296607,-0.00246378
 ,0.03528494,0.06542128,-0.15802933,0.06069743,-0.16940914,0.39886425,0
 .00026587,-0.00133942,0.00031191,0.00012256,0.00008068,0.00088554,-0.0
 0222140,0.00044592,0.00197722,0.00009694,0.00059909,-0.00022872,-0.000
 13020,-0.00032016,0.00015130,0.00236526,0.00279392,-0.00116381,0.00008
 329,0.00021864,-0.00005731,-0.01023651,0.02266609,-0.03747890,-0.00001
 591,-0.00023169,0.00109210,0.00063731,0.00013939,-0.00033789,-0.000057
 27,0.00068082,-0.00016647,0.00122676,-0.00131704,0.00131125,0.00005849
 ,0.00023744,-0.00017840,-0.00254433,0.00009515,-0.00164155,-0.00026998
 ,0.00024066,-0.00014731,-0.00012017,0.00013559,-0.00033519,-0.00014569
 ,-0.00007255,-0.00006422,0.00000469,-0.00016025,-0.00001335,0.00345269
 ,0.00179111,0.00235746,-0.02374571,0.00073298,-0.00258261,0.00183628,-
 0.01210449,0.03296097,-0.08246332,-0.08620113,0.09021045,0.47558771,0.
 00014452,-0.00062686,0.00018537,0.00062221,-0.00009129,0.00040357,0.00
 301856,0.00163744,-0.00168357,-0.00001014,0.00040179,0.00000254,-0.000
 17162,-0.00016168,0.00015659,0.00032415,-0.00025961,-0.00056209,-0.001
 37383,-0.00002185,-0.00018276,0.00409527,-0.00219438,0.01496794,0.0004
 7943,-0.00008765,0.00014627,0.00032196,0.00010969,-0.00014422,-0.00007
 449,0.00035714,-0.00007706,0.00038441,-0.00044093,0.00054764,-0.000043
 21,0.00013609,-0.00011064,-0.00095319,-0.00008571,-0.00071185,-0.00010
 263,0.00004611,-0.00005410,-0.00003936,0.00005293,-0.00015475,-0.00006
 334,-0.00003826,-0.00004899,-0.00000822,-0.00010292,0.00001319,0.00089
 053,0.00064359,0.00104143,-0.01023201,0.00031153,0.00265342,-0.0006690
 0,-0.01391132,0.02995739,-0.07470696,-0.06923262,0.03792688,0.11326119
 ,0.10238768,-0.00029382,-0.00087195,0.00043956,-0.00088011,0.00122428,
 0.00015483,-0.00408374,-0.00124068,0.00582386,0.00007582,-0.00009560,-
 0.00019106,-0.00000173,-0.00022751,-0.00023283,0.00297523,0.00379191,0
 .00047581,0.00130006,-0.00052662,-0.00050939,-0.01550339,0.01824476,-0
 .00998520,-0.00118288,-0.00090531,0.00141905,0.00018375,0.00014239,-0.
 00022128,0.00054556,0.00016713,-0.00027391,0.00036048,-0.00048796,0.00
 026998,0.00053082,0.00000539,-0.00022132,-0.00040476,0.00051376,-0.000
 34432,-0.00003203,0.00013107,-0.00005490,-0.00003702,0.00002111,-0.000
 04761,-0.00018387,0.00008646,0.00002692,-0.00004916,0.00007347,0.00000
 783,0.00062184,-0.00024455,0.00041968,0.02216678,-0.00034221,-0.002213
 25,0.00105709,0.03733453,-0.03032041,0.05270861,0.03253164,-0.11635598
 ,-0.04094157,-0.06444354,0.18792138,-0.00055834,0.00343509,-0.00015007
 ,-0.00150087,-0.00103901,-0.00529966,-0.00097253,0.03061867,-0.0228474
 7,0.00023708,-0.00141110,0.00163265,0.00015767,0.00186769,0.00120784,-
 0.00297991,-0.00887820,0.00283612,-0.00582514,0.00093667,-0.00003969,-
 0.09674358,0.02579746,-0.00848610,0.00042261,0.00100973,-0.00284738,-0
 .00153433,-0.00069610,0.00061529,-0.00058591,-0.00148787,0.00059482,-0
 .00248047,0.00238393,-0.00236784,-0.00019426,-0.00038862,0.00055445,0.
 00433868,-0.00068176,0.00235457,0.00044598,-0.00047787,0.00025794,0.00
 017209,-0.00018107,0.00057755,0.00049783,0.00009179,0.00010376,-0.0001
 6106,0.00030839,0.00018012,-0.00641060,-0.00266316,-0.00259474,0.01032
 258,-0.02767418,0.01893578,-0.00531118,0.00877594,-0.00825432,-0.02960
 318,-0.02307072,0.00504647,-0.16921271,0.00082333,-0.03828880,0.619878
 79,-0.00097966,0.00181708,-0.00083262,-0.00271571,0.00154223,-0.001179
 51,0.00791260,-0.00562456,0.01747379,-0.00047083,-0.00159984,0.0004443
 4,0.00099891,0.00042643,-0.00056518,-0.00050033,-0.00283472,0.00266959
 ,0.00320622,0.00006621,0.00054646,0.05277398,-0.12047539,0.04965734,-0
 .00159796,-0.00029715,-0.00029877,-0.00140526,-0.00028412,0.00059067,0
 .00036735,-0.00149270,0.00038894,-0.00225705,0.00215206,-0.00244679,0.
 00043311,-0.00047604,0.00020394,0.00475980,0.00009932,0.00257261,0.000
 46774,-0.00035374,0.00022311,0.00014367,-0.00024694,0.00058638,0.00029
 661,0.00020530,0.00015191,0.00017945,0.00053842,0.00016544,-0.00623116
 ,-0.00347120,-0.00304788,-0.01038827,-0.01679760,0.01287882,-0.0020797
 2,0.00119186,0.00134614,0.00103573,-0.00919580,0.00358495,-0.00952946,
 -0.02038395,-0.02792494,0.25663729,0.51943194,0.00079750,-0.00090810,0
 .00027003,0.00312500,-0.00173500,0.00282699,-0.00805641,0.00714167,-0.
 01143749,-0.00003299,0.00118874,-0.00103111,0.00000352,-0.00100975,-0.
 00015388,0.00229145,0.00147387,-0.00172743,-0.00174079,0.00112259,0.00
 082666,-0.03854886,0.03160400,-0.10212331,-0.00040993,0.00046657,0.000
 39747,0.00068794,0.00024922,-0.00029800,-0.00027655,0.00062666,-0.0004
 7042,0.00125430,-0.00116714,0.00124040,-0.00007729,0.00012799,-0.00005
 924,-0.00294290,-0.00027964,-0.00188453,-0.00022147,0.00028173,-0.0001
 8246,-0.00014680,0.00005788,-0.00038598,-0.00010426,-0.00004272,0.0000
 0514,0.00014861,-0.00035636,-0.00003417,0.00352856,0.00184266,0.002693
 84,0.02930520,0.02080960,-0.01567180,-0.00532313,0.00450574,-0.0179411
 5,-0.00499319,-0.00146189,0.00397539,-0.05547784,-0.02287260,-0.061638
 97,-0.07324499,-0.19284446,0.33622810,-0.00000236,-0.00005867,0.000010
 40,-0.00017301,0.00007253,-0.00008766,0.00110147,-0.00225524,0.0014134
 0,0.00002523,0.00002921,-0.00009037,0.00005836,-0.00001452,-0.00012738
 ,0.00016366,0.00067671,0.00010763,-0.00046587,0.00075510,-0.00044437,0
 .00867245,-0.01376939,0.01505296,-0.00026383,-0.00006813,0.00006236,0.
 00000274,0.00000303,-0.00002148,0.00006802,0.00001795,-0.00003853,0.00
 002770,-0.00005529,0.00002611,0.00001175,-0.00001929,0.00000037,-0.000
 04235,0.00006916,-0.00004516,0.00000194,0.00001218,-0.00000818,-0.0000
 0752,-0.00000011,-0.00000350,-0.00003152,0.00000156,0.00001017,0.00000
 328,0.00002299,-0.00000865,0.00005998,-0.00002500,0.00005802,-0.063342
 31,0.02605830,-0.02742419,-0.00614982,0.02427231,-0.02781548,-0.003898
 48,-0.00177469,0.00313069,0.00088964,0.00047958,-0.00057267,-0.0041217
 7,-0.00132064,0.00195668,0.06856658,-0.00000417,-0.00027008,-0.0001508
 2,0.00053007,0.00069634,0.00034122,0.00127891,-0.00246070,-0.00294915,
 0.00000481,-0.00016742,-0.00007854,0.00002226,-0.00005803,-0.00008839,
 -0.00070940,-0.00012286,-0.00007701,-0.00054137,0.00041809,-0.00012308
 ,0.00140455,-0.00208152,0.01188253,-0.00019413,-0.00012662,-0.00012325
 ,0.00003762,0.00004671,-0.00002274,0.00018532,0.00004412,-0.00006007,-
 0.00000188,-0.00005379,0.00008676,-0.00001702,-0.00000357,0.00000188,-
 0.00007270,0.00005709,-0.00008636,-0.00000136,0.00000042,-0.00001425,-
 0.00001365,-0.00000102,-0.00002297,-0.00003215,0.00001553,-0.00000684,
 0.00004245,0.00002091,0.00002087,0.00009817,-0.00000691,0.00011188,0.0
 3439738,-0.17869040,0.14964244,-0.00295209,0.00135009,0.00292820,0.001
 86506,0.00118037,0.00353829,-0.00102116,0.00051068,-0.00256299,-0.0000
 8303,0.00357177,0.00723709,-0.03331469,0.17728933,-0.00000664,-0.00012
 739,-0.00010671,0.00032943,0.00027420,0.00042281,-0.00102341,-0.002164
 40,-0.00210732,-0.00004437,-0.00014344,-0.00011267,-0.00008895,-0.0000
 1515,-0.00001942,-0.00071953,-0.00006892,0.00020186,0.00067920,-0.0003
 3448,0.00030516,-0.00591479,0.01034187,-0.00193990,-0.00002379,-0.0001
 8903,-0.00003638,0.00001538,0.00002820,-0.00001267,0.00004439,0.000002
 52,-0.00001777,-0.00006365,0.00001385,0.00004663,-0.00001373,0.0000065
 0,-0.00001297,-0.00001631,0.00000451,-0.00003666,-0.00000729,-0.000020
 82,-0.00000649,-0.00000187,-0.00000720,-0.00001719,0.00000822,0.000009
 05,0.00000256,0.00005831,-0.00001248,0.00000845,0.00003280,0.00000220,
 0.00004071,-0.02854235,0.14977149,-0.20529642,-0.00300857,0.00649511,-
 0.00287204,0.00009652,-0.00128550,0.00710254,-0.00067820,-0.00012587,-
 0.00166804,0.00407747,0.00259915,0.00566771,0.03627264,-0.16571811,0.2
 0494426,-0.00010680,-0.00008772,-0.00002199,-0.00001730,0.00027511,-0.
 00006570,-0.00010213,-0.00061578,0.00039680,0.00004684,-0.00007812,0.0
 0002512,-0.00001098,0.00000782,0.00005831,0.00008267,0.00005868,0.0000
 3946,-0.00004596,0.00001417,-0.00004632,-0.00276228,0.00327382,-0.0026
 7223,-0.00013992,-0.00003589,0.00000651,-0.00001202,-0.00000475,0.0000
 1542,0.00014546,-0.00001669,-0.00001803,-0.00001822,-0.00000011,-0.000
 02220,0.00002943,-0.00000944,0.00000013,0.00005244,0.00003729,0.000021
 86,0.00001318,0.00000104,-0.00000232,-0.00000560,-0.00000049,0.0000087
 1,-0.00002840,0.00000598,-0.00000431,-0.00001244,0.00002834,0.00001441
 ,-0.00007640,-0.00005737,-0.00002607,-0.01678986,-0.01154969,0.0185471
 1,-0.28122358,-0.08478248,0.17269870,0.01126221,0.00192442,-0.00399381
 ,0.00224626,0.00063911,-0.00089038,0.00016598,0.00038480,-0.00066309,0
 .00065956,0.00009937,-0.00043877,0.28857551,-0.00013268,-0.00010219,0.
 00005994,-0.00012507,0.00039710,0.00011099,-0.00099103,0.00184280,0.00
 065798,0.00006403,-0.00022798,-0.00004600,-0.00001801,-0.00001848,0.00
 003435,0.00141580,0.00013704,0.00007499,0.00004064,-0.00005352,0.00009
 641,0.00335391,0.00253055,0.00036830,-0.00026209,0.00004707,0.00028736
 ,0.00000966,-0.00001086,-0.00000404,0.00018091,-0.00004616,-0.00007501
 ,0.00011082,-0.00006806,0.00000651,0.00011719,-0.00000356,-0.00000442,
 -0.00002758,0.00005444,-0.00005556,0.00000952,0.00004532,-0.00001011,-
 0.00001613,-0.00000225,-0.00000301,-0.00003010,0.00003299,0.00001049,0
 .00001667,0.00004072,0.00002126,0.00005715,-0.00001472,0.00007234,0.00
 256371,0.00099269,-0.01165591,-0.08001417,-0.06769746,0.09995440,-0.01
 930013,-0.00755424,0.01228214,-0.00171523,0.00208836,0.00232028,0.0028
 1438,-0.00285672,0.00339773,0.00016661,-0.00083060,-0.00129313,0.09111
 825,0.07034735,-0.00001083,-0.00012725,0.00003770,-0.00016469,0.000189
 04,-0.00000661,-0.00038252,0.00117850,0.00139512,-0.00014399,0.0000790
 4,-0.00000313,-0.00002093,-0.00004439,-0.00004784,0.00069820,0.0001470
 9,-0.00007519,-0.00015037,-0.00000915,-0.00006796,-0.00486031,-0.00065
 909,0.00239641,-0.00005259,-0.00010787,0.00026931,0.00006189,0.0000158
 0,-0.00001893,-0.00002845,0.00002275,-0.00003842,0.00012321,-0.0001023
 7,0.00013467,0.00005841,0.00003905,-0.00003962,-0.00019799,0.00002975,
 -0.00017468,-0.00002508,0.00002461,-0.00001438,-0.00001175,-0.00000488
 ,-0.00004418,0.00000510,0.00001499,0.00001054,0.00002829,0.00001240,0.
 00001928,0.00024818,0.00008743,0.00019675,-0.00557038,-0.00854620,0.00
 748071,0.17812663,0.10537952,-0.18948925,0.01440927,0.00393996,-0.0089
 1345,0.00126622,0.00351029,-0.00233846,0.00179435,0.00032730,-0.002040
 78,-0.00020809,-0.00077697,-0.00054408,-0.18399313,-0.10075222,0.18947
 363,0.00078534,0.00044320,0.00009646,-0.00029193,-0.00145901,-0.000976
 90,0.00250494,-0.00065774,0.00193756,-0.00070451,0.00084442,0.00028761
 ,0.00005045,0.00005327,-0.00025231,-0.00283298,-0.00111434,-0.00013435
 ,0.00022057,-0.00001227,0.00005788,0.00120158,0.00486531,-0.00392477,0
 .00136820,0.00015206,-0.00064919,-0.00001106,0.00002844,-0.00007750,-0
 .00117892,0.00010552,0.00029044,-0.00017757,0.00027833,0.00014634,-0.0
 0039507,0.00005212,0.00001334,-0.00021621,-0.00057302,-0.00012600,-0.0
 0007983,-0.00011040,0.00002549,0.00003667,-0.00001596,-0.00007771,0.00
 025935,-0.00004167,0.00001710,0.00001584,-0.00009981,-0.00012034,0.000
 39681,0.00065014,0.00024399,-0.00154914,-0.00084151,-0.00138744,-0.029
 84832,0.04014623,-0.02788696,-0.55572481,0.16579129,-0.10759276,-0.113
 02718,0.01043761,0.02653286,0.00820677,-0.00510867,0.00973625,-0.00180
 642,-0.00004216,-0.00034099,-0.00254708,0.00099113,-0.00008057,0.70297
 725,-0.00005612,0.00003205,-0.00008043,0.00049477,0.00002597,0.0001194
 8,-0.00028051,0.00001285,-0.00273247,0.00021348,-0.00012827,-0.0000349
 1,0.00000314,0.00002553,0.00013740,0.00012699,-0.00039801,0.00018609,-
 0.00025398,0.00021858,-0.00002302,0.00206674,0.00176599,-0.00218837,-0
 .00013926,0.00017140,-0.00016633,-0.00005267,-0.00002918,0.00003114,0.
 00017353,-0.00001477,-0.00001829,-0.00002156,0.00000437,-0.00008322,-0
 .00001124,-0.00003484,0.00004010,0.00015439,0.00013775,0.00013975,0.00
 003256,0.00000105,0.00000854,0.00000589,0.00000063,0.00003529,-0.00003
 310,-0.00001573,-0.00000905,-0.00002197,-0.00001319,0.00000839,-0.0003
 0179,-0.00029123,-0.00022602,-0.01499140,-0.00054685,0.00668146,0.0604
 8256,-0.01716825,0.02785298,0.13905120,-0.11976425,0.03501105,0.023004
 59,0.01382224,-0.00314928,-0.00377083,0.00448572,0.00086650,0.00161148
 ,0.00046887,0.00104294,-0.00098175,0.00065590,-0.00336814,-0.20949667,
 0.11542684,-0.00007530,-0.00001445,-0.00002415,-0.00043434,0.00014248,
 -0.00006196,0.00029842,-0.00041093,0.00163549,-0.00006827,0.00003676,0
 .00007653,-0.00000151,-0.00001660,-0.00004639,-0.00013571,0.00025489,-
 0.00000725,0.00015900,-0.00022925,0.00007949,-0.00328137,-0.00344015,0
 .00344199,0.00002887,-0.00013324,0.00009798,0.00002314,-0.00000276,0.0
 0001284,-0.00000669,0.00000684,0.00004228,-0.00001325,-0.00002072,-0.0
 0000420,0.00002688,0.00002020,-0.00002017,-0.00003706,0.00002854,0.000
 03212,-0.00001543,-0.00000470,-0.00000103,0.00000715,0.00000718,0.0000
 0836,-0.00000295,-0.00000599,-0.00001259,-0.00001756,0.00001377,-0.000
 01199,0.00011030,0.00000475,-0.00003542,0.01755744,0.00564560,-0.00242
 531,-0.06193543,0.03673516,-0.00649889,-0.06849405,0.02479466,-0.09878
 766,0.01143616,-0.00211260,0.01750581,-0.00150999,0.00312316,-0.002012
 67,-0.00173658,-0.00100424,-0.00165745,0.00117761,-0.00473125,0.001843
 89,0.10507320,-0.05875472,0.08593845,0.00033110,-0.00283915,0.00150013
 ,0.00108804,-0.00002516,0.00264913,-0.00679072,-0.00712505,0.00118096,
 -0.00003182,0.00145927,-0.00106103,-0.00039903,-0.00084332,-0.00067998
 ,0.00279356,0.00840920,-0.00372940,0.00139106,-0.00018408,-0.00049625,
 0.00664344,-0.01889679,0.01007209,0.00004263,-0.00105086,0.00236371,0.
 00056583,0.00122181,-0.00106207,-0.00004198,0.00155431,-0.00087903,0.0
 0202748,-0.00226797,0.00220948,0.00020751,0.00029649,-0.00044787,-0.00
 535912,-0.00115832,-0.00378701,-0.00045388,0.00044645,-0.00031439,-0.0
 0025262,0.00018792,-0.00060413,-0.00045867,0.00000686,-0.00003511,0.00
 002638,-0.00037011,-0.00015556,0.00194140,0.00250060,0.00233257,0.0127
 3318,0.00584387,-0.00287358,-0.00847094,0.00003946,0.00137393,0.006339
 44,0.00091321,-0.00560726,-0.08468337,-0.04747388,-0.00571296,-0.31665
 022,-0.28501255,0.13942547,-0.00000711,-0.00096503,-0.00068114,0.00061
 941,-0.00039818,-0.00091808,-0.00763273,0.00299154,0.00186733,0.394481
 76,0.00004143,-0.00107520,-0.00038285,0.00035391,0.00038722,0.00057557
 ,-0.00493446,0.00053910,-0.00688941,0.00067028,0.00041424,0.00001176,0
 .00015259,-0.00024721,0.00035264,0.00223523,0.00258370,0.00043081,-0.0
 0079607,0.00086593,-0.00017923,-0.03737786,-0.04106893,0.03592079,-0.0
 0049886,-0.00004589,0.00023064,0.00081245,-0.00065145,-0.00021815,0.00
 042342,0.00081126,0.00005548,0.00188012,-0.00305709,0.00255655,-0.0000
 6694,0.00038364,-0.00007142,-0.00626515,0.00083291,-0.00347131,-0.0005
 3991,0.00049452,-0.00039303,-0.00022740,0.00035312,-0.00057814,-0.0002
 0038,-0.00020015,-0.00014368,-0.00020413,-0.00021454,-0.00004326,0.006
 27164,0.00149522,0.00329721,0.00870429,-0.00101223,0.00441371,-0.00133
 694,-0.00142174,0.00119484,0.01075761,0.00331471,-0.00783514,-0.053110
 67,-0.01486623,0.00643497,-0.26299684,-0.34913787,0.13967738,-0.001573
 04,-0.00079680,0.00091436,0.00035207,0.00027447,-0.00049896,-0.0052658
 2,0.00114884,0.00006760,0.34273945,0.39989644,-0.00027798,0.00106969,-
 0.00082977,-0.00117700,0.00017250,-0.00181196,0.00213663,-0.00374155,0
 .00188126,0.00025401,-0.00079399,0.00086219,0.00042654,0.00071611,0.00
 039710,-0.00410437,0.00227646,-0.00200647,0.00079563,-0.00049559,0.000
 07168,0.02455149,0.04674229,-0.00794229,0.00167715,-0.00035063,-0.0007
 3770,-0.00083470,-0.00036661,0.00018830,0.00011199,-0.00048643,0.00065
 593,-0.00044286,0.00011552,-0.00003557,-0.00024674,0.00004689,0.000187
 21,0.00025016,-0.00014999,0.00099036,-0.00007925,-0.00009071,-0.000053
 57,0.00007357,0.00006473,0.00017358,0.00014404,-0.00009761,-0.00007326
 ,-0.00014806,0.00019413,-0.00000845,-0.00106371,-0.00028435,-0.0025663
 5,-0.01091315,0.00161490,0.00177747,0.00280893,-0.00115474,0.00360121,
 -0.00025531,0.00342750,0.00144115,-0.00246725,0.00177213,0.01215220,0.
 12516187,0.12960611,-0.13503834,0.00053087,-0.00192538,-0.00227851,-0.
 00015181,-0.00112479,0.00059895,-0.00083074,-0.00132685,0.00089189,-0.
 13592994,-0.17542971,0.12751177\\-0.00000467,-0.00000011,0.00000503,0.
 00000136,-0.00001026,0.00000301,0.00002002,0.00002098,0.00000527,-0.00
 000462,0.00000744,-0.00000187,-0.00000062,0.00000082,-0.00000048,-0.00
 001408,-0.00001313,-0.00000381,-0.00000402,-0.00000299,0.00000150,-0.0
 0003016,-0.00000414,0.00000311,0.00001577,0.00000362,-0.00000967,-0.00
 000116,-0.00000008,0.00000161,0.00000168,-0.00000442,-0.00000152,-0.00
 000265,0.00000309,-0.00000283,-0.00000148,-0.00000072,0.00000056,0.000
 00018,-0.00000820,-0.00000255,0.00000003,0.00000185,0.00000365,-0.0000
 0156,-0.00000302,0.00000178,0.00000192,0.00000197,0.00000228,0.0000012
 4,0.00000036,0.00000040,0.00000518,0.00000438,0.00000321,0.00001845,-0
 .00000036,-0.00000914,-0.00000697,0.00001352,0.00000048,-0.00001592,-0
 .00000706,-0.00000384,-0.00000971,-0.00000537,0.00002273,0.00002331,0.
 00000618,-0.00001029,-0.00000195,0.00000206,0.00000159,0.00000072,-0.0
 0000654,-0.00000580,0.00001152,0.00000366,-0.00000356,-0.00000179,-0.0
 0000352,-0.00000087\\\@
 The archive entry for this job was punched.


 THE ENLIGHTENED ONE, BECAUSE HE SAW MANKIND DROWNING  
 IN THE GREAT SEA OF BIRTH, DEATH, AND SORROW, LONGED TO SAVE 
 THEM, FOR THIS HE WAS MOVED TO PITY.                         
 BECAUSE HE SAW MEN OF THE WORLD STRAYING IN FALSE PATHS, AND 
 NONE TO GUIDE THEM, FOR THIS HE WAS MOVED TO PITY.           
                     ..................                       
 BECAUSE HE SAW THE MEN OF THE WORLD PLOUGHING THEIR FIELDS,  
 SOWING THE SEED, TRAFFICKING, HUCKSTERING, BUYING, SELLING,  
 AND AT THE END WINNOWING NOTHING BUT BITTERNESS,             
 FOR THIS HE WAS MOVED TO PITY......                   
                   BUDAH'S PITY - UPSAKA SILA SUTRA           
 Job cpu time:       0 days 17 hours 17 minutes 50.4 seconds.
 Elapsed time:       0 days  0 hours 26 minutes 10.9 seconds.
 File lengths (MBytes):  RWF=   1167 Int=      0 D2E=      0 Chk=     28 Scr=      1
 Normal termination of Gaussian 16 at Mon Oct 28 06:29:07 2024.
