 Entering Gaussian System, Link 0=g16
 Input=PseudoUridineSsllgPBE0aVDZ.gjf
 Output=PseudoUridineSsllgPBE0aVDZ.log
 Initial command:
 /sw/contrib/chem-src/g16/c01/g16/l1.exe "/scr/Gau-56281.inp" -scrdir="/scr/"
 Entering Link 1 = /sw/contrib/chem-src/g16/c01/g16/l1.exe PID=     56282.
  
 Copyright (c) 1988-2019, Gaussian, Inc.  All Rights Reserved.
  
 This is part of the Gaussian(R) 16 program.  It is based on
 the Gaussian(R) 09 system (copyright 2009, Gaussian, Inc.),
 the Gaussian(R) 03 system (copyright 2003, Gaussian, Inc.),
 the Gaussian(R) 98 system (copyright 1998, Gaussian, Inc.),
 the Gaussian(R) 94 system (copyright 1995, Gaussian, Inc.),
 the Gaussian 92(TM) system (copyright 1992, Gaussian, Inc.),
 the Gaussian 90(TM) system (copyright 1990, Gaussian, Inc.),
 the Gaussian 88(TM) system (copyright 1988, Gaussian, Inc.),
 the Gaussian 86(TM) system (copyright 1986, Carnegie Mellon
 University), and the Gaussian 82(TM) system (copyright 1983,
 Carnegie Mellon University). Gaussian is a federally registered
 trademark of Gaussian, Inc.
  
 This software contains proprietary and confidential information,
 including trade secrets, belonging to Gaussian, Inc.
  
 This software is provided under written license and may be
 used, copied, transmitted, or stored only in accord with that
 written license.
  
 The following legend is applicable only to US Government
 contracts under FAR:
  
                    RESTRICTED RIGHTS LEGEND
  
 Use, reproduction and disclosure by the US Government is
 subject to restrictions as set forth in subparagraphs (a)
 and (c) of the Commercial Computer Software - Restricted
 Rights clause in FAR 52.227-19.
  
 Gaussian, Inc.
 340 Quinnipiac St., Bldg. 40, Wallingford CT 06492
  
  
 ---------------------------------------------------------------
 Warning -- This program may not be used in any manner that
 competes with the business of Gaussian, Inc. or will provide
 assistance to any competitor of Gaussian, Inc.  The licensee
 of this program is prohibited from giving any competitor of
 Gaussian, Inc. access to this program.  By using this program,
 the user acknowledges that Gaussian, Inc. is engaged in the
 business of creating and licensing software in the field of
 computational chemistry and represents and warrants to the
 licensee that it is not a competitor of Gaussian, Inc. and that
 it will not use this program in any manner prohibited above.
 ---------------------------------------------------------------
  

 Cite this work as:
 Gaussian 16, Revision C.01,
 M. J. Frisch, G. W. Trucks, H. B. Schlegel, G. E. Scuseria, 
 M. A. Robb, J. R. Cheeseman, G. Scalmani, V. Barone, 
 G. A. Petersson, H. Nakatsuji, X. Li, M. Caricato, A. V. Marenich, 
 J. Bloino, B. G. Janesko, R. Gomperts, B. Mennucci, H. P. Hratchian, 
 J. V. Ortiz, A. F. Izmaylov, J. L. Sonnenberg, D. Williams-Young, 
 F. Ding, F. Lipparini, F. Egidi, J. Goings, B. Peng, A. Petrone, 
 T. Henderson, D. Ranasinghe, V. G. Zakrzewski, J. Gao, N. Rega, 
 G. Zheng, W. Liang, M. Hada, M. Ehara, K. Toyota, R. Fukuda, 
 J. Hasegawa, M. Ishida, T. Nakajima, Y. Honda, O. Kitao, H. Nakai, 
 T. Vreven, K. Throssell, J. A. Montgomery, Jr., J. E. Peralta, 
 F. Ogliaro, M. J. Bearpark, J. J. Heyd, E. N. Brothers, K. N. Kudin, 
 V. N. Staroverov, T. A. Keith, R. Kobayashi, J. Normand, 
 K. Raghavachari, A. P. Rendell, J. C. Burant, S. S. Iyengar, 
 J. Tomasi, M. Cossi, J. M. Millam, M. Klene, C. Adamo, R. Cammi, 
 J. W. Ochterski, R. L. Martin, K. Morokuma, O. Farkas, 
 J. B. Foresman, and D. J. Fox, Gaussian, Inc., Wallingford CT, 2019.
 
 ******************************************
 Gaussian 16:  EM64L-G16RevC.01  3-Jul-2019
                26-Oct-2024 
 ******************************************
 %nprocshared=40
 Will use up to   40 processors via shared memory.
 %mem=50gb
 ------------------------------------------------------
 # PBE1PBE/aug-cc-pVDZ opt freq EmpiricalDispersion=GD3
 ------------------------------------------------------
 1/18=20,19=15,26=3,38=1/1,3;
 2/9=110,12=2,17=6,18=5,40=1/2;
 3/5=16,7=10,11=2,25=1,30=1,71=1,74=-13,124=31/1,2,3;
 4//1;
 5/5=2,38=5/2;
 6/7=2,8=2,9=2,10=2,28=1/1;
 7//1,2,3,16;
 1/18=20,19=15,26=3/3(2);
 2/9=110/2;
 99//99;
 2/9=110/2;
 3/5=16,7=10,11=2,25=1,30=1,71=1,74=-13,124=31/1,2,3;
 4/5=5,16=3,69=1/1;
 5/5=2,38=5/2;
 7//1,2,3,16;
 1/18=20,19=15,26=3/3(-5);
 2/9=110/2;
 6/7=2,8=2,9=2,10=2,19=2,28=1/1;
 99/9=1/99;
 ----
 blah
 ----
 Symbolic Z-matrix:
 Charge =  0 Multiplicity = 1
 C                     2.76723   0.25862   0.28648 
 C                     1.39827   0.90718   0.49704 
 C                     0.61354   0.41228  -0.73801 
 O                     1.55718   2.29609   0.56155 
 H                     0.93315   0.49715   1.4061 
 O                     1.22052  -0.7658   -1.17641 
 H                     0.63084   1.17737  -1.52882 
 C                    -0.81229   0.1166   -0.44373 
 C                     2.42946  -1.03833  -0.43237 
 H                     3.27438   0.07499   1.24692 
 O                     3.56159   1.04953  -0.56719 
 C                     2.22996  -2.24571   0.46449 
 H                     3.21526  -1.26053  -1.16752 
 O                     1.27985  -2.03245   1.49297 
 H                     3.18399  -2.47487   0.95923 
 H                     1.95949  -3.11428  -0.15731 
 H                     3.33173   1.96966  -0.37478 
 H                     0.6618    2.66951   0.49803 
 H                     0.39692  -2.12348   1.12282 
 C                    -1.36926  -1.11053  -0.7033 
 N                    -2.66986  -1.39433  -0.4674 
 C                    -3.55084  -0.36919   0.05623 
 N                    -2.89991   0.86105   0.24593 
 C                    -1.58478   1.16403   0.01647 
 H                    -0.67557  -1.83462  -1.12326 
 H                    -3.0831   -2.37536  -0.68086 
 H                    -3.46723   1.62391   0.59675 
 O                    -4.73362  -0.48274   0.31789 
 O                    -1.13034   2.2882    0.20989 
 

 GradGradGradGradGradGradGradGradGradGradGradGradGradGradGradGradGradGrad
 Berny optimization.
 Initialization pass.
                           ----------------------------
                           !    Initial Parameters    !
                           ! (Angstroms and Degrees)  !
 --------------------------                            --------------------------
 ! Name  Definition              Value          Derivative Info.                !
 --------------------------------------------------------------------------------
 ! R1    R(1,2)                  1.5294         estimate D2E/DX2                !
 ! R2    R(1,9)                  1.5208         estimate D2E/DX2                !
 ! R3    R(1,10)                 1.1015         estimate D2E/DX2                !
 ! R4    R(1,11)                 1.409          estimate D2E/DX2                !
 ! R5    R(2,3)                  1.5447         estimate D2E/DX2                !
 ! R6    R(2,4)                  1.3995         estimate D2E/DX2                !
 ! R7    R(2,5)                  1.1004         estimate D2E/DX2                !
 ! R8    R(3,6)                  1.3959         estimate D2E/DX2                !
 ! R9    R(3,7)                  1.1005         estimate D2E/DX2                !
 ! R10   R(3,8)                  1.4856         estimate D2E/DX2                !
 ! R11   R(4,18)                 0.9722         estimate D2E/DX2                !
 ! R12   R(6,9)                  1.4455         estimate D2E/DX2                !
 ! R13   R(8,20)                 1.3724         estimate D2E/DX2                !
 ! R14   R(8,24)                 1.3804         estimate D2E/DX2                !
 ! R15   R(9,12)                 1.5172         estimate D2E/DX2                !
 ! R16   R(9,13)                 1.0988         estimate D2E/DX2                !
 ! R17   R(11,17)                0.9677         estimate D2E/DX2                !
 ! R18   R(12,14)                1.4163         estimate D2E/DX2                !
 ! R19   R(12,15)                1.0988         estimate D2E/DX2                !
 ! R20   R(12,16)                1.1019         estimate D2E/DX2                !
 ! R21   R(14,19)                0.9617         estimate D2E/DX2                !
 ! R22   R(20,21)                1.3519         estimate D2E/DX2                !
 ! R23   R(20,25)                1.0871         estimate D2E/DX2                !
 ! R24   R(21,22)                1.4496         estimate D2E/DX2                !
 ! R25   R(21,26)                1.0857         estimate D2E/DX2                !
 ! R26   R(22,23)                1.4047         estimate D2E/DX2                !
 ! R27   R(22,28)                1.2167         estimate D2E/DX2                !
 ! R28   R(23,24)                1.369          estimate D2E/DX2                !
 ! R29   R(23,27)                1.0134         estimate D2E/DX2                !
 ! R30   R(24,29)                1.2279         estimate D2E/DX2                !
 ! A1    A(2,1,9)              103.1739         estimate D2E/DX2                !
 ! A2    A(2,1,10)             111.2702         estimate D2E/DX2                !
 ! A3    A(2,1,11)             110.4879         estimate D2E/DX2                !
 ! A4    A(9,1,10)             111.8528         estimate D2E/DX2                !
 ! A5    A(9,1,11)             108.5135         estimate D2E/DX2                !
 ! A6    A(10,1,11)            111.2402         estimate D2E/DX2                !
 ! A7    A(1,2,3)              102.0519         estimate D2E/DX2                !
 ! A8    A(1,2,4)              109.0005         estimate D2E/DX2                !
 ! A9    A(1,2,5)              109.5163         estimate D2E/DX2                !
 ! A10   A(3,2,4)              114.3627         estimate D2E/DX2                !
 ! A11   A(3,2,5)              109.051          estimate D2E/DX2                !
 ! A12   A(4,2,5)              112.3164         estimate D2E/DX2                !
 ! A13   A(2,3,6)              107.4931         estimate D2E/DX2                !
 ! A14   A(2,3,7)              110.1103         estimate D2E/DX2                !
 ! A15   A(2,3,8)              113.1389         estimate D2E/DX2                !
 ! A16   A(6,3,7)              110.7465         estimate D2E/DX2                !
 ! A17   A(6,3,8)              108.1546         estimate D2E/DX2                !
 ! A18   A(7,3,8)              107.2065         estimate D2E/DX2                !
 ! A19   A(2,4,18)             105.8797         estimate D2E/DX2                !
 ! A20   A(3,6,9)              111.1706         estimate D2E/DX2                !
 ! A21   A(3,8,20)             122.0062         estimate D2E/DX2                !
 ! A22   A(3,8,24)             116.8786         estimate D2E/DX2                !
 ! A23   A(20,8,24)            120.9571         estimate D2E/DX2                !
 ! A24   A(1,9,6)              105.5614         estimate D2E/DX2                !
 ! A25   A(1,9,12)             115.3683         estimate D2E/DX2                !
 ! A26   A(1,9,13)             109.261          estimate D2E/DX2                !
 ! A27   A(6,9,12)             110.1415         estimate D2E/DX2                !
 ! A28   A(6,9,13)             106.97           estimate D2E/DX2                !
 ! A29   A(12,9,13)            109.184          estimate D2E/DX2                !
 ! A30   A(1,11,17)            106.2212         estimate D2E/DX2                !
 ! A31   A(9,12,14)            113.4306         estimate D2E/DX2                !
 ! A32   A(9,12,15)            108.5389         estimate D2E/DX2                !
 ! A33   A(9,12,16)            109.0252         estimate D2E/DX2                !
 ! A34   A(14,12,15)           106.6712         estimate D2E/DX2                !
 ! A35   A(14,12,16)           111.3337         estimate D2E/DX2                !
 ! A36   A(15,12,16)           107.6247         estimate D2E/DX2                !
 ! A37   A(12,14,19)           108.7922         estimate D2E/DX2                !
 ! A38   A(8,20,21)            123.0335         estimate D2E/DX2                !
 ! A39   A(8,20,25)            114.1833         estimate D2E/DX2                !
 ! A40   A(21,20,25)           122.7815         estimate D2E/DX2                !
 ! A41   A(20,21,22)           119.9503         estimate D2E/DX2                !
 ! A42   A(20,21,26)           121.4354         estimate D2E/DX2                !
 ! A43   A(22,21,26)           118.6023         estimate D2E/DX2                !
 ! A44   A(21,22,23)           112.7382         estimate D2E/DX2                !
 ! A45   A(21,22,28)           127.0494         estimate D2E/DX2                !
 ! A46   A(23,22,28)           120.2105         estimate D2E/DX2                !
 ! A47   A(22,23,24)           128.0523         estimate D2E/DX2                !
 ! A48   A(22,23,27)           116.5278         estimate D2E/DX2                !
 ! A49   A(24,23,27)           115.42           estimate D2E/DX2                !
 ! A50   A(8,24,23)            115.1852         estimate D2E/DX2                !
 ! A51   A(8,24,29)            122.6893         estimate D2E/DX2                !
 ! A52   A(23,24,29)           122.1255         estimate D2E/DX2                !
 ! D1    D(9,1,2,3)            -31.5394         estimate D2E/DX2                !
 ! D2    D(9,1,2,4)           -152.8469         estimate D2E/DX2                !
 ! D3    D(9,1,2,5)             83.9144         estimate D2E/DX2                !
 ! D4    D(10,1,2,3)          -151.6286         estimate D2E/DX2                !
 ! D5    D(10,1,2,4)            87.0639         estimate D2E/DX2                !
 ! D6    D(10,1,2,5)           -36.1747         estimate D2E/DX2                !
 ! D7    D(11,1,2,3)            84.2834         estimate D2E/DX2                !
 ! D8    D(11,1,2,4)           -37.0241         estimate D2E/DX2                !
 ! D9    D(11,1,2,5)          -160.2628         estimate D2E/DX2                !
 ! D10   D(2,1,9,6)             29.1913         estimate D2E/DX2                !
 ! D11   D(2,1,9,12)           -92.6543         estimate D2E/DX2                !
 ! D12   D(2,1,9,13)           143.9155         estimate D2E/DX2                !
 ! D13   D(10,1,9,6)           148.8799         estimate D2E/DX2                !
 ! D14   D(10,1,9,12)           27.0343         estimate D2E/DX2                !
 ! D15   D(10,1,9,13)          -96.3959         estimate D2E/DX2                !
 ! D16   D(11,1,9,6)           -88.0325         estimate D2E/DX2                !
 ! D17   D(11,1,9,12)          150.1219         estimate D2E/DX2                !
 ! D18   D(11,1,9,13)           26.6917         estimate D2E/DX2                !
 ! D19   D(2,1,11,17)           34.5339         estimate D2E/DX2                !
 ! D20   D(9,1,11,17)          146.9725         estimate D2E/DX2                !
 ! D21   D(10,1,11,17)         -89.5713         estimate D2E/DX2                !
 ! D22   D(1,2,3,6)             23.8439         estimate D2E/DX2                !
 ! D23   D(1,2,3,7)            -96.8814         estimate D2E/DX2                !
 ! D24   D(1,2,3,8)            143.1814         estimate D2E/DX2                !
 ! D25   D(4,2,3,6)            141.369          estimate D2E/DX2                !
 ! D26   D(4,2,3,7)             20.6438         estimate D2E/DX2                !
 ! D27   D(4,2,3,8)            -99.2935         estimate D2E/DX2                !
 ! D28   D(5,2,3,6)            -91.9494         estimate D2E/DX2                !
 ! D29   D(5,2,3,7)            147.3253         estimate D2E/DX2                !
 ! D30   D(5,2,3,8)             27.388          estimate D2E/DX2                !
 ! D31   D(1,2,4,18)           167.8844         estimate D2E/DX2                !
 ! D32   D(3,2,4,18)            54.4098         estimate D2E/DX2                !
 ! D33   D(5,2,4,18)           -70.5638         estimate D2E/DX2                !
 ! D34   D(2,3,6,9)             -5.9486         estimate D2E/DX2                !
 ! D35   D(7,3,6,9)            114.3747         estimate D2E/DX2                !
 ! D36   D(8,3,6,9)           -128.4246         estimate D2E/DX2                !
 ! D37   D(2,3,8,20)          -123.9607         estimate D2E/DX2                !
 ! D38   D(2,3,8,24)            60.5709         estimate D2E/DX2                !
 ! D39   D(6,3,8,20)            -5.0046         estimate D2E/DX2                !
 ! D40   D(6,3,8,24)           179.527          estimate D2E/DX2                !
 ! D41   D(7,3,8,20)           114.4544         estimate D2E/DX2                !
 ! D42   D(7,3,8,24)           -61.014          estimate D2E/DX2                !
 ! D43   D(3,6,9,1)            -14.8101         estimate D2E/DX2                !
 ! D44   D(3,6,9,12)           110.3488         estimate D2E/DX2                !
 ! D45   D(3,6,9,13)          -131.1052         estimate D2E/DX2                !
 ! D46   D(3,8,20,21)         -178.7115         estimate D2E/DX2                !
 ! D47   D(3,8,20,25)            0.8287         estimate D2E/DX2                !
 ! D48   D(24,8,20,21)          -3.4254         estimate D2E/DX2                !
 ! D49   D(24,8,20,25)         176.1148         estimate D2E/DX2                !
 ! D50   D(3,8,24,23)          178.5            estimate D2E/DX2                !
 ! D51   D(3,8,24,29)           -1.6028         estimate D2E/DX2                !
 ! D52   D(20,8,24,23)           2.981          estimate D2E/DX2                !
 ! D53   D(20,8,24,29)        -177.1218         estimate D2E/DX2                !
 ! D54   D(1,9,12,14)           53.5111         estimate D2E/DX2                !
 ! D55   D(1,9,12,15)          -64.8551         estimate D2E/DX2                !
 ! D56   D(1,9,12,16)          178.1802         estimate D2E/DX2                !
 ! D57   D(6,9,12,14)          -65.8392         estimate D2E/DX2                !
 ! D58   D(6,9,12,15)          175.7946         estimate D2E/DX2                !
 ! D59   D(6,9,12,16)           58.83           estimate D2E/DX2                !
 ! D60   D(13,9,12,14)         176.9819         estimate D2E/DX2                !
 ! D61   D(13,9,12,15)          58.6157         estimate D2E/DX2                !
 ! D62   D(13,9,12,16)         -58.3489         estimate D2E/DX2                !
 ! D63   D(9,12,14,19)          79.415          estimate D2E/DX2                !
 ! D64   D(15,12,14,19)       -161.1453         estimate D2E/DX2                !
 ! D65   D(16,12,14,19)        -43.9982         estimate D2E/DX2                !
 ! D66   D(8,20,21,22)           1.4004         estimate D2E/DX2                !
 ! D67   D(8,20,21,26)        -179.8766         estimate D2E/DX2                !
 ! D68   D(25,20,21,22)       -178.1008         estimate D2E/DX2                !
 ! D69   D(25,20,21,26)          0.6222         estimate D2E/DX2                !
 ! D70   D(20,21,22,23)          0.721          estimate D2E/DX2                !
 ! D71   D(20,21,22,28)       -179.7837         estimate D2E/DX2                !
 ! D72   D(26,21,22,23)       -178.038          estimate D2E/DX2                !
 ! D73   D(26,21,22,28)          1.4573         estimate D2E/DX2                !
 ! D74   D(21,22,23,24)         -1.012          estimate D2E/DX2                !
 ! D75   D(21,22,23,27)        179.0468         estimate D2E/DX2                !
 ! D76   D(28,22,23,24)        179.4541         estimate D2E/DX2                !
 ! D77   D(28,22,23,27)         -0.4871         estimate D2E/DX2                !
 ! D78   D(22,23,24,8)          -0.7998         estimate D2E/DX2                !
 ! D79   D(22,23,24,29)        179.3024         estimate D2E/DX2                !
 ! D80   D(27,23,24,8)         179.142          estimate D2E/DX2                !
 ! D81   D(27,23,24,29)         -0.7558         estimate D2E/DX2                !
 --------------------------------------------------------------------------------
 Trust Radius=3.00D-01 FncErr=1.00D-07 GrdErr=1.00D-06 EigMax=2.50D+02 EigMin=1.00D-04
 Number of steps in this run=    173 maximum allowed number of steps=    174.
 GradGradGradGradGradGradGradGradGradGradGradGradGradGradGradGradGradGrad

                          Input orientation:                          
 ---------------------------------------------------------------------
 Center     Atomic      Atomic             Coordinates (Angstroms)
 Number     Number       Type             X           Y           Z
 ---------------------------------------------------------------------
      1          6           0        2.767232    0.258623    0.286484
      2          6           0        1.398272    0.907176    0.497036
      3          6           0        0.613535    0.412283   -0.738014
      4          8           0        1.557177    2.296087    0.561551
      5          1           0        0.933148    0.497152    1.406097
      6          8           0        1.220522   -0.765795   -1.176409
      7          1           0        0.630837    1.177369   -1.528816
      8          6           0       -0.812286    0.116602   -0.443727
      9          6           0        2.429457   -1.038326   -0.432373
     10          1           0        3.274377    0.074994    1.246920
     11          8           0        3.561589    1.049533   -0.567186
     12          6           0        2.229960   -2.245705    0.464487
     13          1           0        3.215259   -1.260532   -1.167523
     14          8           0        1.279854   -2.032446    1.492968
     15          1           0        3.183995   -2.474873    0.959227
     16          1           0        1.959491   -3.114276   -0.157310
     17          1           0        3.331730    1.969662   -0.374779
     18          1           0        0.661798    2.669512    0.498028
     19          1           0        0.396917   -2.123482    1.122816
     20          6           0       -1.369259   -1.110527   -0.703300
     21          7           0       -2.669861   -1.394328   -0.467404
     22          6           0       -3.550844   -0.369185    0.056233
     23          7           0       -2.899913    0.861046    0.245925
     24          6           0       -1.584777    1.164026    0.016469
     25          1           0       -0.675572   -1.834618   -1.123259
     26          1           0       -3.083095   -2.375364   -0.680855
     27          1           0       -3.467231    1.623905    0.596745
     28          8           0       -4.733620   -0.482736    0.317890
     29          8           0       -1.130341    2.288204    0.209886
 ---------------------------------------------------------------------
                    Distance matrix (angstroms):
                    1          2          3          4          5
     1  C    0.000000
     2  C    1.529380   0.000000
     3  C    2.389899   1.544694   0.000000
     4  O    2.385614   1.399459   2.475489   0.000000
     5  H    2.162011   1.100387   2.169462   2.082988   0.000000
     6  O    2.362583   2.372940   1.395884   3.536801   2.889110
     7  H    2.950185   2.183126   1.100465   2.545441   3.027838
     8  C    3.655999   2.529152   1.485597   3.372698   2.571616
     9  C    1.520830   2.390005   2.344196   3.587069   2.824288
    10  H    1.101523   2.185091   3.336736   2.889941   2.384304
    11  O    1.409005   2.415114   3.020975   2.616412   3.332818
    12  C    2.567490   3.260893   3.335227   4.592378   3.176730
    13  H    2.150046   3.281944   3.122780   4.288178   3.862771
    14  O    2.986117   3.106007   3.376087   4.436287   2.554725
    15  H    2.845747   3.852361   4.221796   5.056357   3.754855
    16  H    3.496548   4.112811   3.819088   5.472718   4.066944
    17  H    1.919266   2.372172   3.153721   2.032807   3.330616
    18  H    3.207801   1.910032   2.573949   0.972206   2.370099
    19  H    3.462986   3.252568   3.152731   4.603674   2.689891
    20  C    4.468199   3.629209   2.500325   4.665715   3.512160
    21  N    5.732589   4.772502   3.757361   5.704889   4.479886
    22  C    6.353365   5.130025   4.310867   5.783675   4.762232
    23  N    5.699218   4.305761   3.676118   4.693039   4.021290
    24  C    4.453386   3.032408   2.442732   3.383866   2.952242
    25  H    4.268716   3.800476   2.618926   4.988635   3.797733
    26  H    6.488448   5.678481   4.630261   6.700608   5.360683
    27  H    6.389741   4.919020   4.461195   5.069294   4.613888
    28  O    7.537465   6.289996   5.523410   6.881523   5.852917
    29  O    4.395013   2.895441   2.731062   2.710440   2.982746
                    6          7          8          9         10
     6  O    0.000000
     7  H    2.061020   0.000000
     8  C    2.334043   2.094099   0.000000
     9  C    1.445471   3.057209   3.441349   0.000000
    10  H    3.285996   3.988514   4.422763   2.184810   0.000000
    11  O    3.024428   3.087132   4.473967   2.378876   2.079230
    12  C    2.429329   4.271755   3.957349   1.517208   2.662452
    13  H    2.055193   3.571153   4.317580   1.098775   2.759830
    14  O    2.955249   4.455930   3.570188   2.452917   2.912038
    15  H    3.367063   5.103709   4.965308   2.137650   2.567637
    16  H    2.664583   4.697294   4.266539   2.146182   3.724544
    17  H    3.547187   3.042097   4.539984   3.140924   2.494587
    18  H    3.862285   2.517051   3.094701   4.211689   3.757384
    19  H    2.794293   4.240458   2.989014   2.779819   3.623324
    20  C    2.655115   3.149020   1.372386   3.809049   5.174183
    21  N    4.004101   4.316808   2.394589   5.111850   6.358599
    22  C    4.943950   4.731878   2.825889   6.037424   6.942526
    23  N    4.652701   3.964336   2.321207   5.698235   6.304104
    24  C    3.607890   2.701301   1.380442   4.600640   5.129462
    25  H    2.177241   3.308058   2.070680   3.279117   4.986628
    26  H    4.621407   5.209054   3.379748   5.677820   7.080821
    27  H    5.552456   4.638056   3.225411   6.551144   6.947743
    28  O    6.145312   5.911317   4.039323   7.223659   8.080976
    29  O    4.095764   2.712708   2.290027   4.914312   5.037388
                   11         12         13         14         15
    11  O    0.000000
    12  C    3.700835   0.000000
    13  H    2.411794   2.145888   0.000000
    14  O    4.353061   1.416317   3.379328   0.000000
    15  H    3.859268   1.098849   2.449218   2.026419   0.000000
    16  H    4.480181   1.101908   2.456390   2.087027   1.776204
    17  H    0.967726   4.437069   3.328087   4.869861   4.642767
    18  H    3.488237   5.159420   4.973879   4.845648   5.747946
    19  H    4.789497   1.951508   3.732745   0.961706   2.813901
    20  C    5.384946   3.950536   4.610402   3.562489   5.035629
    21  N    6.694280   5.059793   5.928128   4.455390   6.121314
    22  C    7.279294   6.091444   6.933414   5.307192   7.113886
    23  N    6.515189   6.001272   6.625274   5.234297   6.975033
    24  C    5.180622   5.136069   5.506420   4.539118   6.072196
    25  H    5.155684   3.336472   3.933205   3.272227   4.432035
    26  H    7.476274   5.436651   6.414745   4.886555   6.478903
    27  H    7.147653   6.888350   7.489212   6.058625   7.821137
    28  O    8.481845   7.184775   8.123798   6.320149   8.189539
    29  O    4.914504   5.649139   5.777112   5.111101   6.470078
                   16         17         18         19         20
    16  H    0.000000
    17  H    5.270366   0.000000
    18  H    5.963697   2.894844   0.000000
    19  H    2.249896   5.254498   4.840797   0.000000
    20  C    3.923480   5.629812   4.456128   2.734987   0.000000
    21  N    4.948260   6.880705   5.342921   3.530665   1.351945
    22  C    6.159945   7.281882   5.212985   4.449716   2.426065
    23  N    6.291231   6.359849   4.002486   4.532707   2.670399
    24  C    5.558408   4.997416   2.746905   3.994850   2.395435
    25  H    3.084500   5.575952   4.970344   2.505699   1.087141
    26  H    5.123257   7.753897   6.392555   3.927742   2.130153
    27  H    7.243498   6.876720   4.260507   5.408447   3.683575
    28  O    7.207534   8.458364   6.251372   5.446316   3.571537
    29  O    6.234476   4.511472   1.854773   4.756988   3.527373
                   21         22         23         24         25
    21  N    0.000000
    22  C    1.449567   0.000000
    23  N    2.376652   1.404693   0.000000
    24  C    2.820765   2.493539   1.368952   0.000000
    25  H    2.145038   3.435969   3.753527   3.334291   0.000000
    26  H    1.085705   2.187885   3.371472   3.906213   2.506850
    27  H    3.298173   2.066773   1.013350   2.022830   4.765832
    28  O    2.388888   1.216683   2.274513   3.566215   4.513563
    29  O    4.048442   3.597799   2.273645   1.227884   4.356805
                   26         27         28         29
    26  H    0.000000
    27  H    4.215919   0.000000
    28  O    2.702548   2.473750   0.000000
    29  O    5.133764   2.460083   4.546800   0.000000
 Stoichiometry    C9H12N2O6
 Framework group  C1[X(C9H12N2O6)]
 Deg. of freedom    81
 Full point group                 C1      NOp   1
 Largest Abelian subgroup         C1      NOp   1
 Largest concise Abelian subgroup C1      NOp   1
                         Standard orientation:                         
 ---------------------------------------------------------------------
 Center     Atomic      Atomic             Coordinates (Angstroms)
 Number     Number       Type             X           Y           Z
 ---------------------------------------------------------------------
      1          6           0        2.784134    0.249794    0.282153
      2          6           0        1.420534    0.909721    0.492142
      3          6           0        0.630363    0.416566   -0.740135
      4          8           0        1.590317    2.297574    0.551509
      5          1           0        0.953422    0.506558    1.403250
      6          8           0        1.227600   -0.767747   -1.175108
      7          1           0        0.652582    1.178682   -1.533678
      8          6           0       -0.797329    0.133033   -0.442978
      9          6           0        2.435348   -1.047032   -0.431650
     10          1           0        3.291088    0.065636    1.242589
     11          8           0        3.583503    1.031465   -0.575340
     12          6           0        2.227640   -2.249631    0.469757
     13          1           0        3.218440   -1.277953   -1.167007
     14          8           0        1.280563   -2.025336    1.498684
     15          1           0        3.180509   -2.484456    0.964092
     16          1           0        1.949615   -3.118273   -0.148598
     17          1           0        3.361056    1.954031   -0.385917
     18          1           0        0.697786    2.677726    0.487800
     19          1           0        0.396463   -2.110814    1.129986
     20          6           0       -1.364164   -1.090639   -0.697469
     21          7           0       -2.666625   -1.363474   -0.458904
     22          6           0       -3.538927   -0.329656    0.062204
     23          7           0       -2.878204    0.896140    0.246684
     24          6           0       -1.561052    1.188063    0.014472
     25          1           0       -0.676676   -1.821591   -1.115732
     26          1           0       -3.087752   -2.342017   -0.668333
     27          1           0       -3.439115    1.664630    0.595510
     28          8           0       -4.722208   -0.433072    0.325773
     29          8           0       -1.097637    2.309351    0.203305
 ---------------------------------------------------------------------
 Rotational constants (GHZ):           0.8747834           0.3302846           0.2676600
 Standard basis: Aug-CC-pVDZ (5D, 7F)
 There are   533 symmetry adapted cartesian basis functions of A   symmetry.
 There are   499 symmetry adapted basis functions of A   symmetry.
   499 basis functions,   863 primitive gaussians,   533 cartesian basis functions
    64 alpha electrons       64 beta electrons
       nuclear repulsion energy      1337.4244131829 Hartrees.
 NAtoms=   29 NActive=   29 NUniq=   29 SFac= 1.00D+00 NAtFMM=   60 NAOKFM=F Big=F
 Integral buffers will be    131072 words long.
 Raffenetti 2 integral format.
 Two-electron integral symmetry is turned on.
 Nuclear repulsion after empirical dispersion term =     1337.4033799281 Hartrees.
 One-electron integrals computed using PRISM.
 NBasis=   499 RedAO= T EigKep=  2.65D-06  NBF=   499
 NBsUse=   499 1.00D-06 EigRej= -1.00D+00 NBFU=   499
 ExpMin= 2.97D-02 ExpMax= 1.17D+04 ExpMxC= 4.01D+02 IAcc=3 IRadAn=         5 AccDes= 0.00D+00
 Harris functional with IExCor= 1009 and IRadAn=       5 diagonalized for initial guess.
 HarFok:  IExCor= 1009 AccDes= 0.00D+00 IRadAn=         5 IDoV= 1 UseB2=F ITyADJ=14
 ICtDFT=  3500011 ScaDFX=  1.000000  1.000000  1.000000  1.000000
 FoFCou: FMM=F IPFlag=           0 FMFlag=      100000 FMFlg1=           0
         NFxFlg=           0 DoJE=T BraDBF=F KetDBF=T FulRan=T
         wScrn=  0.000000 ICntrl=       500 IOpCl=  0 I1Cent=   200000004 NGrid=           0
         NMat0=    1 NMatS0=      1 NMatT0=    0 NMatD0=    1 NMtDS0=    0 NMtDT0=    0
 Petite list used in FoFCou.
 Requested convergence on RMS density matrix=1.00D-08 within 128 cycles.
 Requested convergence on MAX density matrix=1.00D-06.
 Requested convergence on             energy=1.00D-06.
 No special actions if energy rises.
 SCF Done:  E(RPBE1PBE) =  -910.212474987     A.U. after   14 cycles
            NFock= 14  Conv=0.76D-08     -V/T= 2.0053

 **********************************************************************

            Population analysis using the SCF Density.

 **********************************************************************

 Orbital symmetries:
       Occupied  (A) (A) (A) (A) (A) (A) (A) (A) (A) (A) (A) (A)
                 (A) (A) (A) (A) (A) (A) (A) (A) (A) (A) (A) (A)
                 (A) (A) (A) (A) (A) (A) (A) (A) (A) (A) (A) (A)
                 (A) (A) (A) (A) (A) (A) (A) (A) (A) (A) (A) (A)
                 (A) (A) (A) (A) (A) (A) (A) (A) (A) (A) (A) (A)
                 (A) (A) (A) (A)
       Virtual   (A) (A) (A) (A) (A) (A) (A) (A) (A) (A) (A) (A)
                 (A) (A) (A) (A) (A) (A) (A) (A) (A) (A) (A) (A)
                 (A) (A) (A) (A) (A) (A) (A) (A) (A) (A) (A) (A)
                 (A) (A) (A) (A) (A) (A) (A) (A) (A) (A) (A) (A)
                 (A) (A) (A) (A) (A) (A) (A) (A) (A) (A) (A) (A)
                 (A) (A) (A) (A) (A) (A) (A) (A) (A) (A) (A) (A)
                 (A) (A) (A) (A) (A) (A) (A) (A) (A) (A) (A) (A)
                 (A) (A) (A) (A) (A) (A) (A) (A) (A) (A) (A) (A)
                 (A) (A) (A) (A) (A) (A) (A) (A) (A) (A) (A) (A)
                 (A) (A) (A) (A) (A) (A) (A) (A) (A) (A) (A) (A)
                 (A) (A) (A) (A) (A) (A) (A) (A) (A) (A) (A) (A)
                 (A) (A) (A) (A) (A) (A) (A) (A) (A) (A) (A) (A)
                 (A) (A) (A) (A) (A) (A) (A) (A) (A) (A) (A) (A)
                 (A) (A) (A) (A) (A) (A) (A) (A) (A) (A) (A) (A)
                 (A) (A) (A) (A) (A) (A) (A) (A) (A) (A) (A) (A)
                 (A) (A) (A) (A) (A) (A) (A) (A) (A) (A) (A) (A)
                 (A) (A) (A) (A) (A) (A) (A) (A) (A) (A) (A) (A)
                 (A) (A) (A) (A) (A) (A) (A) (A) (A) (A) (A) (A)
                 (A) (A) (A) (A) (A) (A) (A) (A) (A) (A) (A) (A)
                 (A) (A) (A) (A) (A) (A) (A) (A) (A) (A) (A) (A)
                 (A) (A) (A) (A) (A) (A) (A) (A) (A) (A) (A) (A)
                 (A) (A) (A) (A) (A) (A) (A) (A) (A) (A) (A) (A)
                 (A) (A) (A) (A) (A) (A) (A) (A) (A) (A) (A) (A)
                 (A) (A) (A) (A) (A) (A) (A) (A) (A) (A) (A) (A)
                 (A) (A) (A) (A) (A) (A) (A) (A) (A) (A) (A) (A)
                 (A) (A) (A) (A) (A) (A) (A) (A) (A) (A) (A) (A)
                 (A) (A) (A) (A) (A) (A) (A) (A) (A) (A) (A) (A)
                 (A) (A) (A) (A) (A) (A) (A) (A) (A) (A) (A) (A)
                 (A) (A) (A) (A) (A) (A) (A) (A) (A) (A) (A) (A)
                 (A) (A) (A) (A) (A) (A) (A) (A) (A) (A) (A) (A)
                 (A) (A) (A) (A) (A) (A) (A) (A) (A) (A) (A) (A)
                 (A) (A) (A) (A) (A) (A) (A) (A) (A) (A) (A) (A)
                 (A) (A) (A) (A) (A) (A) (A) (A) (A) (A) (A) (A)
                 (A) (A) (A) (A) (A) (A) (A) (A) (A) (A) (A) (A)
                 (A) (A) (A) (A) (A) (A) (A) (A) (A) (A) (A) (A)
                 (A) (A) (A) (A) (A) (A) (A) (A) (A) (A) (A) (A)
                 (A) (A) (A)
 The electronic state is 1-A.
 Alpha  occ. eigenvalues --  -19.24668 -19.24379 -19.23714 -19.22517 -19.22380
 Alpha  occ. eigenvalues --  -19.22069 -14.50475 -14.47774 -10.41923 -10.36393
 Alpha  occ. eigenvalues --  -10.32866 -10.29859 -10.29292 -10.29185 -10.28856
 Alpha  occ. eigenvalues --  -10.28664 -10.26256  -1.13408  -1.11011  -1.10265
 Alpha  occ. eigenvalues --   -1.07434  -1.06827  -1.04465  -1.03245  -0.98174
 Alpha  occ. eigenvalues --   -0.86510  -0.80971  -0.78329  -0.73665  -0.71529
 Alpha  occ. eigenvalues --   -0.70263  -0.64841  -0.62935  -0.60989  -0.59445
 Alpha  occ. eigenvalues --   -0.56054  -0.55802  -0.54240  -0.53338  -0.52192
 Alpha  occ. eigenvalues --   -0.51831  -0.51204  -0.49649  -0.48989  -0.47653
 Alpha  occ. eigenvalues --   -0.45396  -0.45178  -0.44544  -0.44006  -0.42101
 Alpha  occ. eigenvalues --   -0.41320  -0.40262  -0.39260  -0.37689  -0.37157
 Alpha  occ. eigenvalues --   -0.33846  -0.33133  -0.32749  -0.32453  -0.30927
 Alpha  occ. eigenvalues --   -0.29335  -0.29271  -0.28321  -0.26675
 Alpha virt. eigenvalues --   -0.06723  -0.03092  -0.01906  -0.00076   0.00124
 Alpha virt. eigenvalues --    0.01026   0.01713   0.01852   0.02705   0.03185
 Alpha virt. eigenvalues --    0.03592   0.04202   0.04824   0.05455   0.05928
 Alpha virt. eigenvalues --    0.06507   0.06641   0.06839   0.07836   0.07978
 Alpha virt. eigenvalues --    0.08619   0.09122   0.09400   0.09438   0.09997
 Alpha virt. eigenvalues --    0.10118   0.10376   0.10472   0.10672   0.10981
 Alpha virt. eigenvalues --    0.11302   0.11753   0.11871   0.12227   0.12497
 Alpha virt. eigenvalues --    0.13098   0.13106   0.13483   0.14239   0.14272
 Alpha virt. eigenvalues --    0.14849   0.15274   0.15804   0.15962   0.16312
 Alpha virt. eigenvalues --    0.16463   0.17117   0.17642   0.17871   0.18055
 Alpha virt. eigenvalues --    0.18555   0.18756   0.19224   0.19938   0.20052
 Alpha virt. eigenvalues --    0.20788   0.21009   0.21179   0.22135   0.22337
 Alpha virt. eigenvalues --    0.22564   0.22687   0.23061   0.23342   0.23595
 Alpha virt. eigenvalues --    0.23932   0.24626   0.24852   0.25271   0.25449
 Alpha virt. eigenvalues --    0.26126   0.26256   0.26880   0.27043   0.27297
 Alpha virt. eigenvalues --    0.27473   0.28006   0.28354   0.28609   0.28867
 Alpha virt. eigenvalues --    0.29204   0.29377   0.29980   0.30076   0.30767
 Alpha virt. eigenvalues --    0.31130   0.31240   0.31596   0.31818   0.32256
 Alpha virt. eigenvalues --    0.32954   0.33444   0.34225   0.34547   0.34579
 Alpha virt. eigenvalues --    0.35224   0.35482   0.35690   0.35998   0.36664
 Alpha virt. eigenvalues --    0.37103   0.37600   0.38198   0.38405   0.38954
 Alpha virt. eigenvalues --    0.39358   0.40068   0.40425   0.40708   0.41154
 Alpha virt. eigenvalues --    0.41674   0.42160   0.42315   0.42708   0.43836
 Alpha virt. eigenvalues --    0.44346   0.44594   0.45920   0.45978   0.46757
 Alpha virt. eigenvalues --    0.47023   0.47591   0.47990   0.48415   0.48604
 Alpha virt. eigenvalues --    0.48942   0.49976   0.50913   0.51374   0.52003
 Alpha virt. eigenvalues --    0.52516   0.52909   0.53130   0.53868   0.54060
 Alpha virt. eigenvalues --    0.54572   0.55068   0.55230   0.56435   0.56638
 Alpha virt. eigenvalues --    0.57529   0.58355   0.58477   0.58919   0.59788
 Alpha virt. eigenvalues --    0.60395   0.60752   0.60948   0.62269   0.62868
 Alpha virt. eigenvalues --    0.62891   0.63447   0.64204   0.64527   0.65164
 Alpha virt. eigenvalues --    0.65249   0.65654   0.66160   0.66518   0.67022
 Alpha virt. eigenvalues --    0.67415   0.67657   0.68099   0.68334   0.69211
 Alpha virt. eigenvalues --    0.69853   0.70230   0.70886   0.71564   0.72290
 Alpha virt. eigenvalues --    0.72901   0.73586   0.73717   0.73809   0.74933
 Alpha virt. eigenvalues --    0.75161   0.76069   0.76492   0.77244   0.77844
 Alpha virt. eigenvalues --    0.78568   0.78984   0.79716   0.80146   0.80909
 Alpha virt. eigenvalues --    0.81529   0.82297   0.83427   0.83814   0.84012
 Alpha virt. eigenvalues --    0.84406   0.85780   0.86299   0.86903   0.87505
 Alpha virt. eigenvalues --    0.88184   0.88896   0.89557   0.89999   0.90330
 Alpha virt. eigenvalues --    0.91513   0.91728   0.93879   0.94413   0.95627
 Alpha virt. eigenvalues --    0.96077   0.97003   0.97553   0.98540   0.99435
 Alpha virt. eigenvalues --    1.00541   1.01658   1.02485   1.03715   1.03801
 Alpha virt. eigenvalues --    1.05009   1.05932   1.06123   1.07515   1.08151
 Alpha virt. eigenvalues --    1.09258   1.10278   1.10376   1.11385   1.12700
 Alpha virt. eigenvalues --    1.13448   1.14652   1.15427   1.15829   1.16817
 Alpha virt. eigenvalues --    1.17525   1.19609   1.19962   1.20532   1.20670
 Alpha virt. eigenvalues --    1.21624   1.22096   1.22936   1.23533   1.24508
 Alpha virt. eigenvalues --    1.25838   1.27563   1.28546   1.29485   1.29927
 Alpha virt. eigenvalues --    1.30097   1.31872   1.32642   1.33126   1.34555
 Alpha virt. eigenvalues --    1.35291   1.36083   1.37149   1.39194   1.40356
 Alpha virt. eigenvalues --    1.40679   1.42676   1.43475   1.45006   1.45122
 Alpha virt. eigenvalues --    1.46178   1.48015   1.48994   1.50066   1.50894
 Alpha virt. eigenvalues --    1.52053   1.52987   1.53305   1.53597   1.54587
 Alpha virt. eigenvalues --    1.55925   1.56159   1.57838   1.58315   1.59212
 Alpha virt. eigenvalues --    1.60070   1.61289   1.61905   1.62861   1.63347
 Alpha virt. eigenvalues --    1.64759   1.65321   1.66495   1.67323   1.68472
 Alpha virt. eigenvalues --    1.69031   1.70543   1.71882   1.72856   1.73378
 Alpha virt. eigenvalues --    1.74069   1.75198   1.76255   1.77251   1.78090
 Alpha virt. eigenvalues --    1.79667   1.80319   1.81140   1.82271   1.84100
 Alpha virt. eigenvalues --    1.85509   1.86292   1.86356   1.86978   1.87587
 Alpha virt. eigenvalues --    1.88420   1.90701   1.91481   1.92542   1.92820
 Alpha virt. eigenvalues --    1.93968   1.94689   1.96421   1.97290   1.98356
 Alpha virt. eigenvalues --    1.99036   1.99924   2.00065   2.01546   2.02032
 Alpha virt. eigenvalues --    2.03066   2.04052   2.05342   2.06628   2.07954
 Alpha virt. eigenvalues --    2.09157   2.10086   2.10626   2.10801   2.13269
 Alpha virt. eigenvalues --    2.13568   2.14938   2.16078   2.16370   2.16603
 Alpha virt. eigenvalues --    2.17156   2.19530   2.21499   2.23043   2.24313
 Alpha virt. eigenvalues --    2.25447   2.26193   2.27005   2.29236   2.29771
 Alpha virt. eigenvalues --    2.31924   2.33281   2.35022   2.37131   2.37537
 Alpha virt. eigenvalues --    2.39381   2.40357   2.41617   2.42221   2.42289
 Alpha virt. eigenvalues --    2.44715   2.45222   2.45382   2.46178   2.47432
 Alpha virt. eigenvalues --    2.49409   2.50096   2.51747   2.52956   2.54287
 Alpha virt. eigenvalues --    2.56256   2.58379   2.59420   2.60942   2.62783
 Alpha virt. eigenvalues --    2.63169   2.64584   2.66032   2.67774   2.69628
 Alpha virt. eigenvalues --    2.71822   2.74081   2.75163   2.76778   2.78979
 Alpha virt. eigenvalues --    2.81642   2.82965   2.84127   2.86868   2.87837
 Alpha virt. eigenvalues --    2.88943   2.90742   2.92456   2.94391   2.97638
 Alpha virt. eigenvalues --    2.99020   3.11134   3.14925   3.19667   3.22690
 Alpha virt. eigenvalues --    3.25418   3.28568   3.34575   3.34775   3.36906
 Alpha virt. eigenvalues --    3.40713   3.41594   3.43737   3.45411   3.47573
 Alpha virt. eigenvalues --    3.48104   3.48965   3.50555   3.51592   3.53098
 Alpha virt. eigenvalues --    3.54162   3.54688   3.56369   3.58320   3.61699
 Alpha virt. eigenvalues --    3.63024   3.64687   3.65567   3.66320   3.68540
 Alpha virt. eigenvalues --    3.70718   3.72718   3.73456   3.78067   3.79128
 Alpha virt. eigenvalues --    3.82697   3.84619   3.89400   3.98000   3.99987
 Alpha virt. eigenvalues --    4.05697   4.13728   4.20355   4.38396   4.77324
          Condensed to atoms (all electrons):
               1          2          3          4          5          6
     1  C   10.548141  -3.029306  -0.111768   0.101225   0.226074  -0.059306
     2  C   -3.029306   9.280442  -1.009387  -0.637831  -0.815690  -0.174961
     3  C   -0.111768  -1.009387  15.942786   0.225963   0.161205  -0.425439
     4  O    0.101225  -0.637831   0.225963   8.750026  -0.161437   0.023151
     5  H    0.226074  -0.815690   0.161205  -0.161437   2.499656  -0.003121
     6  O   -0.059306  -0.174961  -0.425439   0.023151  -0.003121   9.590383
     7  H   -0.059670   0.124404  -0.871205  -0.045938   0.103495  -0.137069
     8  C    0.554911  -0.026195  -3.399296   0.000934  -0.239180   0.160070
     9  C   -1.783021   0.629844  -3.399167   0.064752  -0.139122   0.226434
    10  H   -1.069149   0.568482   0.260954   0.001292  -0.140044   0.025922
    11  O   -0.644457   0.295680  -0.156265  -0.029114  -0.013301   0.004576
    12  C   -0.066302  -0.014844   0.265305  -0.018955   0.074008  -0.061824
    13  H    0.275520   0.143500   0.519289  -0.007551  -0.002158  -0.253968
    14  O   -0.022171  -0.005473  -0.005004   0.002077  -0.037158  -0.025258
    15  H    0.039269  -0.018134   0.075658  -0.001457   0.018628   0.085264
    16  H    0.063742  -0.040275  -0.078601  -0.000004  -0.008122  -0.041861
    17  H    0.180250  -0.258032   0.075771   0.058249   0.031114   0.003314
    18  H   -0.018601   0.075399  -0.156658   0.314884  -0.054245   0.006498
    19  H    0.041212  -0.020385   0.050553  -0.000128  -0.011203  -0.000278
    20  C   -0.132052  -0.013453  -1.907176   0.021797  -0.047368   0.061155
    21  N    0.000174  -0.000448   0.253887  -0.000343   0.004051  -0.000540
    22  C   -0.005651  -0.039787  -0.334529  -0.000903   0.000611   0.012572
    23  N   -0.006344   0.010533  -0.131335  -0.011770   0.021901   0.003616
    24  C   -0.319603   0.058256  -0.442855   0.067454   0.038619  -0.115108
    25  H    0.076710  -0.030807   0.123229   0.000142   0.011769  -0.103259
    26  H   -0.002561   0.000711  -0.010498  -0.000085   0.000487  -0.000925
    27  H   -0.000519   0.004010   0.021332  -0.000263   0.000042   0.000807
    28  O   -0.000141  -0.000180   0.013881   0.000044  -0.000086   0.000220
    29  O    0.012693   0.081283  -0.215472  -0.054833   0.030930  -0.003072
               7          8          9         10         11         12
     1  C   -0.059670   0.554911  -1.783021  -1.069149  -0.644457  -0.066302
     2  C    0.124404  -0.026195   0.629844   0.568482   0.295680  -0.014844
     3  C   -0.871205  -3.399296  -3.399167   0.260954  -0.156265   0.265305
     4  O   -0.045938   0.000934   0.064752   0.001292  -0.029114  -0.018955
     5  H    0.103495  -0.239180  -0.139122  -0.140044  -0.013301   0.074008
     6  O   -0.137069   0.160070   0.226434   0.025922   0.004576  -0.061824
     7  H    1.829517   0.161978   0.120288   0.006585   0.016742   0.015977
     8  C    0.161978  14.563142   0.883758  -0.084593   0.044822  -0.108987
     9  C    0.120288   0.883758   9.931680  -0.076953   0.351785  -0.338270
    10  H    0.006585  -0.084593  -0.076953   1.960047  -0.086013  -0.068148
    11  O    0.016742   0.044822   0.351785  -0.086013   8.733037  -0.022843
    12  C    0.015977  -0.108987  -0.338270  -0.068148  -0.022843   5.096922
    13  H    0.015028  -0.213712  -0.998617   0.052197  -0.071171  -0.053223
    14  O    0.001427  -0.007001   0.069127   0.035593   0.002128   0.058378
    15  H   -0.000350   0.019594  -0.254358  -0.049246   0.006048   0.242487
    16  H    0.003544   0.029734   0.119223   0.028528  -0.001673   0.081335
    17  H    0.005672  -0.017707  -0.081121  -0.027391   0.274567   0.010289
    18  H    0.010359   0.138636   0.012342   0.002578   0.001910   0.000131
    19  H    0.000035   0.017704  -0.038014  -0.008943  -0.000837   0.028638
    20  C    0.005936  -3.123753  -0.231249   0.015453  -0.001319  -0.115696
    21  N   -0.002472   0.355144   0.025967  -0.000886  -0.000559   0.011648
    22  C   -0.009011  -0.124748   0.008481  -0.000567  -0.000005  -0.009218
    23  N    0.023068   0.093501  -0.020564   0.000164   0.000342   0.000067
    24  C   -0.003762  -4.848934   0.116610   0.014866   0.016276   0.027823
    25  H    0.038527   0.289232  -0.076525   0.000578  -0.000955   0.041245
    26  H   -0.000391   0.098575   0.001094  -0.000070   0.000016   0.000500
    27  H   -0.000158   0.149480  -0.000098   0.000012  -0.000052   0.000053
    28  O    0.000462   0.022628   0.000225   0.000004   0.000001   0.000052
    29  O    0.047181  -0.101954   0.025549  -0.000589   0.000178  -0.002863
              13         14         15         16         17         18
     1  C    0.275520  -0.022171   0.039269   0.063742   0.180250  -0.018601
     2  C    0.143500  -0.005473  -0.018134  -0.040275  -0.258032   0.075399
     3  C    0.519289  -0.005004   0.075658  -0.078601   0.075771  -0.156658
     4  O   -0.007551   0.002077  -0.001457  -0.000004   0.058249   0.314884
     5  H   -0.002158  -0.037158   0.018628  -0.008122   0.031114  -0.054245
     6  O   -0.253968  -0.025258   0.085264  -0.041861   0.003314   0.006498
     7  H    0.015028   0.001427  -0.000350   0.003544   0.005672   0.010359
     8  C   -0.213712  -0.007001   0.019594   0.029734  -0.017707   0.138636
     9  C   -0.998617   0.069127  -0.254358   0.119223  -0.081121   0.012342
    10  H    0.052197   0.035593  -0.049246   0.028528  -0.027391   0.002578
    11  O   -0.071171   0.002128   0.006048  -0.001673   0.274567   0.001910
    12  C   -0.053223   0.058378   0.242487   0.081335   0.010289   0.000131
    13  H    2.130812   0.030331  -0.098197  -0.017387  -0.009580   0.000608
    14  O    0.030331   8.373072  -0.198243  -0.060047  -0.001171  -0.001214
    15  H   -0.098197  -0.198243   1.793333  -0.385697   0.003176  -0.000756
    16  H   -0.017387  -0.060047  -0.385697   1.573572  -0.000167  -0.000031
    17  H   -0.009580  -0.001171   0.003176  -0.000167   0.592197  -0.009801
    18  H    0.000608  -0.001214  -0.000756  -0.000031  -0.009801   0.585844
    19  H    0.005082   0.262799   0.027508  -0.051025  -0.000015   0.000517
    20  C    0.014815   0.015841  -0.011260   0.005162  -0.001000   0.014698
    21  N    0.001244  -0.000071   0.000594  -0.000877  -0.000070  -0.001254
    22  C   -0.000064   0.002902   0.000338  -0.001576   0.000245   0.001389
    23  N   -0.000962   0.002041  -0.000276  -0.000027   0.000360  -0.000817
    24  C    0.005501  -0.008773   0.001614   0.007734   0.002020  -0.095421
    25  H    0.001038  -0.009788   0.005094   0.015453   0.000794  -0.003184
    26  H    0.000107   0.000337   0.000206  -0.000513   0.000009  -0.000061
    27  H    0.000086  -0.000080   0.000022  -0.000039   0.000071  -0.001361
    28  O    0.000001  -0.000094   0.000003  -0.000032  -0.000008   0.000221
    29  O   -0.000070   0.000479  -0.000169  -0.000037   0.000653   0.018044
              19         20         21         22         23         24
     1  C    0.041212  -0.132052   0.000174  -0.005651  -0.006344  -0.319603
     2  C   -0.020385  -0.013453  -0.000448  -0.039787   0.010533   0.058256
     3  C    0.050553  -1.907176   0.253887  -0.334529  -0.131335  -0.442855
     4  O   -0.000128   0.021797  -0.000343  -0.000903  -0.011770   0.067454
     5  H   -0.011203  -0.047368   0.004051   0.000611   0.021901   0.038619
     6  O   -0.000278   0.061155  -0.000540   0.012572   0.003616  -0.115108
     7  H    0.000035   0.005936  -0.002472  -0.009011   0.023068  -0.003762
     8  C    0.017704  -3.123753   0.355144  -0.124748   0.093501  -4.848934
     9  C   -0.038014  -0.231249   0.025967   0.008481  -0.020564   0.116610
    10  H   -0.008943   0.015453  -0.000886  -0.000567   0.000164   0.014866
    11  O   -0.000837  -0.001319  -0.000559  -0.000005   0.000342   0.016276
    12  C    0.028638  -0.115696   0.011648  -0.009218   0.000067   0.027823
    13  H    0.005082   0.014815   0.001244  -0.000064  -0.000962   0.005501
    14  O    0.262799   0.015841  -0.000071   0.002902   0.002041  -0.008773
    15  H    0.027508  -0.011260   0.000594   0.000338  -0.000276   0.001614
    16  H   -0.051025   0.005162  -0.000877  -0.001576  -0.000027   0.007734
    17  H   -0.000015  -0.001000  -0.000070   0.000245   0.000360   0.002020
    18  H    0.000517   0.014698  -0.001254   0.001389  -0.000817  -0.095421
    19  H    0.558747  -0.029822   0.003892  -0.001018  -0.000361  -0.007378
    20  C   -0.029822  14.694830  -1.255967   0.058968   0.376151  -2.442223
    21  N    0.003892  -1.255967   7.934083  -0.058567  -0.086938   0.085963
    22  C   -0.001018   0.058968  -0.058567   6.161645  -0.005242  -0.217430
    23  N   -0.000361   0.376151  -0.086938  -0.005242   7.497807  -0.526202
    24  C   -0.007378  -2.442223   0.085963  -0.217430  -0.526202  14.096617
    25  H    0.003667  -1.019762   0.118610  -0.078124  -0.016614   0.151039
    26  H    0.000560  -0.264793   0.467548  -0.096923   0.008066  -0.061038
    27  H    0.000235  -0.142663   0.038521  -0.190981   0.378082  -0.215131
    28  O    0.000001   0.079447  -0.102827   0.095113  -0.112208   0.027541
    29  O    0.000030  -0.013242   0.002185   0.010315  -0.145516   0.319467
              25         26         27         28         29
     1  C    0.076710  -0.002561  -0.000519  -0.000141   0.012693
     2  C   -0.030807   0.000711   0.004010  -0.000180   0.081283
     3  C    0.123229  -0.010498   0.021332   0.013881  -0.215472
     4  O    0.000142  -0.000085  -0.000263   0.000044  -0.054833
     5  H    0.011769   0.000487   0.000042  -0.000086   0.030930
     6  O   -0.103259  -0.000925   0.000807   0.000220  -0.003072
     7  H    0.038527  -0.000391  -0.000158   0.000462   0.047181
     8  C    0.289232   0.098575   0.149480   0.022628  -0.101954
     9  C   -0.076525   0.001094  -0.000098   0.000225   0.025549
    10  H    0.000578  -0.000070   0.000012   0.000004  -0.000589
    11  O   -0.000955   0.000016  -0.000052   0.000001   0.000178
    12  C    0.041245   0.000500   0.000053   0.000052  -0.002863
    13  H    0.001038   0.000107   0.000086   0.000001  -0.000070
    14  O   -0.009788   0.000337  -0.000080  -0.000094   0.000479
    15  H    0.005094   0.000206   0.000022   0.000003  -0.000169
    16  H    0.015453  -0.000513  -0.000039  -0.000032  -0.000037
    17  H    0.000794   0.000009   0.000071  -0.000008   0.000653
    18  H   -0.003184  -0.000061  -0.001361   0.000221   0.018044
    19  H    0.003667   0.000560   0.000235   0.000001   0.000030
    20  C   -1.019762  -0.264793  -0.142663   0.079447  -0.013242
    21  N    0.118610   0.467548   0.038521  -0.102827   0.002185
    22  C   -0.078124  -0.096923  -0.190981   0.095113   0.010315
    23  N   -0.016614   0.008066   0.378082  -0.112208  -0.145516
    24  C    0.151039  -0.061038  -0.215131   0.027541   0.319467
    25  H    2.124266  -0.009408  -0.003264   0.006747  -0.004215
    26  H   -0.009408   0.821184  -0.004507   0.003094   0.001989
    27  H   -0.003264  -0.004507   1.055992  -0.001242  -0.033308
    28  O    0.006747   0.003094  -0.001242   8.522844  -0.001421
    29  O   -0.004215   0.001989  -0.033308  -0.001421   8.893197
 Mulliken charges:
               1
     1  C    1.210704
     2  C    0.862642
     3  C    0.664840
     4  O   -0.661377
     5  H   -0.550357
     6  O   -0.797991
     7  H   -0.400201
     8  C    0.712216
     9  C    0.849921
    10  H   -0.360661
    11  O   -0.719544
    12  C    0.926317
    13  H   -0.468499
    14  O   -0.474984
    15  H   -0.300693
    16  H   -0.240039
    17  H    0.167311
    18  H    0.159346
    19  H    0.168227
    20  C    1.388544
    21  N   -0.791691
    22  C    0.821768
    23  N   -0.350522
    24  C    0.266458
    25  H   -0.652238
    26  H    0.047291
    27  H   -0.055080
    28  O   -0.554291
    29  O   -0.867414
 Sum of Mulliken charges =  -0.00000
 Mulliken charges with hydrogens summed into heavy atoms:
               1
     1  C    0.850042
     2  C    0.312285
     3  C    0.264639
     4  O   -0.502031
     6  O   -0.797991
     8  C    0.712216
     9  C    0.381421
    11  O   -0.552234
    12  C    0.385586
    14  O   -0.306757
    20  C    0.736306
    21  N   -0.744400
    22  C    0.821768
    23  N   -0.405603
    24  C    0.266458
    28  O   -0.554291
    29  O   -0.867414
 Electronic spatial extent (au):  <R**2>=           4026.8973
 Charge=             -0.0000 electrons
 Dipole moment (field-independent basis, Debye):
    X=             -1.5426    Y=             -3.8445    Z=             -1.1549  Tot=              4.3004
 Quadrupole moment (field-independent basis, Debye-Ang):
   XX=           -114.0614   YY=            -93.2884   ZZ=           -102.9266
   XY=             -2.0369   XZ=              4.6798   YZ=              4.1232
 Traceless Quadrupole moment (field-independent basis, Debye-Ang):
   XX=            -10.6359   YY=             10.1371   ZZ=              0.4989
   XY=             -2.0369   XZ=              4.6798   YZ=              4.1232
 Octapole moment (field-independent basis, Debye-Ang**2):
  XXX=             74.9273  YYY=            -28.2845  ZZZ=             -1.1823  XYY=            -16.5936
  XXY=             -6.6019  XXZ=             -0.0374  XZZ=             -9.7874  YZZ=              9.1080
  YYZ=            -16.1587  XYZ=             -8.0235
 Hexadecapole moment (field-independent basis, Debye-Ang**3):
 XXXX=          -4184.1631 YYYY=          -1184.8240 ZZZZ=           -383.2761 XXXY=           -136.0005
 XXXZ=            107.6215 YYYX=             70.7385 YYYZ=             22.3421 ZZZX=            -12.3802
 ZZZY=             10.8879 XXYY=           -669.3103 XXZZ=           -644.1613 YYZZ=           -279.4633
 XXYZ=             40.3145 YYXZ=            -11.9815 ZZXY=             10.6044
 N-N= 1.337403379928D+03 E-N=-4.806765350574D+03  KE= 9.053919878494D+02
 Calling FoFJK, ICntrl=      2127 FMM=F ISym2X=0 I1Cent= 0 IOpClX= 0 NMat=1 NMatS=1 NMatT=0.
 ***** Axes restored to original set *****
 -------------------------------------------------------------------
 Center     Atomic                   Forces (Hartrees/Bohr)
 Number     Number              X              Y              Z
 -------------------------------------------------------------------
      1        6          -0.000180613   -0.000596754    0.000619807
      2        6           0.002531346   -0.000279908   -0.002638947
      3        6          -0.002042208    0.001757070    0.002400232
      4        8           0.000306555    0.002186592    0.002041309
      5        1           0.000954310    0.000803865    0.000841779
      6        8           0.014308182   -0.013193360   -0.002514644
      7        1           0.005520760    0.002639862   -0.000518408
      8        6           0.010704117   -0.050164466   -0.020392833
      9        6          -0.002455490    0.001809304   -0.004547548
     10        1           0.000532632    0.000012306    0.000161425
     11        8           0.000949639    0.000285134   -0.000129297
     12        6           0.000760956    0.000921430   -0.000385554
     13        1           0.001193963   -0.000459095    0.000534961
     14        8          -0.000273597   -0.001788690    0.001408500
     15        1           0.000031660   -0.000172166    0.000295740
     16        1          -0.000078351   -0.000122020   -0.000164465
     17        1          -0.000576071   -0.000281824   -0.000055287
     18        1           0.000366052   -0.000741306   -0.000615353
     19        1           0.000799271    0.002017572   -0.000811276
     20        6           0.022629663    0.021180031    0.002432009
     21        7          -0.049544799   -0.017392220    0.005858419
     22        6           0.007794988   -0.000160007   -0.003437012
     23        7          -0.014431710   -0.012847727   -0.000333105
     24        6          -0.011579046    0.023181378    0.010544748
     25        1          -0.007343575   -0.009302685   -0.001243575
     26        1           0.016889925    0.050918842    0.012013642
     27        1          -0.004483716   -0.003165088    0.000230731
     28        8           0.015160137   -0.012739303   -0.007214755
     29        8          -0.008444983    0.015693233    0.005618758
 -------------------------------------------------------------------
 Cartesian Forces:  Max     0.050918842 RMS     0.012000963

 GradGradGradGradGradGradGradGradGradGradGradGradGradGradGradGradGradGrad
 Berny optimization.
 FormGI is forming the generalized inverse of G from B-inverse, IUseBI=4.
 Internal  Forces:  Max     0.058561514 RMS     0.008945458
 Search for a local minimum.
 Step number   1 out of a maximum of  173
 All quantities printed in internal units (Hartrees-Bohrs-Radians)
 Mixed Optimization -- RFO/linear search
 Second derivative matrix not updated -- first step.
 ITU=  0
     Eigenvalues ---    0.00513   0.00538   0.00879   0.00956   0.01282
     Eigenvalues ---    0.01476   0.01541   0.01573   0.01699   0.01722
     Eigenvalues ---    0.01831   0.01890   0.02073   0.02225   0.02369
     Eigenvalues ---    0.02399   0.03170   0.03854   0.04328   0.04831
     Eigenvalues ---    0.05114   0.05183   0.05476   0.05635   0.06018
     Eigenvalues ---    0.06046   0.06240   0.06938   0.07816   0.08327
     Eigenvalues ---    0.09932   0.11711   0.13013   0.14045   0.15996
     Eigenvalues ---    0.16000   0.16000   0.16000   0.16000   0.16000
     Eigenvalues ---    0.16140   0.16855   0.18401   0.20001   0.22075
     Eigenvalues ---    0.22352   0.23426   0.24568   0.24922   0.24999
     Eigenvalues ---    0.25000   0.26076   0.28464   0.29074   0.30637
     Eigenvalues ---    0.33472   0.33514   0.33631   0.33639   0.33810
     Eigenvalues ---    0.33818   0.33937   0.35145   0.35314   0.37146
     Eigenvalues ---    0.37246   0.42685   0.43020   0.43960   0.44160
     Eigenvalues ---    0.45416   0.45710   0.47245   0.48356   0.50472
     Eigenvalues ---    0.52929   0.53641   0.53844   0.55108   0.91974
     Eigenvalues ---    0.96868
 RFO step:  Lambda=-3.38557951D-02 EMin= 5.13364416D-03
 Linear search not attempted -- first point.
 Maximum step size (   0.300) exceeded in Quadratic search.
    -- Step size scaled by   0.990
 Iteration  1 RMS(Cart)=  0.07041969 RMS(Int)=  0.00132329
 Iteration  2 RMS(Cart)=  0.00173285 RMS(Int)=  0.00021452
 Iteration  3 RMS(Cart)=  0.00000180 RMS(Int)=  0.00021452
 Iteration  4 RMS(Cart)=  0.00000000 RMS(Int)=  0.00021452
 Variable       Old X    -DE/DX   Delta X   Delta X   Delta X     New X
                                 (Linear)    (Quad)   (Total)
    R1        2.89011   0.00179   0.00000   0.00396   0.00393   2.89404
    R2        2.87395   0.00002   0.00000  -0.00250  -0.00270   2.87125
    R3        2.08158   0.00038   0.00000   0.00103   0.00103   2.08261
    R4        2.66263   0.00032   0.00000   0.00068   0.00068   2.66331
    R5        2.91905   0.00297   0.00000   0.01065   0.01087   2.92992
    R6        2.64460   0.00158   0.00000   0.00318   0.00318   2.64778
    R7        2.07943  -0.00001   0.00000  -0.00002  -0.00002   2.07941
    R8        2.63784   0.01686   0.00000   0.03534   0.03547   2.67331
    R9        2.07958   0.00229   0.00000   0.00614   0.00614   2.08572
   R10        2.80737   0.02151   0.00000   0.05708   0.05708   2.86445
   R11        1.83720  -0.00058   0.00000  -0.00102  -0.00102   1.83618
   R12        2.73154  -0.00268   0.00000  -0.00599  -0.00611   2.72544
   R13        2.59343  -0.01500   0.00000  -0.02540  -0.02500   2.56843
   R14        2.60866   0.05856   0.00000   0.11592   0.11590   2.72456
   R15        2.86711  -0.00064   0.00000  -0.00187  -0.00187   2.86524
   R16        2.07638   0.00059   0.00000   0.00157   0.00157   2.07795
   R17        1.82874  -0.00014   0.00000  -0.00025  -0.00025   1.82849
   R18        2.67645   0.00012   0.00000   0.00025   0.00025   2.67670
   R19        2.07652   0.00020   0.00000   0.00052   0.00052   2.07705
   R20        2.08230   0.00021   0.00000   0.00056   0.00056   2.08286
   R21        1.81736  -0.00061   0.00000  -0.00104  -0.00104   1.81632
   R22        2.55481   0.01132   0.00000   0.01683   0.01724   2.57205
   R23        2.05440   0.00199   0.00000   0.00512   0.00512   2.05952
   R24        2.73928  -0.04008   0.00000  -0.10183  -0.10178   2.63750
   R25        2.05169  -0.05480   0.00000  -0.14025  -0.14025   1.91143
   R26        2.65449  -0.01747   0.00000  -0.03791  -0.03831   2.61617
   R27        2.29920  -0.01510   0.00000  -0.01492  -0.01492   2.28428
   R28        2.58694   0.01640   0.00000   0.03238   0.03196   2.61890
   R29        1.91495   0.00021   0.00000   0.00042   0.00042   1.91537
   R30        2.32036   0.01213   0.00000   0.01260   0.01260   2.33296
    A1        1.80072   0.00228   0.00000   0.00490   0.00476   1.80548
    A2        1.94203  -0.00063   0.00000   0.00027   0.00031   1.94234
    A3        1.92838  -0.00064   0.00000  -0.00203  -0.00200   1.92638
    A4        1.95220  -0.00035   0.00000   0.00176   0.00174   1.95394
    A5        1.89392  -0.00093   0.00000  -0.00274  -0.00263   1.89128
    A6        1.94151   0.00035   0.00000  -0.00182  -0.00185   1.93966
    A7        1.78114   0.00185   0.00000   0.00766   0.00791   1.78905
    A8        1.90242  -0.00140   0.00000  -0.00754  -0.00762   1.89480
    A9        1.91142  -0.00009   0.00000   0.00212   0.00198   1.91340
   A10        1.99601   0.00025   0.00000   0.00312   0.00301   1.99901
   A11        1.90330  -0.00016   0.00000   0.00341   0.00339   1.90668
   A12        1.96029  -0.00029   0.00000  -0.00741  -0.00737   1.95292
   A13        1.87611  -0.00496   0.00000  -0.01592  -0.01635   1.85976
   A14        1.92179  -0.00254   0.00000  -0.03198  -0.03236   1.88943
   A15        1.97465   0.00324   0.00000   0.02121   0.02108   1.99573
   A16        1.93289  -0.00031   0.00000  -0.01366  -0.01455   1.91834
   A17        1.88765   0.00504   0.00000   0.03481   0.03465   1.92230
   A18        1.87111  -0.00029   0.00000   0.00625   0.00661   1.87772
   A19        1.84795  -0.00108   0.00000  -0.00550  -0.00550   1.84245
   A20        1.94029   0.00088   0.00000   0.00669   0.00697   1.94727
   A21        2.12941   0.00149   0.00000  -0.00124  -0.00143   2.12798
   A22        2.03992   0.01712   0.00000   0.05340   0.05321   2.09313
   A23        2.11110  -0.01858   0.00000  -0.05184  -0.05148   2.05962
   A24        1.84239   0.00082   0.00000   0.00167   0.00158   1.84397
   A25        2.01356  -0.00057   0.00000  -0.00378  -0.00378   2.00978
   A26        1.90696  -0.00007   0.00000   0.00111   0.00114   1.90811
   A27        1.92233  -0.00037   0.00000  -0.00171  -0.00168   1.92066
   A28        1.86698   0.00017   0.00000   0.00510   0.00513   1.87211
   A29        1.90562   0.00009   0.00000  -0.00158  -0.00160   1.90402
   A30        1.85391  -0.00078   0.00000  -0.00399  -0.00399   1.84992
   A31        1.97974  -0.00103   0.00000  -0.00429  -0.00429   1.97544
   A32        1.89436   0.00124   0.00000   0.00727   0.00727   1.90164
   A33        1.90285  -0.00052   0.00000  -0.00384  -0.00385   1.89900
   A34        1.86176  -0.00025   0.00000  -0.00163  -0.00162   1.86015
   A35        1.94314   0.00074   0.00000   0.00253   0.00252   1.94566
   A36        1.87841  -0.00011   0.00000   0.00048   0.00048   1.87889
   A37        1.89878  -0.00120   0.00000  -0.00612  -0.00612   1.89266
   A38        2.14734  -0.00023   0.00000  -0.00322  -0.00243   2.14491
   A39        1.99287   0.01219   0.00000   0.06327   0.06286   2.05574
   A40        2.14294  -0.01196   0.00000  -0.06007  -0.06047   2.08247
   A41        2.09353   0.01921   0.00000   0.05689   0.05733   2.15086
   A42        2.11945  -0.00510   0.00000  -0.00548  -0.00570   2.11375
   A43        2.07000  -0.01411   0.00000  -0.05143  -0.05164   2.01836
   A44        1.96765   0.00286   0.00000  -0.00558  -0.00596   1.96169
   A45        2.21743  -0.01833   0.00000  -0.05616  -0.05598   2.16145
   A46        2.09807   0.01547   0.00000   0.06178   0.06196   2.16003
   A47        2.23493   0.00039   0.00000   0.00204   0.00127   2.23620
   A48        2.03379  -0.00545   0.00000  -0.02787  -0.02749   2.00630
   A49        2.01446   0.00506   0.00000   0.02584   0.02622   2.04068
   A50        2.01036  -0.00363   0.00000   0.00216   0.00169   2.01205
   A51        2.14133   0.01830   0.00000   0.05644   0.05665   2.19798
   A52        2.13149  -0.01467   0.00000  -0.05858  -0.05836   2.07313
    D1       -0.55047   0.00038   0.00000   0.00497   0.00482  -0.54564
    D2       -2.66768  -0.00026   0.00000   0.00075   0.00068  -2.66700
    D3        1.46458   0.00108   0.00000   0.01348   0.01344   1.47803
    D4       -2.64642  -0.00023   0.00000  -0.00012  -0.00019  -2.64661
    D5        1.51955  -0.00086   0.00000  -0.00434  -0.00434   1.51521
    D6       -0.63137   0.00047   0.00000   0.00839   0.00843  -0.62294
    D7        1.47102   0.00023   0.00000   0.00350   0.00341   1.47443
    D8       -0.64619  -0.00040   0.00000  -0.00072  -0.00074  -0.64693
    D9       -2.79711   0.00093   0.00000   0.01201   0.01203  -2.78509
   D10        0.50948  -0.00031   0.00000  -0.00445  -0.00446   0.50502
   D11       -1.61712  -0.00009   0.00000  -0.00114  -0.00114  -1.61826
   D12        2.51180   0.00028   0.00000   0.00283   0.00283   2.51463
   D13        2.59844   0.00013   0.00000  -0.00033  -0.00037   2.59808
   D14        0.47184   0.00035   0.00000   0.00297   0.00296   0.47479
   D15       -1.68243   0.00071   0.00000   0.00695   0.00693  -1.67550
   D16       -1.53646  -0.00031   0.00000  -0.00338  -0.00339  -1.53985
   D17        2.62012  -0.00009   0.00000  -0.00007  -0.00007   2.62005
   D18        0.46586   0.00027   0.00000   0.00390   0.00391   0.46976
   D19        0.60273  -0.00123   0.00000  -0.00728  -0.00723   0.59550
   D20        2.56515   0.00064   0.00000  -0.00401  -0.00405   2.56111
   D21       -1.56331  -0.00021   0.00000  -0.00487  -0.00488  -1.56819
   D22        0.41615  -0.00242   0.00000  -0.01035  -0.01008   0.40607
   D23       -1.69090   0.00249   0.00000   0.03469   0.03437  -1.65653
   D24        2.49899   0.00248   0.00000   0.03505   0.03505   2.53403
   D25        2.46736  -0.00283   0.00000  -0.01312  -0.01283   2.45453
   D26        0.36030   0.00208   0.00000   0.03192   0.03163   0.39193
   D27       -1.73300   0.00207   0.00000   0.03228   0.03230  -1.70070
   D28       -1.60482  -0.00316   0.00000  -0.01785  -0.01762  -1.62244
   D29        2.57131   0.00175   0.00000   0.02719   0.02684   2.59815
   D30        0.47801   0.00174   0.00000   0.02755   0.02751   0.50553
   D31        2.93013   0.00057   0.00000  -0.00248  -0.00240   2.92774
   D32        0.94963  -0.00096   0.00000  -0.00890  -0.00899   0.94064
   D33       -1.23157  -0.00071   0.00000  -0.00989  -0.00988  -1.24145
   D34       -0.10382   0.00157   0.00000   0.00670   0.00650  -0.09732
   D35        1.99622  -0.00481   0.00000  -0.05024  -0.05004   1.94617
   D36       -2.24143  -0.00234   0.00000  -0.02970  -0.02969  -2.27112
   D37       -2.16352  -0.00035   0.00000  -0.01061  -0.01095  -2.17447
   D38        1.05716   0.00010   0.00000  -0.01288  -0.01328   1.04388
   D39       -0.08735  -0.00118   0.00000   0.00581   0.00621  -0.08113
   D40        3.13334  -0.00073   0.00000   0.00354   0.00388   3.13722
   D41        1.99761   0.00102   0.00000   0.01192   0.01195   2.00955
   D42       -1.06489   0.00147   0.00000   0.00965   0.00962  -1.05528
   D43       -0.25849  -0.00022   0.00000  -0.00040  -0.00034  -0.25882
   D44        1.92595  -0.00061   0.00000  -0.00498  -0.00494   1.92101
   D45       -2.28822  -0.00061   0.00000  -0.00482  -0.00479  -2.29300
   D46       -3.11910  -0.00022   0.00000   0.00286   0.00306  -3.11604
   D47        0.01446  -0.00038   0.00000  -0.00179  -0.00188   0.01259
   D48       -0.05979   0.00095   0.00000   0.01002   0.00999  -0.04980
   D49        3.07378   0.00079   0.00000   0.00538   0.00505   3.07883
   D50        3.11541  -0.00026   0.00000  -0.00427  -0.00441   3.11100
   D51       -0.02797   0.00030   0.00000   0.00480   0.00499  -0.02299
   D52        0.05203  -0.00076   0.00000  -0.00889  -0.00883   0.04319
   D53       -3.09136  -0.00020   0.00000   0.00018   0.00056  -3.09079
   D54        0.93394   0.00003   0.00000  -0.00558  -0.00563   0.92832
   D55       -1.13194   0.00014   0.00000  -0.00580  -0.00584  -1.13778
   D56        3.10983  -0.00013   0.00000  -0.00830  -0.00834   3.10150
   D57       -1.14911  -0.00038   0.00000  -0.00387  -0.00384  -1.15295
   D58        3.06820  -0.00026   0.00000  -0.00409  -0.00405   3.06414
   D59        1.02678  -0.00054   0.00000  -0.00659  -0.00655   1.02023
   D60        3.08892  -0.00042   0.00000  -0.00813  -0.00814   3.08078
   D61        1.02304  -0.00030   0.00000  -0.00835  -0.00835   1.01469
   D62       -1.01838  -0.00058   0.00000  -0.01086  -0.01085  -1.02923
   D63        1.38605  -0.00177   0.00000  -0.02887  -0.02887   1.35718
   D64       -2.81252  -0.00101   0.00000  -0.02347  -0.02347  -2.83599
   D65       -0.76791  -0.00089   0.00000  -0.02250  -0.02250  -0.79041
   D66        0.02444   0.00018   0.00000  -0.00145  -0.00166   0.02278
   D67       -3.13944   0.00014   0.00000  -0.00297  -0.00315   3.14059
   D68       -3.10845   0.00024   0.00000   0.00300   0.00278  -3.10566
   D69        0.01086   0.00020   0.00000   0.00149   0.00129   0.01215
   D70        0.01258   0.00018   0.00000  -0.00304  -0.00322   0.00937
   D71       -3.13782   0.00037   0.00000   0.00282   0.00262  -3.13519
   D72       -3.10735   0.00012   0.00000  -0.00210  -0.00230  -3.10965
   D73        0.02544   0.00031   0.00000   0.00375   0.00355   0.02898
   D74       -0.01766   0.00023   0.00000   0.00415   0.00427  -0.01339
   D75        3.12496  -0.00002   0.00000   0.00194   0.00223   3.12718
   D76        3.13207   0.00024   0.00000  -0.00062  -0.00091   3.13116
   D77       -0.00850  -0.00001   0.00000  -0.00283  -0.00295  -0.01145
   D78       -0.01396   0.00001   0.00000   0.00134   0.00136  -0.01260
   D79        3.12942  -0.00059   0.00000  -0.00781  -0.00745   3.12197
   D80        3.12662   0.00025   0.00000   0.00350   0.00341   3.13003
   D81       -0.01319  -0.00035   0.00000  -0.00565  -0.00540  -0.01859
         Item               Value     Threshold  Converged?
 Maximum Force            0.058562     0.000450     NO 
 RMS     Force            0.008945     0.000300     NO 
 Maximum Displacement     0.350546     0.001800     NO 
 RMS     Displacement     0.070363     0.001200     NO 
 Predicted change in Energy=-1.868197D-02
 GradGradGradGradGradGradGradGradGradGradGradGradGradGradGradGradGradGrad

                          Input orientation:                          
 ---------------------------------------------------------------------
 Center     Atomic      Atomic             Coordinates (Angstroms)
 Number     Number       Type             X           Y           Z
 ---------------------------------------------------------------------
      1          6           0        2.813841    0.243877    0.276610
      2          6           0        1.443890    0.890791    0.500456
      3          6           0        0.632253    0.389694   -0.721849
      4          8           0        1.610953    2.280760    0.557708
      5          1           0        0.993611    0.493317    1.422460
      6          8           0        1.261244   -0.797779   -1.164028
      7          1           0        0.685125    1.159419   -1.511098
      8          6           0       -0.832929    0.128341   -0.434453
      9          6           0        2.478700   -1.055968   -0.435196
     10          1           0        3.334229    0.068085    1.232041
     11          8           0        3.594749    1.035636   -0.589185
     12          6           0        2.297201   -2.258380    0.470448
     13          1           0        3.261208   -1.277889   -1.175170
     14          8           0        1.360379   -2.037457    1.509623
     15          1           0        3.256174   -2.487484    0.956204
     16          1           0        2.018447   -3.128566   -0.145931
     17          1           0        3.356243    1.953806   -0.398609
     18          1           0        0.715490    2.653570    0.500327
     19          1           0        0.475417   -2.108182    1.141298
     20          6           0       -1.411925   -1.074590   -0.689461
     21          7           0       -2.731601   -1.321896   -0.466283
     22          6           0       -3.618758   -0.359887    0.018991
     23          7           0       -3.005971    0.863141    0.231846
     24          6           0       -1.675786    1.199218    0.036208
     25          1           0       -0.783379   -1.863757   -1.101671
     26          1           0       -3.134761   -2.227643   -0.666751
     27          1           0       -3.618908    1.594981    0.572504
     28          8           0       -4.790944   -0.569204    0.227159
     29          8           0       -1.315842    2.358029    0.263605
 ---------------------------------------------------------------------
                    Distance matrix (angstroms):
                    1          2          3          4          5
     1  C    0.000000
     2  C    1.531461   0.000000
     3  C    2.403645   1.550445   0.000000
     4  O    2.382194   1.401143   2.484200   0.000000
     5  H    2.165278   1.100376   2.177011   2.079389   0.000000
     6  O    2.360305   2.378053   1.414654   3.544584   2.903184
     7  H    2.926696   2.166618   1.103714   2.528739   3.024007
     8  C    3.717242   2.576682   1.515803   3.404387   2.630129
     9  C    1.519403   2.395026   2.362515   3.587840   2.838426
    10  H    1.102069   2.187566   3.349894   2.884499   2.386540
    11  O    1.409362   2.415470   3.035000   2.607900   3.332678
    12  C    2.562377   3.262870   3.347524   4.591551   3.190221
    13  H    2.150249   3.288395   3.146067   4.288378   3.876448
    14  O    2.972770   3.098392   3.376492   4.428988   2.558698
    15  H    2.849182   3.860677   4.240163   5.059813   3.771175
    16  H    3.490639   4.111346   3.825098   5.470098   4.077766
    17  H    1.916763   2.365462   3.157697   2.016798   3.321347
    18  H    3.203084   1.907342   2.574058   0.971665   2.365243
    19  H    3.427549   3.215969   3.120144   4.570868   2.667466
    20  C    4.530866   3.665284   2.514725   4.685253   3.564428
    21  N    5.809945   4.823411   3.782905   5.734585   4.554070
    22  C    6.466005   5.237023   4.379704   5.883291   4.896083
    23  N    5.852838   4.458047   3.790826   4.840643   4.189390
    24  C    4.596436   3.169074   2.560668   3.499192   3.089607
    25  H    4.391101   3.887810   2.688182   5.065904   3.883906
    26  H    6.510315   5.661365   4.587361   6.659339   5.367670
    27  H    6.579764   5.112044   4.604392   5.274652   4.817823
    28  O    7.648288   6.409324   5.588486   7.015401   6.001565
    29  O    4.639407   3.134487   2.939479   2.942549   3.186483
                    6          7          8          9         10
     6  O    0.000000
     7  H    2.069540   0.000000
     8  C    2.403235   2.127622   0.000000
     9  C    1.442240   3.046705   3.517026   0.000000
[...]
 -0.00022981,0.00200277,0.00002958,-0.00040990,0.00028915,-0.02540971,-
 0.00860552,0.00039773,0.04015422,0.00366920,-0.00274839,-0.16184352,-0
 .01735047,0.00866087,0.74058579,0.00011355,-0.00007944,0.00044056,-0.0
 0016544,-0.00359645,-0.00086850,-0.00087663,-0.00472434,-0.00090473,-0
 .00498426,0.00345846,-0.00074942,0.00013208,0.00031429,0.00004362,0.00
 278057,0.00008690,0.00038062,0.00045051,0.00012185,-0.00038164,0.03031
 964,0.02451147,-0.00049971,-0.00050219,-0.00045700,-0.00042614,0.00009
 045,-0.00000524,-0.00003463,-0.00020373,0.00060783,0.00006858,0.000186
 23,-0.00003357,0.00000956,0.00017688,0.00004611,0.00006446,0.00000485,
 0.00023706,0.00000867,0.00001095,-0.00005892,0.00004370,-0.00000719,0.
 00007335,0.00000162,0.00055021,-0.00019577,-0.00028500,0.00736542,-0.0
 0076446,0.00191352,-0.00004924,-0.00017914,-0.00003058,-0.02338166,-0.
 01024682,0.00024032,0.01006462,-0.06208928,-0.01494220,-0.06043200,-0.
 25503779,-0.03089447,-0.04685829,0.78672340,0.00004627,-0.00007365,0.0
 0005989,0.00044133,0.00020145,-0.00018503,-0.00069561,-0.00228042,0.00
 257915,0.00007452,-0.00000910,-0.00010372,0.00005697,-0.00002165,-0.00
 002877,0.00105674,-0.00002341,0.00011629,-0.00046008,0.00012815,-0.000
 09459,0.01074034,0.00046307,0.00857231,-0.00006666,-0.00007268,-0.0002
 4707,0.00003682,-0.00000640,0.00000518,-0.00000932,0.00005503,0.000016
 47,0.00008300,0.00002884,-0.00008689,0.00009723,-0.00003300,0.00003554
 ,-0.00005570,-0.00000671,0.00012518,-0.00000172,-0.00001394,0.00002287
 ,-0.00001090,0.00001592,0.00001244,0.00002279,-0.00003010,-0.00001559,
 -0.00020434,-0.00031590,0.00057162,0.00001038,0.00000469,-0.00010449,-
 0.00214434,-0.00091108,0.00014053,-0.00123645,-0.01427774,0.00624200,-
 0.00095195,-0.03671510,-0.06485428,-0.07813695,0.15085184,0.10489010,-
 0.00038365,0.00041621,0.00002960,-0.00112776,0.00443596,0.00048214,-0.
 01566893,0.02647772,0.00624901,0.00367165,-0.00200066,0.00037866,-0.00
 010123,-0.00006911,-0.00037197,-0.00496721,-0.00165557,-0.00068581,-0.
 00095026,0.00019634,0.00111507,-0.16676033,0.05644924,0.02157473,-0.00
 066193,0.00134294,0.00097905,0.00012924,-0.00003209,0.00003585,0.00087
 727,-0.00046110,-0.00029675,-0.00036104,0.00014652,0.00007239,-0.00019
 099,-0.00004164,-0.00019385,0.00021071,-0.00052605,0.00012397,0.000086
 83,0.00006952,-0.00002136,-0.00005716,-0.00008734,-0.00002594,-0.00095
 792,0.00006918,0.00033693,-0.00710069,-0.00514738,-0.00195433,-0.00019
 976,0.00043290,-0.00030733,0.06015498,0.00048347,-0.00525605,-0.040790
 20,0.02412729,0.00860467,-0.01406080,-0.08889456,-0.01795726,-0.263724
 69,0.03681590,0.02706961,0.62873576,-0.00048523,0.00051815,-0.00166912
 ,-0.00232753,0.01386500,0.00243381,0.01097120,0.01083842,-0.00088873,0
 .01728968,-0.01234167,0.00191052,-0.00034670,-0.00086641,0.00043807,-0
 .00822678,-0.00256867,-0.00090961,-0.00327912,-0.00101677,0.00194831,0
 .07074922,-0.16707078,-0.02523566,0.00260943,0.00067039,0.00121182,-0.
 00050118,-0.00004890,0.00005727,0.00027036,-0.00252437,-0.00012370,-0.
 00026328,-0.00007585,-0.00039775,-0.00070371,-0.00007519,-0.00011984,-
 0.00047125,-0.00046274,-0.00002627,-0.00019144,0.00019280,-0.00012474,
 0.00006732,-0.00024941,0.00009015,-0.00183328,0.00085110,0.00099264,-0
 .02516201,-0.00045247,-0.00578339,0.00092417,-0.00001512,0.00049773,-0
 .02017835,-0.05109546,-0.00954682,0.03156758,-0.00531849,-0.00348731,-
 0.03404477,0.02800778,0.01130070,-0.00191880,-0.13868782,-0.01684285,0
 .10062509,0.88526551,-0.00018315,0.00022331,-0.00024675,-0.00024581,0.
 00179013,0.00148891,0.00430207,-0.00152344,-0.00048715,0.00229999,-0.0
 0201882,0.00011909,-0.00014793,0.00006688,-0.00019227,-0.00176067,0.00
 051272,0.00033081,-0.00051971,-0.00025470,0.00053027,0.02409571,-0.022
 85609,-0.08991402,0.00054364,-0.00023004,0.00100547,-0.00006920,-0.000
 00262,-0.00003253,0.00013541,-0.00038395,-0.00025475,0.00010627,-0.000
 01102,0.00006015,-0.00033994,-0.00003054,-0.00009735,-0.00006212,-0.00
 006218,-0.00018875,-0.00003343,-0.00000809,-0.00002235,0.00001870,-0.0
 0007825,-0.00000442,-0.00032793,0.00013294,0.00023146,-0.00390004,-0.0
 0069027,-0.00101799,0.00021368,-0.00007539,0.00027991,-0.00965573,-0.0
 1154188,0.00185030,0.00972162,-0.00234804,-0.00624048,-0.00653944,0.01
 677436,-0.01001845,0.01894610,-0.02056680,-0.05972872,-0.01797153,0.13
 543164,0.23588354,0.00001160,-0.00028796,-0.00009815,-0.00010851,0.000
 16447,0.00000185,0.00049236,-0.00047774,-0.00059041,-0.00025792,0.0004
 3615,0.00015547,0.00003768,-0.00002145,0.00000769,-0.00245112,-0.00110
 004,0.00067907,0.00004743,0.00041412,-0.00001789,0.01396394,-0.0116398
 9,-0.00317069,-0.00117048,0.00039107,-0.00041746,-0.00004386,0.0000920
 5,0.00006219,-0.00000270,0.00024685,-0.00000483,-0.00000173,-0.0000384
 8,-0.00013951,0.00022753,-0.00001408,0.00001551,0.00001624,-0.00001840
 ,0.00030307,0.00003652,-0.00000018,0.00007975,-0.00006405,0.00011639,0
 .00002636,0.00007145,-0.00003247,-0.00001498,0.00043435,-0.00002642,0.
 00009131,0.00003875,0.00002329,-0.00052182,-0.11964319,0.11551843,0.03
 379734,-0.01819389,0.02933648,0.00831573,-0.00245614,-0.00559043,-0.00
 023284,0.00092003,0.00039545,-0.00009277,-0.00326061,-0.00167883,0.001
 25843,0.13215796,0.00016728,-0.00007995,0.00020132,0.00019820,-0.00032
 667,-0.00015818,0.00213286,-0.00123421,0.00075844,-0.00016090,0.000302
 70,0.00001518,0.00001796,0.00000017,-0.00002106,0.00144979,0.00067215,
 0.00037744,-0.00036268,-0.00007082,-0.00003715,0.01294090,-0.01455454,
 -0.00655684,-0.00055906,0.00062122,-0.00016697,0.00006273,0.00005987,0
 .00004733,0.00004308,0.00010820,-0.00002305,0.00002691,0.00019399,0.00
 001552,0.00013954,0.00000080,0.00001311,-0.00004193,-0.00019823,0.0000
 6381,0.00000977,-0.00005625,0.00000600,0.00003448,-0.00006135,-0.00003
 833,0.00001512,-0.00002942,-0.00000959,0.00031512,-0.00001818,0.000063
 73,-0.00007237,0.00026838,-0.00008964,0.12076482,-0.27160410,-0.062616
 25,-0.00534897,0.00796080,0.00171829,-0.00152019,0.00111877,-0.0004359
 8,-0.00025754,0.00033968,0.00020548,-0.00438028,-0.00212010,-0.0021893
 5,-0.12653800,0.27938348,-0.00015001,-0.00010334,-0.00034653,-0.000892
 05,-0.00000867,0.00062184,-0.00044115,0.00085789,-0.00505054,-0.000005
 50,0.00001037,-0.00010540,-0.00002549,-0.00002049,-0.00001985,0.000437
 02,0.00031792,-0.00063634,0.00102089,0.00011877,0.00003936,0.00240107,
 -0.00349003,0.00811948,0.00009833,-0.00001884,-0.00020719,-0.00011265,
 0.00001242,0.00001451,0.00002511,0.00001773,0.00002509,-0.00033071,0.0
 0000453,0.00039282,0.00008790,0.00003595,-0.00000368,0.00037791,0.0001
 2201,-0.00020160,0.00005560,0.00001990,-0.00004855,-0.00001157,-0.0000
 2285,-0.00003597,-0.00000585,-0.00000367,-0.00000107,-0.00000116,-0.00
 003702,0.00008006,-0.00052514,-0.00012580,-0.00029755,0.03567041,-0.06
 262908,-0.05935847,0.00081139,-0.00211144,0.00233681,0.00035788,-0.000
 14414,0.00388540,-0.00010606,0.00023362,-0.00057404,0.00048843,-0.0021
 3612,0.01063576,-0.03895681,0.06812930,0.04554506,-0.00002085,-0.00005
 306,-0.00007698,-0.00016322,0.00012699,0.00025543,0.00039382,-0.001440
 73,-0.00013734,0.00012401,-0.00007899,-0.00003472,0.00000690,-0.000005
 31,-0.00002956,0.00024764,0.00024127,-0.00003660,-0.00029209,0.0000112
 1,-0.00000793,-0.00514351,0.00281939,0.00154184,-0.00001080,0.00001380
 ,0.00000942,-0.00003160,0.00001402,0.00001217,0.00000299,0.00002188,-0
 .00001553,-0.00004946,-0.00004298,0.00003875,-0.00000126,0.00000169,-0
 .00000418,0.00005953,0.00006445,-0.00003262,0.00001411,0.00000941,-0.0
 0000379,-0.00001290,0.00001693,0.00000137,-0.00000582,0.00000701,0.000
 01143,-0.00019668,0.00002552,-0.00002052,-0.00006525,-0.00008242,-0.00
 001132,-0.01043273,-0.03090509,-0.00583162,-0.15070049,-0.15870301,-0.
 01706598,0.02195639,0.01951213,0.00156041,-0.00355540,0.00446778,0.001
 60527,-0.00130820,-0.00010511,0.00005628,0.00036238,0.00041761,-0.0001
 3474,0.15029506,-0.00002558,0.00005100,0.00005068,-0.00004011,-0.00013
 495,-0.00021359,-0.00019602,0.00082364,-0.00029020,0.00021502,0.000021
 44,0.00007025,-0.00002916,0.00000645,0.00000050,0.00039639,-0.00035043
 ,0.00007747,0.00027511,-0.00004462,-0.00002745,0.00166029,0.00374281,0
 .00006839,-0.00026238,0.00005716,-0.00007376,0.00005746,-0.00000980,0.
 00000905,0.00016467,-0.00001068,-0.00000335,0.00005850,0.00010803,-0.0
 0002770,0.00004885,-0.00000707,-0.00000812,-0.00002924,-0.00019165,0.0
 0007120,0.00000300,-0.00001802,0.00001898,-0.00000318,-0.00002933,-0.0
 0001856,-0.00009794,-0.00001868,0.00000651,-0.00026023,-0.00005226,-0.
 00008807,0.00002102,0.00019161,-0.00004867,-0.00002396,0.00583678,0.00
 241157,-0.15606581,-0.37348210,-0.05637744,-0.01664233,-0.02188475,-0.
 00248710,0.00395915,-0.00257205,-0.00163765,0.00217550,-0.00213240,-0.
 00051944,0.00042722,0.00072412,0.00046280,0.16574080,0.38508322,0.0000
 0805,0.00000609,0.00021989,0.00052327,-0.00024224,-0.00019723,0.000178
 16,-0.00021695,0.00232663,-0.00002837,0.00012102,-0.00004782,-0.000010
 61,0.00001192,-0.00005121,0.00000912,0.00001367,-0.00025840,-0.0004236
 5,0.00003591,0.00000371,0.00114426,-0.00016164,0.00289646,0.00004942,0
 .00000605,0.00006213,0.00004731,-0.00002871,-0.00002910,0.00003524,0.0
 0004848,-0.00009220,-0.00006704,0.00001498,0.00012731,0.00000778,0.000
 00094,-0.00001443,0.00010895,0.00002724,-0.00013466,0.00001031,0.00000
 075,-0.00001344,0.00000127,-0.00002622,-0.00001236,-0.00002279,-0.0000
 0974,0.00002038,0.00002747,-0.00002927,-0.00000055,-0.00008659,-0.0000
 4843,0.00008090,0.00044167,0.00597780,-0.00518582,-0.01654435,-0.05666
 205,-0.01894977,-0.00567080,-0.00582382,-0.00132782,0.00136099,-0.0017
 1466,0.00311124,0.00058912,-0.00031677,-0.00077858,-0.00015169,0.00047
 792,-0.00158248,0.01891057,0.05690648,0.02249004,-0.00003008,0.0000281
 1,-0.00002428,0.00002443,0.00037872,0.00010110,0.00054583,0.00150694,0
 .00013831,0.00061039,-0.00035574,0.00008229,-0.00003077,-0.00002786,-0
 .00002849,-0.00059062,-0.00002019,-0.00006372,-0.00003629,-0.00006185,
 0.00005618,-0.00551790,-0.00342720,0.00037787,0.00005227,0.00012628,0.
 00011959,-0.00000506,-0.00000640,0.00000040,0.00006954,-0.00006003,-0.
 00002350,-0.00006476,-0.00001033,0.00002401,-0.00003773,0.00000024,-0.
 00002196,0.00003304,-0.00002365,-0.00002602,0.00000712,0.00001401,-0.0
 0000933,-0.00000279,-0.00000808,-0.00000246,-0.00008888,0.00001846,0.0
 0003744,-0.00081670,0.00001881,-0.00024676,-0.00002081,0.00001368,0.00
 001000,-0.00112774,-0.00074605,-0.00008292,-0.00195482,-0.00527981,-0.
 00038739,0.02145192,-0.01333587,-0.00516422,-0.18844956,0.16891864,0.0
 5255030,-0.01461582,0.03293339,0.00857054,-0.00000967,0.00005672,-0.00
 002029,0.00096854,-0.00086268,-0.00014866,0.18755947,0.00003991,0.0000
 3019,-0.00005463,0.00003671,0.00017635,0.00008106,0.00010527,0.0004304
 3,-0.00005474,-0.00004326,-0.00016223,-0.00002819,-0.00000142,-0.00002
 092,0.00001534,-0.00049017,0.00009938,-0.00001061,-0.00002695,-0.00000
 073,0.00003035,-0.00252271,0.00097051,-0.00043386,0.00015720,0.0000150
 0,0.00007520,-0.00002637,0.00000121,0.00000068,-0.00009429,-0.00006693
 ,0.00003344,-0.00000788,-0.00002657,-0.00001754,-0.00004173,0.00000568
 ,0.00000174,-0.00003360,0.00003189,-0.00000575,-0.00001206,0.00000894,
 -0.00001248,0.00000650,0.00000182,0.00000761,0.00003566,0.00003439,-0.
 00000522,0.00009960,0.00009872,0.00001678,0.00003093,-0.00003694,0.000
 02135,-0.00085781,0.00016122,0.00027148,-0.00469493,-0.00303898,-0.000
 96914,0.02066804,-0.02083266,-0.00632701,0.16550224,-0.31169092,-0.077
 86425,0.00077722,0.01276946,0.00233373,0.00009854,0.00000168,0.0000820
 9,0.00092574,-0.00059621,-0.00038160,-0.17988628,0.32077391,-0.0000098
 9,-0.00000885,0.00000383,-0.00002970,-0.00003100,0.00008386,0.00003200
 ,-0.00007334,0.00038626,-0.00016024,0.00001927,-0.00009609,-0.00000371
 ,0.00003670,-0.00002579,-0.00003402,-0.00002706,-0.00007556,0.00004085
 ,-0.00000353,-0.00001609,0.00034864,-0.00054653,0.00431798,0.00004500,
 0.00001720,-0.00004381,-0.00001389,0.00000665,-0.00000787,-0.00000508,
 0.00001761,-0.00003627,-0.00004097,-0.00000950,0.00003372,0.00001671,-
 0.00000203,0.00000433,0.00002784,0.00000608,-0.00005571,-0.00000012,0.
 00000723,-0.00000573,0.00000438,-0.00000481,-0.00000602,0.00001604,-0.
 00000219,0.00001665,0.00022491,0.00003649,0.00007965,-0.00000428,-0.00
 000119,0.00003640,-0.00015273,0.00021191,-0.00070417,-0.00007782,-0.00
 076721,0.00407412,0.00188589,-0.00204620,-0.00147194,0.05217050,-0.079
 18901,-0.03998142,0.00172532,-0.00054911,0.00083424,-0.00003501,0.0000
 8946,-0.00042026,0.00015862,-0.00018216,0.00087343,-0.05500446,0.08138
 740,0.03973257,0.00030557,-0.00003199,-0.00060935,-0.00015913,0.001076
 21,0.00164977,0.00133423,-0.00205632,-0.00061261,-0.00147608,-0.000463
 92,-0.00067998,0.00014438,0.00000142,0.00004580,-0.00267982,0.00100262
 ,-0.00036204,-0.00095284,0.00029054,-0.00002418,-0.00126473,0.00132145
 ,-0.00049839,0.00171538,-0.00036121,0.00044557,-0.00038056,0.00006055,
 -0.00000697,-0.00106835,-0.00032646,0.00021461,-0.00008491,-0.00033469
 ,0.00002095,-0.00031345,0.00006119,0.00005901,-0.00017097,0.00059816,-
 0.00031125,-0.00009378,0.00005284,-0.00011222,0.00008639,0.00006423,0.
 00005245,0.00056498,0.00020495,-0.00005891,0.00188142,0.00040736,0.000
 74786,0.00018841,-0.00054351,0.00040814,0.00307573,0.00414346,0.001070
 98,-0.06915298,0.03166350,0.01535692,-0.68862632,-0.04833569,0.0543686
 9,-0.06070341,-0.04053210,0.00086831,0.01233836,0.00109773,-0.00010347
 ,-0.00175408,-0.00050604,0.00006976,-0.00304413,-0.00067334,-0.0001473
 2,-0.00328108,0.00021380,-0.00017527,0.81966555,0.00003981,0.00001168,
 0.00020006,0.00024283,-0.00092844,-0.00035084,0.00041823,0.00101050,0.
 00020070,-0.00092531,0.00082662,-0.00009583,-0.00000075,0.00004612,-0.
 00002587,-0.00013758,0.00024587,0.00014021,0.00031357,-0.00003338,-0.0
 0009291,-0.00107015,0.00820306,0.00215909,-0.00011300,0.00007810,0.000
 02282,0.00005061,-0.00001771,-0.00001885,0.00000904,0.00017776,-0.0000
 0589,-0.00003737,-0.00005201,0.00002333,-0.00000288,0.00001344,-0.0000
 0126,0.00004454,0.00009874,-0.00002638,0.00000980,0.00000384,-0.000001
 00,-0.00000552,0.00002441,0.00000683,0.00010673,-0.00006605,-0.0000588
 5,0.00141977,-0.00019092,0.00032197,-0.00003500,-0.00009065,-0.0000053
 1,-0.01146809,-0.00945754,-0.00173768,0.05907804,0.01288103,-0.0077493
 3,-0.04710759,-0.10639843,0.00022569,-0.07154135,-0.00295758,0.0028414
 8,0.01968867,-0.00794562,-0.00470951,0.00150846,0.00019624,-0.00003064
 ,-0.00343064,0.00348202,0.00172912,0.00224056,0.00395242,0.00122259,0.
 05786786,0.09910257,-0.00001688,0.00000978,0.00006530,-0.00006136,-0.0
 0033553,-0.00033207,-0.00001940,0.00057565,-0.00030518,-0.00010772,0.0
 0029937,0.00014270,-0.00000159,-0.00000608,0.00003820,0.00027883,-0.00
 008864,0.00005427,0.00021515,-0.00011462,-0.00000031,-0.00024709,0.001
 72479,-0.00061257,-0.00022502,0.00004534,-0.00006338,0.00005166,-0.000
 01382,0.00000314,0.00009061,0.00004899,0.00003343,0.00004294,0.0000268
 7,-0.00006751,0.00003154,-0.00000370,-0.00000108,-0.00002936,-0.000062
 15,0.00011824,0.00000599,-0.00000558,0.00001860,-0.00001313,0.00000790
 ,0.00000661,-0.00003284,-0.00002724,-0.00002786,0.00021375,-0.00006311
 ,-0.00011852,0.00000128,0.00005516,-0.00010635,-0.00194368,-0.00310979
 ,0.00448200,0.02068053,-0.00488868,0.01770195,0.05456393,0.00032639,-0
 .08696155,-0.00541503,-0.00057606,0.02118678,0.00333705,-0.00306708,0.
 00630306,0.00042338,0.00010392,-0.00021394,-0.00073939,0.00147879,-0.0
 0329917,0.00043935,0.00152930,-0.00333415,-0.07063904,0.00558763,0.046
 64838,0.00040068,0.00023151,0.00096091,0.00090758,-0.01155596,-0.00130
 860,0.00034437,-0.00286026,-0.00033258,-0.02543255,0.00784184,-0.00646
 997,0.00024512,0.00090636,-0.00023953,0.00111887,0.00214973,0.00056723
 ,0.00142616,0.00013416,-0.00088358,0.02182182,0.00403332,0.00159988,-0
 .00030374,-0.00035451,-0.00035380,0.00015049,-0.00005037,-0.00007907,-
 0.00086430,0.00146127,0.00041527,-0.00001133,-0.00022233,0.00021742,0.
 00012813,0.00012750,0.00013132,0.00012453,0.00064028,-0.00022962,0.000
 02256,-0.00003174,-0.00002868,0.00002828,0.00018142,-0.00001561,0.0018
 0970,-0.00036379,-0.00113228,0.00600821,0.00600093,0.00434584,-0.00029
 063,-0.00036660,0.00006229,-0.00616852,0.00561304,0.00217434,0.0043086
 6,-0.00853359,-0.00208327,0.00041320,0.02461351,0.00536661,-0.05143043
 ,-0.08485097,-0.01069313,-0.16895562,-0.16738780,-0.02840834,0.0005997
 5,0.00095507,-0.00018253,0.00060303,0.00000899,-0.00015108,0.00535853,
 0.00004212,-0.00094952,-0.00609377,-0.00716328,-0.00088449,0.21373123,
 0.00023914,0.00004793,0.00131499,0.00008497,-0.00759304,-0.00207031,-0
 .00650582,-0.00046878,0.00187763,-0.00968836,0.01117684,-0.00080305,0.
 00024538,0.00064284,-0.00028415,0.00288926,0.00194405,0.00069389,0.001
 73375,0.00048000,-0.00089158,-0.01384292,-0.06960308,-0.01720415,-0.00
 186735,-0.00001776,-0.00061166,0.00033919,-0.00000075,-0.00008808,-0.0
 0004612,0.00162824,-0.00007826,0.00003274,-0.00002087,0.00026663,0.000
 36877,0.00007165,0.00006148,0.00032426,0.00035593,-0.00001498,0.000121
 41,-0.00008683,0.00005953,-0.00004805,0.00017788,-0.00004226,0.0011225
 3,-0.00063902,-0.00056163,0.01743468,-0.00664401,0.00376612,-0.0005674
 9,-0.00007131,-0.00032644,0.02013382,0.00638676,-0.00143183,-0.0117866
 0,-0.00219457,0.00078611,0.00682762,0.00562422,-0.00101026,-0.05551108
 ,-0.02314380,-0.00366031,-0.17143390,-0.55791036,-0.08716530,-0.001704
 58,-0.00159844,0.00045683,0.00040968,0.00140672,0.00028372,-0.00214252
 ,-0.00309012,0.00038517,-0.00596260,-0.00221607,0.00054219,0.22880018,
 0.64535573,0.00027470,0.00012986,0.00037972,-0.00038532,-0.00429622,-0
 .00154457,-0.00162778,0.00138753,-0.00240485,-0.00948238,0.00365511,0.
 00259083,0.00022739,0.00004352,0.00016046,0.00107870,-0.00013287,0.000
 74024,-0.00001709,0.00001277,0.00018278,-0.00319631,-0.02002514,0.0188
 7161,-0.00089599,-0.00012632,-0.00034633,0.00011522,-0.00002515,0.0000
 0713,-0.00030045,0.00062805,0.00044550,0.00010283,-0.00000918,0.000005
 98,0.00013660,0.00010288,0.00005540,0.00003258,0.00017092,0.00011439,0
 .00003096,-0.00003820,0.00003507,-0.00001007,0.00009042,-0.00000329,0.
 00064860,-0.00013799,-0.00063480,0.00729065,0.00095496,-0.00444348,-0.
 00014269,-0.00005623,-0.00017746,0.00552951,0.00008732,0.00297227,-0.0
 0287716,0.00002734,0.00050212,0.00211389,-0.00180125,0.00660899,-0.006
 03980,-0.00223715,0.01831704,-0.02814941,-0.08508781,-0.09032841,-0.00
 077230,0.00005616,-0.00259275,0.00002128,0.00037059,-0.00023708,-0.001
 25292,0.00027747,-0.00419615,-0.00103781,0.00022862,-0.00135904,0.0385
 8458,0.10574998,0.05627867\\0.00000854,0.00000820,-0.00001208,0.000005
 72,0.00001635,0.00001239,-0.00000369,-0.00001454,-0.00000488,-0.000005
 26,-0.00000230,-0.00000515,-0.00000233,-0.00000261,-0.00000193,0.00001
 252,0.00001369,0.00000229,-0.00000116,0.00000268,0.00000066,-0.0000218
 5,0.00001241,0.00000244,-0.00000945,0.00000129,-0.00000322,0.00000105,
 -0.00000325,-0.00000121,-0.00000471,-0.00000504,0.00001284,0.00000405,
 -0.00000383,0.00000347,0.00000036,0.00000199,-0.00000455,0.00000139,0.
 00000221,-0.00000411,-0.00000048,-0.00000490,-0.00000067,0.00000201,0.
 00000108,-0.00000760,-0.00000180,-0.00000083,-0.00000121,0.00000746,-0
 .00000101,0.00000506,0.00000042,-0.00000386,-0.00000074,0.00000474,-0.
 00000605,0.00000222,-0.00000605,-0.00000204,-0.00000884,0.00002867,0.0
 0001717,-0.00000324,-0.00003769,-0.00002014,0.00000597,0.00004125,0.00
 001588,0.00000510,0.00000321,0.00000317,-0.00000136,-0.00000090,-0.000
 00385,0.00000364,0.00000778,0.00000397,0.00000163,-0.00001978,-0.00000
 444,0.00000653,-0.00001403,-0.00002141,-0.00000344\\\@
 The archive entry for this job was punched.


 IF AT FIRST YOU DON'T SUCCEED, TRY LOOKING IN 
 THE WASTEBASKET FOR THE DIRECTIONS.
 Job cpu time:       0 days 10 hours 38 minutes 27.7 seconds.
 Elapsed time:       0 days  0 hours 16 minutes  6.8 seconds.
 File lengths (MBytes):  RWF=    632 Int=      0 D2E=      0 Chk=     21 Scr=      1
 Normal termination of Gaussian 16 at Sat Oct 26 05:53:21 2024.
