 Entering Gaussian System, Link 0=g16
 Input=PseudoUridineAmSsllgPBE0aVDZ.gjf
 Output=PseudoUridineAmSsllgPBE0aVDZ.log
 Initial command:
 /sw/contrib/chem-src/g16/c01/g16/l1.exe "/scr/Gau-20675.inp" -scrdir="/scr/"
 Entering Link 1 = /sw/contrib/chem-src/g16/c01/g16/l1.exe PID=     20676.
  
 Copyright (c) 1988-2019, Gaussian, Inc.  All Rights Reserved.
  
 This is part of the Gaussian(R) 16 program.  It is based on
 the Gaussian(R) 09 system (copyright 2009, Gaussian, Inc.),
 the Gaussian(R) 03 system (copyright 2003, Gaussian, Inc.),
 the Gaussian(R) 98 system (copyright 1998, Gaussian, Inc.),
 the Gaussian(R) 94 system (copyright 1995, Gaussian, Inc.),
 the Gaussian 92(TM) system (copyright 1992, Gaussian, Inc.),
 the Gaussian 90(TM) system (copyright 1990, Gaussian, Inc.),
 the Gaussian 88(TM) system (copyright 1988, Gaussian, Inc.),
 the Gaussian 86(TM) system (copyright 1986, Carnegie Mellon
 University), and the Gaussian 82(TM) system (copyright 1983,
 Carnegie Mellon University). Gaussian is a federally registered
 trademark of Gaussian, Inc.
  
 This software contains proprietary and confidential information,
 including trade secrets, belonging to Gaussian, Inc.
  
 This software is provided under written license and may be
 used, copied, transmitted, or stored only in accord with that
 written license.
  
 The following legend is applicable only to US Government
 contracts under FAR:
  
                    RESTRICTED RIGHTS LEGEND
  
 Use, reproduction and disclosure by the US Government is
 subject to restrictions as set forth in subparagraphs (a)
 and (c) of the Commercial Computer Software - Restricted
 Rights clause in FAR 52.227-19.
  
 Gaussian, Inc.
 340 Quinnipiac St., Bldg. 40, Wallingford CT 06492
  
  
 ---------------------------------------------------------------
 Warning -- This program may not be used in any manner that
 competes with the business of Gaussian, Inc. or will provide
 assistance to any competitor of Gaussian, Inc.  The licensee
 of this program is prohibited from giving any competitor of
 Gaussian, Inc. access to this program.  By using this program,
 the user acknowledges that Gaussian, Inc. is engaged in the
 business of creating and licensing software in the field of
 computational chemistry and represents and warrants to the
 licensee that it is not a competitor of Gaussian, Inc. and that
 it will not use this program in any manner prohibited above.
 ---------------------------------------------------------------
  

 Cite this work as:
 Gaussian 16, Revision C.01,
 M. J. Frisch, G. W. Trucks, H. B. Schlegel, G. E. Scuseria, 
 M. A. Robb, J. R. Cheeseman, G. Scalmani, V. Barone, 
 G. A. Petersson, H. Nakatsuji, X. Li, M. Caricato, A. V. Marenich, 
 J. Bloino, B. G. Janesko, R. Gomperts, B. Mennucci, H. P. Hratchian, 
 J. V. Ortiz, A. F. Izmaylov, J. L. Sonnenberg, D. Williams-Young, 
 F. Ding, F. Lipparini, F. Egidi, J. Goings, B. Peng, A. Petrone, 
 T. Henderson, D. Ranasinghe, V. G. Zakrzewski, J. Gao, N. Rega, 
 G. Zheng, W. Liang, M. Hada, M. Ehara, K. Toyota, R. Fukuda, 
 J. Hasegawa, M. Ishida, T. Nakajima, Y. Honda, O. Kitao, H. Nakai, 
 T. Vreven, K. Throssell, J. A. Montgomery, Jr., J. E. Peralta, 
 F. Ogliaro, M. J. Bearpark, J. J. Heyd, E. N. Brothers, K. N. Kudin, 
 V. N. Staroverov, T. A. Keith, R. Kobayashi, J. Normand, 
 K. Raghavachari, A. P. Rendell, J. C. Burant, S. S. Iyengar, 
 J. Tomasi, M. Cossi, J. M. Millam, M. Klene, C. Adamo, R. Cammi, 
 J. W. Ochterski, R. L. Martin, K. Morokuma, O. Farkas, 
 J. B. Foresman, and D. J. Fox, Gaussian, Inc., Wallingford CT, 2019.
 
 ******************************************
 Gaussian 16:  EM64L-G16RevC.01  3-Jul-2019
                26-Oct-2024 
 ******************************************
 %nprocshared=40
 Will use up to   40 processors via shared memory.
 %mem=50gb
 ------------------------------------------------------
 # PBE1PBE/aug-cc-pVDZ opt freq EmpiricalDispersion=GD3
 ------------------------------------------------------
 1/18=20,19=15,26=3,38=1/1,3;
 2/9=110,12=2,17=6,18=5,40=1/2;
 3/5=16,7=10,11=2,25=1,30=1,71=1,74=-13,124=31/1,2,3;
 4//1;
 5/5=2,38=5/2;
 6/7=2,8=2,9=2,10=2,28=1/1;
 7//1,2,3,16;
 1/18=20,19=15,26=3/3(2);
 2/9=110/2;
 99//99;
 2/9=110/2;
 3/5=16,7=10,11=2,25=1,30=1,71=1,74=-13,124=31/1,2,3;
 4/5=5,16=3,69=1/1;
 5/5=2,38=5/2;
 7//1,2,3,16;
 1/18=20,19=15,26=3/3(-5);
 2/9=110/2;
 6/7=2,8=2,9=2,10=2,19=2,28=1/1;
 99/9=1/99;
 ----
 blah
 ----
 Symbolic Z-matrix:
 Charge = -1 Multiplicity = 1
 C                     2.77436   0.5586    0.14642 
 C                     1.33973   0.92158   0.54774 
 C                     0.546     0.29962  -0.6155 
 O                     1.23199   2.3121    0.6719 
 H                     1.07703   0.4026    1.4853 
 O                     1.21133  -0.92224  -0.87857 
 H                     0.63248   0.98549  -1.47884 
 C                    -0.90312   0.01255  -0.35625 
 C                     2.61688  -0.77578  -0.58498 
 H                     3.4251    0.46503   1.02976 
 O                     3.28203   1.51596  -0.75677 
 C                     3.03857  -1.99829   0.20362 
 H                     3.18064  -0.72586  -1.52874 
 O                     2.34097  -2.10996   1.42854 
 H                     4.10628  -1.92324   0.44768 
 H                     2.89375  -2.89757  -0.41964 
 H                     2.89932   2.36262  -0.48278 
 H                     0.29306   2.54423   0.5419 
 H                     1.4023   -2.10121   1.21074 
 C                    -1.43596  -1.22483  -0.49378 
 N                    -2.76542  -1.47633  -0.28841 
 C                    -3.68643  -0.50652   0.05682 
 N                    -3.12155   0.74839   0.1819 
 C                    -1.78933   1.10169   0.01817 
 H                    -0.82225  -2.07393  -0.78581 
 H                    -3.75772   1.49162   0.44622 
 O                    -4.8653   -0.73587   0.23231 
 O                    -1.44894   2.27016   0.19528 
 

 GradGradGradGradGradGradGradGradGradGradGradGradGradGradGradGradGradGrad
 Berny optimization.
 Initialization pass.
                           ----------------------------
                           !    Initial Parameters    !
                           ! (Angstroms and Degrees)  !
 --------------------------                            --------------------------
 ! Name  Definition              Value          Derivative Info.                !
 --------------------------------------------------------------------------------
 ! R1    R(1,2)                  1.5333         estimate D2E/DX2                !
 ! R2    R(1,9)                  1.5298         estimate D2E/DX2                !
 ! R3    R(1,10)                 1.1011         estimate D2E/DX2                !
 ! R4    R(1,11)                 1.4107         estimate D2E/DX2                !
 ! R5    R(2,3)                  1.5395         estimate D2E/DX2                !
 ! R6    R(2,4)                  1.4002         estimate D2E/DX2                !
 ! R7    R(2,5)                  1.1034         estimate D2E/DX2                !
 ! R8    R(3,6)                  1.4159         estimate D2E/DX2                !
 ! R9    R(3,7)                  1.106          estimate D2E/DX2                !
 ! R10   R(3,8)                  1.4999         estimate D2E/DX2                !
 ! R11   R(4,18)                 0.9759         estimate D2E/DX2                !
 ! R12   R(6,9)                  1.4433         estimate D2E/DX2                !
 ! R13   R(8,20)                 1.3542         estimate D2E/DX2                !
 ! R14   R(8,24)                 1.4532         estimate D2E/DX2                !
 ! R15   R(9,12)                 1.5147         estimate D2E/DX2                !
 ! R16   R(9,13)                 1.1005         estimate D2E/DX2                !
 ! R17   R(11,17)                0.9687         estimate D2E/DX2                !
 ! R18   R(12,14)                1.414          estimate D2E/DX2                !
 ! R19   R(12,15)                1.0978         estimate D2E/DX2                !
 ! R20   R(12,16)                1.1037         estimate D2E/DX2                !
 ! R21   R(14,19)                0.9636         estimate D2E/DX2                !
 ! R22   R(20,21)                1.3685         estimate D2E/DX2                !
 ! R23   R(20,25)                1.0876         estimate D2E/DX2                !
 ! R24   R(21,22)                1.3813         estimate D2E/DX2                !
 ! R25   R(22,23)                1.3819         estimate D2E/DX2                !
 ! R26   R(22,27)                1.2137         estimate D2E/DX2                !
 ! R27   R(23,24)                1.388          estimate D2E/DX2                !
 ! R28   R(23,26)                1.0134         estimate D2E/DX2                !
 ! R29   R(24,28)                1.2299         estimate D2E/DX2                !
 ! A1    A(2,1,9)              103.6096         estimate D2E/DX2                !
 ! A2    A(2,1,10)             111.2903         estimate D2E/DX2                !
 ! A3    A(2,1,11)             110.0987         estimate D2E/DX2                !
 ! A4    A(9,1,10)             111.731          estimate D2E/DX2                !
 ! A5    A(9,1,11)             108.8381         estimate D2E/DX2                !
 ! A6    A(10,1,11)            111.015          estimate D2E/DX2                !
 ! A7    A(1,2,3)              100.8944         estimate D2E/DX2                !
 ! A8    A(1,2,4)              109.2869         estimate D2E/DX2                !
 ! A9    A(1,2,5)              109.5015         estimate D2E/DX2                !
 ! A10   A(3,2,4)              115.3755         estimate D2E/DX2                !
 ! A11   A(3,2,5)              109.225          estimate D2E/DX2                !
 ! A12   A(4,2,5)              111.9283         estimate D2E/DX2                !
 ! A13   A(2,3,6)              104.2859         estimate D2E/DX2                !
 ! A14   A(2,3,7)              107.3957         estimate D2E/DX2                !
 ! A15   A(2,3,8)              116.4145         estimate D2E/DX2                !
 ! A16   A(6,3,7)              110.6937         estimate D2E/DX2                !
 ! A17   A(6,3,8)              108.7202         estimate D2E/DX2                !
 ! A18   A(7,3,8)              109.2179         estimate D2E/DX2                !
 ! A19   A(2,4,18)             107.3643         estimate D2E/DX2                !
 ! A20   A(3,6,9)              109.4045         estimate D2E/DX2                !
 ! A21   A(3,8,20)             122.5123         estimate D2E/DX2                !
 ! A22   A(3,8,24)             119.3599         estimate D2E/DX2                !
 ! A23   A(20,8,24)            118.101          estimate D2E/DX2                !
 ! A24   A(1,9,6)              106.6191         estimate D2E/DX2                !
 ! A25   A(1,9,12)             115.2409         estimate D2E/DX2                !
 ! A26   A(1,9,13)             108.5248         estimate D2E/DX2                !
 ! A27   A(6,9,12)             107.1647         estimate D2E/DX2                !
 ! A28   A(6,9,13)             109.211          estimate D2E/DX2                !
 ! A29   A(12,9,13)            109.9068         estimate D2E/DX2                !
 ! A30   A(1,11,17)            105.6571         estimate D2E/DX2                !
 ! A31   A(9,12,14)            112.1725         estimate D2E/DX2                !
 ! A32   A(9,12,15)            109.3502         estimate D2E/DX2                !
 ! A33   A(9,12,16)            109.0921         estimate D2E/DX2                !
 ! A34   A(14,12,15)           107.0148         estimate D2E/DX2                !
 ! A35   A(14,12,16)           111.1064         estimate D2E/DX2                !
 ! A36   A(15,12,16)           107.9904         estimate D2E/DX2                !
 ! A37   A(12,14,19)           106.5018         estimate D2E/DX2                !
 ! A38   A(8,20,21)            122.3374         estimate D2E/DX2                !
 ! A39   A(8,20,25)            121.2375         estimate D2E/DX2                !
 ! A40   A(21,20,25)           116.4223         estimate D2E/DX2                !
 ! A41   A(20,21,22)           123.7942         estimate D2E/DX2                !
 ! A42   A(21,22,23)           112.809          estimate D2E/DX2                !
 ! A43   A(21,22,27)           123.4418         estimate D2E/DX2                !
 ! A44   A(23,22,27)           123.7491         estimate D2E/DX2                !
 ! A45   A(22,23,24)           127.7957         estimate D2E/DX2                !
 ! A46   A(22,23,26)           115.6596         estimate D2E/DX2                !
 ! A47   A(24,23,26)           116.5278         estimate D2E/DX2                !
 ! A48   A(8,24,23)            115.1482         estimate D2E/DX2                !
 ! A49   A(8,24,28)            125.4779         estimate D2E/DX2                !
 ! A50   A(23,24,28)           119.3737         estimate D2E/DX2                !
 ! D1    D(9,1,2,3)            -31.7927         estimate D2E/DX2                !
 ! D2    D(9,1,2,4)           -153.779          estimate D2E/DX2                !
 ! D3    D(9,1,2,5)             83.2878         estimate D2E/DX2                !
 ! D4    D(10,1,2,3)          -152.0042         estimate D2E/DX2                !
 ! D5    D(10,1,2,4)            86.0096         estimate D2E/DX2                !
 ! D6    D(10,1,2,5)           -36.9237         estimate D2E/DX2                !
 ! D7    D(11,1,2,3)            84.4617         estimate D2E/DX2                !
 ! D8    D(11,1,2,4)           -37.5246         estimate D2E/DX2                !
 ! D9    D(11,1,2,5)          -160.4578         estimate D2E/DX2                !
 ! D10   D(2,1,9,6)             14.6117         estimate D2E/DX2                !
 ! D11   D(2,1,9,12)          -104.1526         estimate D2E/DX2                !
 ! D12   D(2,1,9,13)           132.1388         estimate D2E/DX2                !
 ! D13   D(10,1,9,6)           134.5232         estimate D2E/DX2                !
 ! D14   D(10,1,9,12)           15.7589         estimate D2E/DX2                !
 ! D15   D(10,1,9,13)         -107.9497         estimate D2E/DX2                !
 ! D16   D(11,1,9,6)          -102.5287         estimate D2E/DX2                !
 ! D17   D(11,1,9,12)          138.707          estimate D2E/DX2                !
 ! D18   D(11,1,9,13)           14.9984         estimate D2E/DX2                !
 ! D19   D(2,1,11,17)           34.7102         estimate D2E/DX2                !
 ! D20   D(9,1,11,17)          147.6389         estimate D2E/DX2                !
 ! D21   D(10,1,11,17)         -88.9842         estimate D2E/DX2                !
 ! D22   D(1,2,3,6)             39.0315         estimate D2E/DX2                !
 ! D23   D(1,2,3,7)            -78.4784         estimate D2E/DX2                !
 ! D24   D(1,2,3,8)            158.7856         estimate D2E/DX2                !
 ! D25   D(4,2,3,6)            156.6491         estimate D2E/DX2                !
 ! D26   D(4,2,3,7)             39.1392         estimate D2E/DX2                !
 ! D27   D(4,2,3,8)            -83.5968         estimate D2E/DX2                !
 ! D28   D(5,2,3,6)            -76.2557         estimate D2E/DX2                !
 ! D29   D(5,2,3,7)            166.2344         estimate D2E/DX2                !
 ! D30   D(5,2,3,8)             43.4984         estimate D2E/DX2                !
 ! D31   D(1,2,4,18)           156.0164         estimate D2E/DX2                !
 ! D32   D(3,2,4,18)            43.2112         estimate D2E/DX2                !
 ! D33   D(5,2,4,18)           -82.5076         estimate D2E/DX2                !
 ! D34   D(2,3,6,9)            -31.5689         estimate D2E/DX2                !
 ! D35   D(7,3,6,9)             83.6433         estimate D2E/DX2                !
 ! D36   D(8,3,6,9)           -156.3882         estimate D2E/DX2                !
 ! D37   D(2,3,8,20)          -122.8479         estimate D2E/DX2                !
 ! D38   D(2,3,8,24)            59.0726         estimate D2E/DX2                !
 ! D39   D(6,3,8,20)            -5.5096         estimate D2E/DX2                !
 ! D40   D(6,3,8,24)           176.4109         estimate D2E/DX2                !
 ! D41   D(7,3,8,20)           115.3714         estimate D2E/DX2                !
 ! D42   D(7,3,8,24)           -62.7081         estimate D2E/DX2                !
 ! D43   D(3,6,9,1)             10.6645         estimate D2E/DX2                !
 ! D44   D(3,6,9,12)           134.5788         estimate D2E/DX2                !
 ! D45   D(3,6,9,13)          -106.4082         estimate D2E/DX2                !
 ! D46   D(3,8,20,21)         -178.343          estimate D2E/DX2                !
 ! D47   D(3,8,20,25)            1.0305         estimate D2E/DX2                !
 ! D48   D(24,8,20,21)          -0.2405         estimate D2E/DX2                !
 ! D49   D(24,8,20,25)         179.133          estimate D2E/DX2                !
 ! D50   D(3,8,24,23)          177.3881         estimate D2E/DX2                !
 ! D51   D(3,8,24,28)           -2.7645         estimate D2E/DX2                !
 ! D52   D(20,8,24,23)          -0.776          estimate D2E/DX2                !
 ! D53   D(20,8,24,28)         179.0714         estimate D2E/DX2                !
 ! D54   D(1,9,12,14)           57.0647         estimate D2E/DX2                !
 ! D55   D(1,9,12,15)          -61.4916         estimate D2E/DX2                !
 ! D56   D(1,9,12,16)         -179.3933         estimate D2E/DX2                !
 ! D57   D(6,9,12,14)          -61.3958         estimate D2E/DX2                !
 ! D58   D(6,9,12,15)         -179.9521         estimate D2E/DX2                !
 ! D59   D(6,9,12,16)           62.1462         estimate D2E/DX2                !
 ! D60   D(13,9,12,14)        -179.9589         estimate D2E/DX2                !
 ! D61   D(13,9,12,15)          61.4849         estimate D2E/DX2                !
 ! D62   D(13,9,12,16)         -56.4168         estimate D2E/DX2                !
 ! D63   D(9,12,14,19)          55.463          estimate D2E/DX2                !
 ! D64   D(15,12,14,19)        175.3894         estimate D2E/DX2                !
 ! D65   D(16,12,14,19)        -66.9428         estimate D2E/DX2                !
 ! D66   D(8,20,21,22)           0.8826         estimate D2E/DX2                !
 ! D67   D(25,20,21,22)       -178.5192         estimate D2E/DX2                !
 ! D68   D(20,21,22,23)         -0.3774         estimate D2E/DX2                !
 ! D69   D(20,21,22,27)        179.6993         estimate D2E/DX2                !
 ! D70   D(21,22,23,24)         -0.8025         estimate D2E/DX2                !
 ! D71   D(21,22,23,26)       -179.2412         estimate D2E/DX2                !
 ! D72   D(27,22,23,24)        179.1205         estimate D2E/DX2                !
 ! D73   D(27,22,23,26)          0.6818         estimate D2E/DX2                !
 ! D74   D(22,23,24,8)           1.3726         estimate D2E/DX2                !
 ! D75   D(22,23,24,28)       -178.4848         estimate D2E/DX2                !
 ! D76   D(26,23,24,8)         179.7997         estimate D2E/DX2                !
 ! D77   D(26,23,24,28)         -0.0577         estimate D2E/DX2                !
 --------------------------------------------------------------------------------
 Trust Radius=3.00D-01 FncErr=1.00D-07 GrdErr=1.00D-06 EigMax=2.50D+02 EigMin=1.00D-04
 Number of steps in this run=    166 maximum allowed number of steps=    168.
 GradGradGradGradGradGradGradGradGradGradGradGradGradGradGradGradGradGrad

                          Input orientation:                          
 ---------------------------------------------------------------------
 Center     Atomic      Atomic             Coordinates (Angstroms)
 Number     Number       Type             X           Y           Z
 ---------------------------------------------------------------------
      1          6           0        2.774360    0.558603    0.146423
      2          6           0        1.339730    0.921580    0.547737
      3          6           0        0.546004    0.299615   -0.615499
      4          8           0        1.231989    2.312095    0.671898
      5          1           0        1.077025    0.402595    1.485304
      6          8           0        1.211326   -0.922236   -0.878565
      7          1           0        0.632482    0.985487   -1.478843
      8          6           0       -0.903115    0.012549   -0.356247
      9          6           0        2.616875   -0.775779   -0.584979
     10          1           0        3.425097    0.465031    1.029764
     11          8           0        3.282027    1.515960   -0.756772
     12          6           0        3.038568   -1.998289    0.203621
     13          1           0        3.180639   -0.725858   -1.528739
     14          8           0        2.340973   -2.109960    1.428540
     15          1           0        4.106279   -1.923240    0.447684
     16          1           0        2.893751   -2.897565   -0.419641
     17          1           0        2.899316    2.362621   -0.482777
     18          1           0        0.293062    2.544233    0.541898
     19          1           0        1.402303   -2.101206    1.210744
     20          6           0       -1.435956   -1.224831   -0.493778
     21          7           0       -2.765423   -1.476332   -0.288409
     22          6           0       -3.686433   -0.506519    0.056824
     23          7           0       -3.121555    0.748388    0.181902
     24          6           0       -1.789325    1.101689    0.018167
     25          1           0       -0.822249   -2.073927   -0.785809
     26          1           0       -3.757723    1.491620    0.446215
     27          8           0       -4.865298   -0.735866    0.232314
     28          8           0       -1.448938    2.270165    0.195275
 ---------------------------------------------------------------------
                    Distance matrix (angstroms):
                    1          2          3          4          5
     1  C    0.000000
     2  C    1.533287   0.000000
     3  C    2.369213   1.539467   0.000000
     4  O    2.393693   1.400199   2.485567   0.000000
     5  H    2.167461   1.103355   2.169323   2.081306   0.000000
     6  O    2.384651   2.334627   1.415901   3.586817   2.713133
     7  H    2.722381   2.147396   1.106012   2.597111   3.053449
     8  C    3.751623   2.583385   1.499855   3.302070   2.732105
     9  C    1.529812   2.407316   2.333647   3.610071   2.836508
    10  H    1.101138   2.188502   3.320155   2.889539   2.392667
    11  O    1.410680   2.414032   2.997545   2.622515   3.335944
    12  C    2.571143   3.395600   3.487721   4.697065   3.354789
    13  H    2.149668   3.227189   2.971011   4.227197   3.844874
    14  O    2.992136   3.311878   3.634014   4.621355   2.813133
    15  H    2.832721   3.969484   4.329781   5.123463   3.957593
    16  H    3.504252   4.235171   3.971427   5.576152   4.221417
    17  H    1.914677   2.360268   3.132361   2.028745   3.322016
    18  H    3.202494   1.930946   2.538081   0.975895   2.468041
    19  H    3.176461   3.095275   3.135658   4.449336   2.539726
    20  C    4.617061   3.660091   2.503381   4.581111   3.588921
    21  N    5.917705   4.827153   3.771807   5.590498   4.630425
    22  C    6.548615   5.248121   4.360664   5.702085   5.055450
    23  N    5.899075   4.479609   3.779978   4.651733   4.409819
    24  C    4.597675   3.178658   2.549238   3.319757   3.295024
    25  H    4.553555   3.927539   2.744963   5.057864   3.859839
    26  H    6.605188   5.130232   4.590226   5.061752   5.063642
    27  O    7.749026   6.430318   5.574334   6.830828   6.178777
    28  O    4.557201   3.117624   2.918941   2.723288   3.395951
                    6          7          8          9         10
     6  O    0.000000
     7  H    2.082019   0.000000
     8  C    2.370127   2.136560   0.000000
     9  C    1.443333   2.799798   3.614431   0.000000
    10  H    3.235276   3.789813   4.567186   2.190942   0.000000
    11  O    3.201162   2.796941   4.464984   2.392490   2.077651
    12  C    2.380720   4.186031   4.460245   1.514677   2.626759
    13  H    2.083143   3.069902   4.312427   1.100457   2.832651
    14  O    2.830110   4.577511   4.267858   2.431135   2.822220
    15  H    3.337918   4.923359   5.430250   2.145084   2.550816
    16  H    2.634974   4.616637   4.784242   2.146153   3.700021
    17  H    3.714330   2.833228   4.471837   3.152741   2.482957
    18  H    3.857114   2.574546   2.940566   4.206238   3.790876
    19  H    2.406586   4.165834   3.498339   2.540977   3.272617
    20  C    2.692160   3.183441   1.354232   4.078652   5.367183
    21  N    4.058305   4.361587   2.385280   5.435794   6.620348
    22  C    5.003580   4.820517   2.861279   6.341617   7.243230
    23  N    4.763343   4.111822   2.398445   5.986716   6.607406
    24  C    3.728848   2.849507   1.453196   4.827346   5.349660
    25  H    2.338894   3.457825   2.131770   3.681453   5.270917
    26  H    5.680950   4.820365   3.313666   6.843972   7.279239
    27  O    6.180141   6.009717   4.074975   7.526784   8.414792
    28  O    4.292035   2.964014   2.387243   5.139787   5.264133
                   11         12         13         14         15
    11  O    0.000000
    12  C    3.651243   0.000000
    13  H    2.373175   2.154144   0.000000
    14  O    4.336873   1.414049   3.371391   0.000000
    15  H    3.736068   1.097819   2.489333   2.028114   0.000000
    16  H    4.443379   1.103687   2.455344   2.083665   1.780951
    17  H    0.968698   4.416794   3.272901   4.895800   4.548749
    18  H    3.417280   5.318528   4.828989   5.161549   5.874335
    19  H    4.526408   1.924124   3.543844   0.963646   2.815212
    20  C    5.462643   4.594123   4.757422   4.329429   5.664847
    21  N    6.763492   5.848149   6.120236   5.424452   6.925449
    22  C    7.301493   6.890034   7.051156   6.386098   7.930084
    23  N    6.517372   6.744763   6.694576   6.289950   7.710371
    24  C    5.146918   5.740454   5.516646   5.418782   6.640243
    25  H    5.452817   3.986302   4.288630   3.861426   5.082775
    26  H    7.141838   7.643814   7.547087   7.150555   8.573436
    27  O    8.510459   8.004101   8.236414   7.432996   9.052372
    28  O    4.884388   6.193342   5.777661   5.921981   6.964825
                   16         17         18         19         20
    16  H    0.000000
    17  H    5.260568   0.000000
    18  H    6.107480   2.806332   0.000000
    19  H    2.348778   5.003480   4.822642   0.000000
    20  C    4.642187   5.627123   4.274105   3.424784   0.000000
    21  N    5.836384   6.845773   5.119442   4.473015   1.368544
    22  C    7.017331   7.203834   5.037734   5.456170   2.425651
    23  N    7.059655   6.268846   3.874825   5.444630   2.681675
    24  C    6.173889   4.881009   2.586806   4.676245   2.408247
    25  H    3.823757   5.798692   4.932963   2.989247   1.087604
    26  H    8.016031   6.777746   4.186408   6.333938   3.695037
    27  O    8.080893   8.390543   6.120749   6.488783   3.539305
    28  O    6.778090   4.401774   1.797171   5.316920   3.562297
                   21         22         23         24         25
    21  N    0.000000
    22  C    1.381297   0.000000
    23  N    2.301608   1.381855   0.000000
    24  C    2.773616   2.487337   1.387972   0.000000
    25  H    2.092953   3.371995   3.766794   3.415575   0.000000
    26  H    3.214509   2.036975   1.013393   2.051795   4.779960
    27  O    2.286683   1.213721   2.290456   3.589440   4.378724
    28  O    4.000415   3.568687   2.261334   1.229865   4.497377
                   26         27         28
    26  H    0.000000
    27  O    2.496832   0.000000
    28  O    2.449406   4.550726   0.000000
 Stoichiometry    C9H11N2O6(1-)
 Framework group  C1[X(C9H11N2O6)]
 Deg. of freedom    78
 Full point group                 C1      NOp   1
 Largest Abelian subgroup         C1      NOp   1
 Largest concise Abelian subgroup C1      NOp   1
                         Standard orientation:                         
 ---------------------------------------------------------------------
 Center     Atomic      Atomic             Coordinates (Angstroms)
 Number     Number       Type             X           Y           Z
 ---------------------------------------------------------------------
      1          6           0        2.741938    0.575603    0.150410
      2          6           0        1.301952    0.917501    0.551052
      3          6           0        0.518456    0.290517   -0.616417
      4          8           0        1.175459    2.305852    0.681588
      5          1           0        1.044704    0.390623    1.485725
      6          8           0        1.200450   -0.921088   -0.884137
      7          1           0        0.597147    0.981563   -1.476374
      8          6           0       -0.927113   -0.017082   -0.360924
      9          6           0        2.603448   -0.757283   -0.587534
     10          1           0        3.392457    0.486539    1.034378
     11          8           0        3.238219    1.543914   -0.747419
     12          6           0        3.040166   -1.977779    0.195993
     13          1           0        3.168000   -0.695376   -1.530112
     14          8           0        2.342171   -2.104547    1.419213
     15          1           0        4.106389   -1.889647    0.442177
     16          1           0        2.908361   -2.875945   -0.431741
     17          1           0        2.843803    2.384087   -0.470070
     18          1           0        0.233726    2.526054    0.551127
     19          1           0        1.403816   -2.107287    1.199905
     20          6           0       -1.443167   -1.260796   -0.505170
     21          7           0       -2.769484   -1.530983   -0.303193
     22          6           0       -3.703908   -0.575190    0.045080
     23          7           0       -3.156034    0.686535    0.177009
     24          6           0       -1.828380    1.058351    0.017150
     25          1           0       -0.817714   -2.100236   -0.800182
     26          1           0       -3.802488    1.419953    0.443767
     27          8           0       -4.879885   -0.821074    0.217532
     28          8           0       -1.503905    2.230413    0.200328
 ---------------------------------------------------------------------
 Rotational constants (GHZ):           0.8828234           0.3013476           0.2449123
 Standard basis: Aug-CC-pVDZ (5D, 7F)
 There are   524 symmetry adapted cartesian basis functions of A   symmetry.
 There are   490 symmetry adapted basis functions of A   symmetry.
   490 basis functions,   852 primitive gaussians,   524 cartesian basis functions
    64 alpha electrons       64 beta electrons
       nuclear repulsion energy      1295.5371490753 Hartrees.
 NAtoms=   28 NActive=   28 NUniq=   28 SFac= 1.00D+00 NAtFMM=   60 NAOKFM=F Big=F
 Integral buffers will be    131072 words long.
 Raffenetti 2 integral format.
 Two-electron integral symmetry is turned on.
 Nuclear repulsion after empirical dispersion term =     1295.5177409885 Hartrees.
 One-electron integrals computed using PRISM.
 NBasis=   490 RedAO= T EigKep=  3.20D-06  NBF=   490
 NBsUse=   490 1.00D-06 EigRej= -1.00D+00 NBFU=   490
 ExpMin= 2.97D-02 ExpMax= 1.17D+04 ExpMxC= 4.01D+02 IAcc=3 IRadAn=         5 AccDes= 0.00D+00
 Harris functional with IExCor= 1009 and IRadAn=       5 diagonalized for initial guess.
 HarFok:  IExCor= 1009 AccDes= 0.00D+00 IRadAn=         5 IDoV= 1 UseB2=F ITyADJ=14
 ICtDFT=  3500011 ScaDFX=  1.000000  1.000000  1.000000  1.000000
 FoFCou: FMM=F IPFlag=           0 FMFlag=      100000 FMFlg1=           0
         NFxFlg=           0 DoJE=T BraDBF=F KetDBF=T FulRan=T
         wScrn=  0.000000 ICntrl=       500 IOpCl=  0 I1Cent=   200000004 NGrid=           0
         NMat0=    1 NMatS0=      1 NMatT0=    0 NMatD0=    1 NMtDS0=    0 NMtDT0=    0
 Petite list used in FoFCou.
 Requested convergence on RMS density matrix=1.00D-08 within 128 cycles.
 Requested convergence on MAX density matrix=1.00D-06.
 Requested convergence on             energy=1.00D-06.
 No special actions if energy rises.
 SCF Done:  E(RPBE1PBE) =  -909.693721543     A.U. after   14 cycles
            NFock= 14  Conv=0.47D-08     -V/T= 2.0052

 **********************************************************************

            Population analysis using the SCF Density.

 **********************************************************************

 Orbital symmetries:
       Occupied  (A) (A) (A) (A) (A) (A) (A) (A) (A) (A) (A) (A)
                 (A) (A) (A) (A) (A) (A) (A) (A) (A) (A) (A) (A)
                 (A) (A) (A) (A) (A) (A) (A) (A) (A) (A) (A) (A)
                 (A) (A) (A) (A) (A) (A) (A) (A) (A) (A) (A) (A)
                 (A) (A) (A) (A) (A) (A) (A) (A) (A) (A) (A) (A)
                 (A) (A) (A) (A)
       Virtual   (A) (A) (A) (A) (A) (A) (A) (A) (A) (A) (A) (A)
                 (A) (A) (A) (A) (A) (A) (A) (A) (A) (A) (A) (A)
                 (A) (A) (A) (A) (A) (A) (A) (A) (A) (A) (A) (A)
                 (A) (A) (A) (A) (A) (A) (A) (A) (A) (A) (A) (A)
                 (A) (A) (A) (A) (A) (A) (A) (A) (A) (A) (A) (A)
                 (A) (A) (A) (A) (A) (A) (A) (A) (A) (A) (A) (A)
                 (A) (A) (A) (A) (A) (A) (A) (A) (A) (A) (A) (A)
                 (A) (A) (A) (A) (A) (A) (A) (A) (A) (A) (A) (A)
                 (A) (A) (A) (A) (A) (A) (A) (A) (A) (A) (A) (A)
                 (A) (A) (A) (A) (A) (A) (A) (A) (A) (A) (A) (A)
                 (A) (A) (A) (A) (A) (A) (A) (A) (A) (A) (A) (A)
                 (A) (A) (A) (A) (A) (A) (A) (A) (A) (A) (A) (A)
                 (A) (A) (A) (A) (A) (A) (A) (A) (A) (A) (A) (A)
                 (A) (A) (A) (A) (A) (A) (A) (A) (A) (A) (A) (A)
                 (A) (A) (A) (A) (A) (A) (A) (A) (A) (A) (A) (A)
                 (A) (A) (A) (A) (A) (A) (A) (A) (A) (A) (A) (A)
                 (A) (A) (A) (A) (A) (A) (A) (A) (A) (A) (A) (A)
                 (A) (A) (A) (A) (A) (A) (A) (A) (A) (A) (A) (A)
                 (A) (A) (A) (A) (A) (A) (A) (A) (A) (A) (A) (A)
                 (A) (A) (A) (A) (A) (A) (A) (A) (A) (A) (A) (A)
                 (A) (A) (A) (A) (A) (A) (A) (A) (A) (A) (A) (A)
                 (A) (A) (A) (A) (A) (A) (A) (A) (A) (A) (A) (A)
                 (A) (A) (A) (A) (A) (A) (A) (A) (A) (A) (A) (A)
                 (A) (A) (A) (A) (A) (A) (A) (A) (A) (A) (A) (A)
                 (A) (A) (A) (A) (A) (A) (A) (A) (A) (A) (A) (A)
                 (A) (A) (A) (A) (A) (A) (A) (A) (A) (A) (A) (A)
                 (A) (A) (A) (A) (A) (A) (A) (A) (A) (A) (A) (A)
                 (A) (A) (A) (A) (A) (A) (A) (A) (A) (A) (A) (A)
                 (A) (A) (A) (A) (A) (A) (A) (A) (A) (A) (A) (A)
                 (A) (A) (A) (A) (A) (A) (A) (A) (A) (A) (A) (A)
                 (A) (A) (A) (A) (A) (A) (A) (A) (A) (A) (A) (A)
                 (A) (A) (A) (A) (A) (A) (A) (A) (A) (A) (A) (A)
                 (A) (A) (A) (A) (A) (A) (A) (A) (A) (A) (A) (A)
                 (A) (A) (A) (A) (A) (A) (A) (A) (A) (A) (A) (A)
                 (A) (A) (A) (A) (A) (A) (A) (A) (A) (A) (A) (A)
                 (A) (A) (A) (A) (A) (A)
 The electronic state is 1-A.
 Alpha  occ. eigenvalues --  -19.13823 -19.13607 -19.12587 -19.11503 -19.07066
 Alpha  occ. eigenvalues --  -19.03692 -14.30248 -14.22008 -10.20995 -10.20147
 Alpha  occ. eigenvalues --  -10.19276 -10.18926 -10.18452 -10.17611 -10.17526
 Alpha  occ. eigenvalues --  -10.13693 -10.09611  -0.99520  -0.97129  -0.95917
 Alpha  occ. eigenvalues --   -0.95744  -0.93981  -0.92761  -0.83075  -0.76200
 Alpha  occ. eigenvalues --   -0.71010  -0.69023  -0.64815  -0.58887  -0.54212
 Alpha  occ. eigenvalues --   -0.53793  -0.50923  -0.49947  -0.44642  -0.44396
 Alpha  occ. eigenvalues --   -0.42537  -0.41702  -0.41575  -0.39595  -0.37964
 Alpha  occ. eigenvalues --   -0.37032  -0.35368  -0.34706  -0.33724  -0.32379
 Alpha  occ. eigenvalues --   -0.31224  -0.30735  -0.30535  -0.29603  -0.27631
 Alpha  occ. eigenvalues --   -0.26952  -0.26685  -0.26412  -0.22698  -0.21023
 Alpha  occ. eigenvalues --   -0.19961  -0.18992  -0.18744  -0.17677  -0.16340
 Alpha  occ. eigenvalues --   -0.15776  -0.13511  -0.11386  -0.07735
 Alpha virt. eigenvalues --    0.07752   0.09119   0.09484   0.10014   0.11042
 Alpha virt. eigenvalues --    0.11435   0.11452   0.12067   0.12524   0.13079
 Alpha virt. eigenvalues --    0.13656   0.14695   0.15679   0.15778   0.16253
 Alpha virt. eigenvalues --    0.16685   0.16966   0.17090   0.17367   0.17825
 Alpha virt. eigenvalues --    0.18399   0.18583   0.18901   0.19271   0.19554
 Alpha virt. eigenvalues --    0.20223   0.20705   0.20793   0.20981   0.21479
 Alpha virt. eigenvalues --    0.21871   0.22388   0.22739   0.22979   0.23068
 Alpha virt. eigenvalues --    0.23362   0.23830   0.24555   0.25109   0.25286
 Alpha virt. eigenvalues --    0.25766   0.26597   0.26735   0.27142   0.27477
 Alpha virt. eigenvalues --    0.28031   0.28379   0.28879   0.29465   0.30065
 Alpha virt. eigenvalues --    0.30299   0.30743   0.31295   0.31852   0.32103
 Alpha virt. eigenvalues --    0.32576   0.33181   0.33281   0.33673   0.33818
 Alpha virt. eigenvalues --    0.34012   0.34921   0.35088   0.35279   0.35823
 Alpha virt. eigenvalues --    0.35959   0.36194   0.36688   0.36907   0.37125
 Alpha virt. eigenvalues --    0.37257   0.37775   0.38005   0.38216   0.38779
 Alpha virt. eigenvalues --    0.39013   0.39461   0.39591   0.40309   0.40703
 Alpha virt. eigenvalues --    0.40965   0.41377   0.41766   0.42132   0.42598
 Alpha virt. eigenvalues --    0.42891   0.43095   0.43324   0.43971   0.44285
 Alpha virt. eigenvalues --    0.44607   0.45733   0.46032   0.46375   0.46753
 Alpha virt. eigenvalues --    0.47615   0.48157   0.48221   0.48865   0.49348
 Alpha virt. eigenvalues --    0.49963   0.50056   0.50401   0.50969   0.51352
 Alpha virt. eigenvalues --    0.52107   0.52469   0.53513   0.53751   0.54324
 Alpha virt. eigenvalues --    0.55130   0.55616   0.55833   0.56939   0.57122
 Alpha virt. eigenvalues --    0.57760   0.58359   0.58581   0.59083   0.59607
 Alpha virt. eigenvalues --    0.59897   0.60864   0.61476   0.62169   0.62490
 Alpha virt. eigenvalues --    0.62782   0.63257   0.63906   0.64178   0.65744
 Alpha virt. eigenvalues --    0.66158   0.66557   0.66714   0.67794   0.68048
 Alpha virt. eigenvalues --    0.68527   0.68948   0.69548   0.70177   0.70989
 Alpha virt. eigenvalues --    0.71620   0.72587   0.73148   0.73748   0.73967
 Alpha virt. eigenvalues --    0.74500   0.75231   0.75453   0.75548   0.76070
 Alpha virt. eigenvalues --    0.76914   0.76987   0.77297   0.77810   0.78249
 Alpha virt. eigenvalues --    0.78612   0.79711   0.79941   0.80369   0.80653
 Alpha virt. eigenvalues --    0.81403   0.81711   0.82542   0.82759   0.83147
 Alpha virt. eigenvalues --    0.84497   0.85790   0.86095   0.86384   0.86604
 Alpha virt. eigenvalues --    0.87488   0.87979   0.88640   0.89621   0.89906
 Alpha virt. eigenvalues --    0.90371   0.91507   0.91849   0.92645   0.92867
 Alpha virt. eigenvalues --    0.93400   0.94272   0.95223   0.95816   0.96372
 Alpha virt. eigenvalues --    0.97150   0.97631   0.98402   0.99470   1.00022
 Alpha virt. eigenvalues --    1.00354   1.01801   1.02412   1.04050   1.04520
 Alpha virt. eigenvalues --    1.05298   1.05401   1.06331   1.06628   1.07585
 Alpha virt. eigenvalues --    1.09009   1.09221   1.10060   1.10173   1.11156
 Alpha virt. eigenvalues --    1.12924   1.13078   1.15066   1.15853   1.16294
 Alpha virt. eigenvalues --    1.17179   1.18221   1.18721   1.19222   1.20328
 Alpha virt. eigenvalues --    1.21399   1.22660   1.24090   1.24887   1.25350
 Alpha virt. eigenvalues --    1.25749   1.25903   1.26533   1.26842   1.28365
 Alpha virt. eigenvalues --    1.28926   1.29170   1.30159   1.31006   1.32008
 Alpha virt. eigenvalues --    1.34043   1.34769   1.35428   1.35724   1.38186
 Alpha virt. eigenvalues --    1.38321   1.38875   1.39909   1.40538   1.40814
 Alpha virt. eigenvalues --    1.43839   1.44365   1.45286   1.45902   1.46326
 Alpha virt. eigenvalues --    1.48598   1.49822   1.51402   1.52273   1.53838
 Alpha virt. eigenvalues --    1.54730   1.55221   1.55919   1.56151   1.58042
 Alpha virt. eigenvalues --    1.58872   1.60685   1.61695   1.62552   1.62622
 Alpha virt. eigenvalues --    1.65054   1.66217   1.66356   1.66719   1.67467
 Alpha virt. eigenvalues --    1.68376   1.69263   1.70148   1.70833   1.71534
 Alpha virt. eigenvalues --    1.73051   1.74217   1.74699   1.75531   1.76517
 Alpha virt. eigenvalues --    1.77138   1.78213   1.78833   1.80976   1.81938
 Alpha virt. eigenvalues --    1.82495   1.82898   1.84396   1.86129   1.87238
 Alpha virt. eigenvalues --    1.87871   1.88408   1.89575   1.90309   1.91467
 Alpha virt. eigenvalues --    1.92546   1.92889   1.94317   1.95096   1.95655
 Alpha virt. eigenvalues --    1.97489   1.98820   1.99313   1.99689   1.99927
 Alpha virt. eigenvalues --    2.01913   2.02848   2.03158   2.04228   2.05248
 Alpha virt. eigenvalues --    2.06772   2.08032   2.09166   2.09873   2.10876
 Alpha virt. eigenvalues --    2.11612   2.12622   2.14488   2.15417   2.16109
 Alpha virt. eigenvalues --    2.17080   2.17869   2.18968   2.21711   2.22587
 Alpha virt. eigenvalues --    2.23329   2.24523   2.24763   2.25726   2.26920
 Alpha virt. eigenvalues --    2.28726   2.29859   2.30132   2.31185   2.32774
 Alpha virt. eigenvalues --    2.33685   2.35250   2.36013   2.36390   2.38024
 Alpha virt. eigenvalues --    2.39803   2.42431   2.43469   2.44138   2.45944
 Alpha virt. eigenvalues --    2.48218   2.48580   2.49302   2.50432   2.51460
 Alpha virt. eigenvalues --    2.52907   2.55992   2.57490   2.57725   2.59215
 Alpha virt. eigenvalues --    2.59957   2.60755   2.61551   2.63553   2.64867
 Alpha virt. eigenvalues --    2.65925   2.66303   2.68986   2.70954   2.71541
 Alpha virt. eigenvalues --    2.72712   2.73587   2.75338   2.76310   2.78536
 Alpha virt. eigenvalues --    2.79596   2.80894   2.83172   2.83287   2.86320
 Alpha virt. eigenvalues --    2.88319   2.90277   2.91339   2.94843   2.96855
 Alpha virt. eigenvalues --    3.00896   3.02327   3.03246   3.06258   3.09841
 Alpha virt. eigenvalues --    3.12547   3.13678   3.15175   3.21215   3.26338
 Alpha virt. eigenvalues --    3.32091   3.35610   3.40906   3.43062   3.45659
 Alpha virt. eigenvalues --    3.48192   3.53273   3.53408   3.56292   3.57100
 Alpha virt. eigenvalues --    3.58389   3.58854   3.60146   3.60888   3.61484
 Alpha virt. eigenvalues --    3.63078   3.63628   3.66055   3.66273   3.67547
 Alpha virt. eigenvalues --    3.68250   3.70940   3.73724   3.74378   3.76389
 Alpha virt. eigenvalues --    3.78835   3.81143   3.85041   3.87833   3.89149
 Alpha virt. eigenvalues --    3.93014   3.96158   3.98130   4.00474   4.08619
 Alpha virt. eigenvalues --    4.09810   4.11133   4.20059   4.31023   4.58377
 Alpha virt. eigenvalues --    4.71587
          Condensed to atoms (all electrons):
               1          2          3          4          5          6
     1  C    9.154080  -1.898534   0.428563   0.037990   0.218420  -0.072693
     2  C   -1.898534   8.805961  -1.182887  -0.579126  -0.706008   0.018729
     3  C    0.428563  -1.182887  14.345780   0.250476   0.100463  -0.417960
     4  O    0.037990  -0.579126   0.250476   8.827741  -0.193831   0.010619
     5  H    0.218420  -0.706008   0.100463  -0.193831   2.251231  -0.029195
     6  O   -0.072693   0.018729  -0.417960   0.010619  -0.029195   9.625461
     7  H   -0.088954   0.147793  -0.751833  -0.051093   0.104442  -0.139336
     8  C    0.060785   0.020217  -2.260297  -0.004315  -0.035843   0.074146
     9  C   -1.589834   0.143278  -3.297590   0.080318  -0.203013  -0.011425
    10  H   -0.970123   0.549423   0.169558   0.010355  -0.110697   0.016296
    11  O   -0.659485   0.126814  -0.040617   0.000091  -0.020372   0.033117
    12  C   -0.049388  -0.024861   0.331363  -0.012957   0.052450  -0.053706
    13  H    0.241587   0.217514   0.439528  -0.006039  -0.004586  -0.268592
    14  O   -0.037564  -0.012824   0.024724   0.001526  -0.007086  -0.044364
    15  H    0.071709  -0.021389   0.042358  -0.001093   0.020255   0.109606
    16  H    0.026225  -0.039911   0.048950   0.000436  -0.007487  -0.042683
    17  H    0.168059  -0.248942   0.040211   0.059140   0.029793   0.004801
    18  H    0.009048   0.030892  -0.074709   0.293865  -0.028608   0.006353
    19  H    0.035574  -0.016438   0.049592   0.000980   0.000755   0.028876
    20  C   -0.108751   0.078414  -2.240959  -0.001671   0.007893   0.136049
    21  N    0.008126   0.003314   0.102415   0.002491  -0.008724   0.021871
    22  C    0.005450  -0.029550  -0.268556  -0.000333  -0.004028  -0.001505
    23  N    0.005157   0.038167  -0.183839  -0.013271   0.015478   0.003707
    24  C   -0.041539  -0.259044  -0.427610   0.061272   0.065807  -0.059687
    25  H    0.047644  -0.051047   0.150713  -0.001300   0.015482  -0.209860
    26  H   -0.000233  -0.001481   0.004091   0.000338   0.001191  -0.000293
    27  O   -0.000276  -0.000303   0.009078   0.000035  -0.000196   0.000855
    28  O    0.002022   0.109520  -0.156212  -0.080923   0.018640   0.004959
               7          8          9         10         11         12
     1  C   -0.088954   0.060785  -1.589834  -0.970123  -0.659485  -0.049388
     2  C    0.147793   0.020217   0.143278   0.549423   0.126814  -0.024861
     3  C   -0.751833  -2.260297  -3.297590   0.169558  -0.040617   0.331363
     4  O   -0.051093  -0.004315   0.080318   0.010355   0.000091  -0.012957
     5  H    0.104442  -0.035843  -0.203013  -0.110697  -0.020372   0.052450
     6  O   -0.139336   0.074146  -0.011425   0.016296   0.033117  -0.053706
     7  H    1.780202   0.100329   0.073935   0.004288  -0.006796   0.012649
     8  C    0.100329  12.930774   0.630218  -0.070649   0.024965  -0.065514
     9  C    0.073935   0.630218  10.849958  -0.228174   0.335876  -0.454287
    10  H    0.004288  -0.070649  -0.228174   2.051848  -0.076019  -0.045467
    11  O   -0.006796   0.024965   0.335876  -0.076019   8.817533  -0.028078
    12  C    0.012649  -0.065514  -0.454287  -0.045467  -0.028078   5.025507
    13  H    0.018399  -0.173239  -1.122846   0.097192  -0.070897  -0.094511
    14  O    0.000681  -0.017453   0.096453   0.042495   0.002360   0.045075
    15  H   -0.000396   0.023008  -0.385520  -0.048900   0.011998   0.281325
    16  H    0.002752  -0.018566   0.190006   0.025883  -0.003591   0.067407
    17  H    0.008418  -0.001306  -0.063199  -0.028441   0.272729   0.005979
    18  H    0.006766   0.064228   0.028746   0.001774  -0.003030  -0.001433
    19  H   -0.001587   0.008137  -0.102265  -0.009741  -0.001410   0.000009
    20  C    0.014826  -2.764768  -0.020654   0.010504   0.001092  -0.089207
    21  N    0.002607   0.102995   0.033617   0.000373  -0.000480   0.004213
    22  C   -0.014276   0.304665  -0.002613   0.000104   0.000009  -0.006419
    23  N    0.024064  -0.040014  -0.010075   0.000035   0.000016  -0.001386
    24  C    0.056749  -3.974153   0.072642   0.010770   0.008459   0.026659
    25  H    0.033430   0.199983  -0.014390  -0.000103  -0.001110   0.027147
    26  H    0.000560   0.163754  -0.001088   0.000006  -0.000039  -0.000017
    27  O    0.000145  -0.008143   0.000002  -0.000012  -0.000000   0.000107
    28  O    0.047171   0.015966   0.010403  -0.000655  -0.000336  -0.002535
              13         14         15         16         17         18
     1  C    0.241587  -0.037564   0.071709   0.026225   0.168059   0.009048
     2  C    0.217514  -0.012824  -0.021389  -0.039911  -0.248942   0.030892
     3  C    0.439528   0.024724   0.042358   0.048950   0.040211  -0.074709
     4  O   -0.006039   0.001526  -0.001093   0.000436   0.059140   0.293865
     5  H   -0.004586  -0.007086   0.020255  -0.007487   0.029793  -0.028608
     6  O   -0.268592  -0.044364   0.109606  -0.042683   0.004801   0.006353
     7  H    0.018399   0.000681  -0.000396   0.002752   0.008418   0.006766
     8  C   -0.173239  -0.017453   0.023008  -0.018566  -0.001306   0.064228
     9  C   -1.122846   0.096453  -0.385520   0.190006  -0.063199   0.028746
    10  H    0.097192   0.042495  -0.048900   0.025883  -0.028441   0.001774
    11  O   -0.070897   0.002360   0.011998  -0.003591   0.272729  -0.003030
    12  C   -0.094511   0.045075   0.281325   0.067407   0.005979  -0.001433
    13  H    2.314324   0.030806  -0.080210  -0.026431  -0.011707   0.001427
    14  O    0.030806   8.349428  -0.179408  -0.041778  -0.001137  -0.001197
    15  H   -0.080210  -0.179408   1.750676  -0.350836   0.004746  -0.000894
    16  H   -0.026431  -0.041778  -0.350836   1.484723  -0.000947  -0.000245
    17  H   -0.011707  -0.001137   0.004746  -0.000947   0.597262  -0.008731
    18  H    0.001427  -0.001197  -0.000894  -0.000245  -0.008731   0.538292
    19  H    0.006951   0.277624   0.024389  -0.046183   0.000269   0.000868
    20  C    0.016649   0.001549  -0.005349  -0.005307   0.001336   0.006234
    21  N    0.001257  -0.000176  -0.000138   0.000259  -0.000269   0.001082
    22  C    0.000422   0.000021  -0.000275  -0.000472   0.000396  -0.000408
    23  N   -0.000951   0.000287   0.000008  -0.000408   0.000648   0.002919
    24  C    0.008266  -0.005204   0.000783   0.004359   0.006861  -0.106659
    25  H   -0.003047  -0.004552   0.004141   0.002333   0.000994  -0.003366
    26  H    0.000079   0.000027  -0.000031   0.000049   0.000052  -0.003068
    27  O   -0.000025  -0.000005   0.000007  -0.000016  -0.000009   0.000495
    28  O   -0.000208  -0.000016  -0.000067  -0.000171   0.001112   0.053082
              19         20         21         22         23         24
     1  C    0.035574  -0.108751   0.008126   0.005450   0.005157  -0.041539
     2  C   -0.016438   0.078414   0.003314  -0.029550   0.038167  -0.259044
     3  C    0.049592  -2.240959   0.102415  -0.268556  -0.183839  -0.427610
     4  O    0.000980  -0.001671   0.002491  -0.000333  -0.013271   0.061272
     5  H    0.000755   0.007893  -0.008724  -0.004028   0.015478   0.065807
     6  O    0.028876   0.136049   0.021871  -0.001505   0.003707  -0.059687
     7  H   -0.001587   0.014826   0.002607  -0.014276   0.024064   0.056749
     8  C    0.008137  -2.764768   0.102995   0.304665  -0.040014  -3.974153
     9  C   -0.102265  -0.020654   0.033617  -0.002613  -0.010075   0.072642
    10  H   -0.009741   0.010504   0.000373   0.000104   0.000035   0.010770
    11  O   -0.001410   0.001092  -0.000480   0.000009   0.000016   0.008459
    12  C    0.000009  -0.089207   0.004213  -0.006419  -0.001386   0.026659
    13  H    0.006951   0.016649   0.001257   0.000422  -0.000951   0.008266
    14  O    0.277624   0.001549  -0.000176   0.000021   0.000287  -0.005204
    15  H    0.024389  -0.005349  -0.000138  -0.000275   0.000008   0.000783
    16  H   -0.046183  -0.005307   0.000259  -0.000472  -0.000408   0.004359
    17  H    0.000269   0.001336  -0.000269   0.000396   0.000648   0.006861
    18  H    0.000868   0.006234   0.001082  -0.000408   0.002919  -0.106659
    19  H    0.571722  -0.011647   0.003851   0.001088  -0.000244   0.001477
    20  C   -0.011647  14.123374  -0.817655  -0.450416   0.447073  -2.222839
    21  N    0.003851  -0.817655   8.174198   0.010523  -0.029050   0.264199
    22  C    0.001088  -0.450416   0.010523   6.285477  -0.019374  -0.367855
    23  N   -0.000244   0.447073  -0.029050  -0.019374   7.461303  -0.438778
    24  C    0.001477  -2.222839   0.264199  -0.367855  -0.438778  12.746618
    25  H   -0.004383  -0.805980  -0.060457  -0.004175  -0.016506   0.139401
    26  H   -0.000083  -0.134593   0.041630  -0.183054   0.402079  -0.261687
    27  O   -0.000072   0.067834  -0.114562   0.112302  -0.121564   0.064979
    28  O    0.000039  -0.009656   0.002389   0.011565  -0.149156   0.079144
              25         26         27         28
     1  C    0.047644  -0.000233  -0.000276   0.002022
     2  C   -0.051047  -0.001481  -0.000303   0.109520
     3  C    0.150713   0.004091   0.009078  -0.156212
     4  O   -0.001300   0.000338   0.000035  -0.080923
     5  H    0.015482   0.001191  -0.000196   0.018640
     6  O   -0.209860  -0.000293   0.000855   0.004959
     7  H    0.033430   0.000560   0.000145   0.047171
     8  C    0.199983   0.163754  -0.008143   0.015966
     9  C   -0.014390  -0.001088   0.000002   0.010403
    10  H   -0.000103   0.000006  -0.000012  -0.000655
    11  O   -0.001110  -0.000039  -0.000000  -0.000336
    12  C    0.027147  -0.000017   0.000107  -0.002535
    13  H   -0.003047   0.000079  -0.000025  -0.000208
    14  O   -0.004552   0.000027  -0.000005  -0.000016
    15  H    0.004141  -0.000031   0.000007  -0.000067
    16  H    0.002333   0.000049  -0.000016  -0.000171
    17  H    0.000994   0.000052  -0.000009   0.001112
    18  H   -0.003366  -0.003068   0.000495   0.053082
    19  H   -0.004383  -0.000083  -0.000072   0.000039
    20  C   -0.805980  -0.134593   0.067834  -0.009656
    21  N   -0.060457   0.041630  -0.114562   0.002389
    22  C   -0.004175  -0.183054   0.112302   0.011565
    23  N   -0.016506   0.402079  -0.121564  -0.149156
    24  C    0.139401  -0.261687   0.064979   0.079144
    25  H    2.364628  -0.004231   0.001811  -0.008746
    26  H   -0.004231   1.133560  -0.008392  -0.042594
    27  O    0.001811  -0.008392   8.687291  -0.003893
    28  O   -0.008746  -0.042594  -0.003893   9.045539
 Mulliken charges:
               1
     1  C    0.996934
     2  C    0.782310
     3  C    0.765206
     4  O   -0.691721
     5  H   -0.542625
     6  O   -0.744147
     7  H   -0.385935
     8  C    0.710088
     9  C    0.961519
    10  H   -0.401924
    11  O   -0.722798
    12  C    1.049877
    13  H   -0.531111
    14  O   -0.520291
    15  H   -0.270502
    16  H   -0.268349
    17  H    0.161880
    18  H    0.186276
    19  H    0.181852
    20  C    0.776624
    21  N   -0.749897
    22  C    0.621287
    23  N   -0.376323
    24  C    0.546610
    25  H   -0.794453
    26  H   -0.106535
    27  O   -0.687472
    28  O   -0.946381
 Sum of Mulliken charges =  -1.00000
 Mulliken charges with hydrogens summed into heavy atoms:
               1
     1  C    0.595010
     2  C    0.239685
     3  C    0.379271
     4  O   -0.505446
     6  O   -0.744147
     8  C    0.710088
     9  C    0.430408
    11  O   -0.560918
    12  C    0.511026
    14  O   -0.338439
    20  C   -0.017829
    21  N   -0.749897
    22  C    0.621287
    23  N   -0.482858
    24  C    0.546610
    27  O   -0.687472
    28  O   -0.946381
 Electronic spatial extent (au):  <R**2>=           4359.3227
 Charge=             -1.0000 electrons
 Dipole moment (field-independent basis, Debye):
    X=              9.1786    Y=              1.2369    Z=             -0.3952  Tot=              9.2700
 Quadrupole moment (field-independent basis, Debye-Ang):
   XX=           -164.8731   YY=           -121.0693   ZZ=           -106.8206
   XY=            -18.7487   XZ=             -1.3557   YZ=              1.3136
 Traceless Quadrupole moment (field-independent basis, Debye-Ang):
   XX=            -33.9521   YY=              9.8517   ZZ=             24.1004
   XY=            -18.7487   XZ=             -1.3557   YZ=              1.3136
 Octapole moment (field-independent basis, Debye-Ang**2):
  XXX=            243.5580  YYY=              7.3451  ZZZ=             -0.2480  XYY=             28.4989
  XXY=             68.8525  XXZ=             -1.1479  XZZ=             -8.0389  YZZ=              8.9477
  YYZ=            -11.1417  XYZ=             13.5864
 Hexadecapole moment (field-independent basis, Debye-Ang**3):
 XXXX=          -5426.7808 YYYY=          -1369.6868 ZZZZ=           -353.0426 XXXY=           -438.2833
 XXXZ=             58.4326 YYYX=            -13.2184 YYYZ=             -4.6180 ZZZX=            -21.1768
 ZZZY=              4.1166 XXYY=          -1026.6480 XXZZ=           -771.6924 YYZZ=           -299.9122
 XXYZ=             49.8740 YYXZ=            -40.3287 ZZXY=              6.2560
 N-N= 1.295517740988D+03 E-N=-4.740441698425D+03  KE= 9.049440454565D+02
 Calling FoFJK, ICntrl=      2127 FMM=F ISym2X=0 I1Cent= 0 IOpClX= 0 NMat=1 NMatS=1 NMatT=0.
 ***** Axes restored to original set *****
 -------------------------------------------------------------------
 Center     Atomic                   Forces (Hartrees/Bohr)
 Number     Number              X              Y              Z
 -------------------------------------------------------------------
      1        6          -0.001556545   -0.000722923    0.002210596
      2        6           0.001318746   -0.003227536   -0.004520063
      3        6          -0.009884718    0.007151733    0.003897400
      4        8           0.006816937    0.002745053    0.002018781
      5        1          -0.000554456    0.000109083   -0.000464959
      6        8           0.012558604   -0.002596730    0.001017596
      7        1           0.003314263    0.000528871   -0.000972362
      8        6           0.009219052    0.033506381    0.006278320
      9        6          -0.008368502    0.000693311   -0.001350785
     10        1           0.001630767   -0.000021798    0.000249370
     11        8           0.005045577    0.002410850   -0.001443692
     12        6          -0.000840965    0.000887231    0.000809403
     13        1           0.001466679   -0.000082211   -0.000690794
     14        8           0.002451785   -0.001608076    0.000294727
     15        1           0.000900215   -0.000039282    0.000500800
     16        1          -0.000500922   -0.000246751   -0.000299108
     17        1          -0.002815000   -0.001135036    0.000501790
     18        1          -0.008666116   -0.002472438   -0.002370075
     19        1          -0.002101308    0.001246637   -0.001240226
     20        6          -0.062848866   -0.006344232    0.010234849
     21        7           0.010266951   -0.020166622   -0.006101067
     22        6           0.059989227   -0.030719543   -0.016399621
     23        7          -0.002015396    0.019709356    0.003944786
     24        6          -0.000981152   -0.040869167   -0.007966820
     25        1           0.000097990   -0.002461768   -0.000278635
     26        1           0.002851897    0.002688382    0.000014899
     27        8          -0.027947268    0.007648873    0.006529546
     28        8           0.011152522    0.033388354    0.005595341
 -------------------------------------------------------------------
 Cartesian Forces:  Max     0.062848866 RMS     0.013665932

 GradGradGradGradGradGradGradGradGradGradGradGradGradGradGradGradGradGrad
 Berny optimization.
 FormGI is forming the generalized inverse of G from B-inverse, IUseBI=4.
 Internal  Forces:  Max     0.036088563 RMS     0.007651631
 Search for a local minimum.
 Step number   1 out of a maximum of  166
 All quantities printed in internal units (Hartrees-Bohrs-Radians)
 Mixed Optimization -- RFO/linear search
 Second derivative matrix not updated -- first step.
 ITU=  0
     Eigenvalues ---    0.00466   0.00572   0.00768   0.00891   0.01506
     Eigenvalues ---    0.01507   0.01550   0.01585   0.01689   0.01747
     Eigenvalues ---    0.01889   0.01934   0.01951   0.02296   0.02528
     Eigenvalues ---    0.03121   0.03778   0.04277   0.04775   0.05003
     Eigenvalues ---    0.05174   0.05466   0.05501   0.05920   0.06028
     Eigenvalues ---    0.06256   0.06748   0.07860   0.08562   0.09820
     Eigenvalues ---    0.11607   0.13044   0.13956   0.15766   0.15996
     Eigenvalues ---    0.15999   0.16000   0.16000   0.16000   0.16916
     Eigenvalues ---    0.18379   0.20041   0.22062   0.22927   0.23841
     Eigenvalues ---    0.24985   0.24996   0.25000   0.25000   0.26261
     Eigenvalues ---    0.28055   0.28638   0.30885   0.32393   0.33026
     Eigenvalues ---    0.33278   0.33314   0.33557   0.33632   0.33924
     Eigenvalues ---    0.35091   0.36964   0.37331   0.40785   0.43369
     Eigenvalues ---    0.43895   0.44556   0.45409   0.45588   0.46861
     Eigenvalues ---    0.48424   0.50427   0.52190   0.53075   0.53644
     Eigenvalues ---    0.54697   0.91143   0.98220
 RFO step:  Lambda=-2.40343834D-02 EMin= 4.66277524D-03
 Linear search not attempted -- first point.
 Iteration  1 RMS(Cart)=  0.08285085 RMS(Int)=  0.00247170
 Iteration  2 RMS(Cart)=  0.00337360 RMS(Int)=  0.00015871
 Iteration  3 RMS(Cart)=  0.00000661 RMS(Int)=  0.00015866
 Iteration  4 RMS(Cart)=  0.00000000 RMS(Int)=  0.00015866
 Variable       Old X    -DE/DX   Delta X   Delta X   Delta X     New X
                                 (Linear)    (Quad)   (Total)
    R1        2.89749  -0.00006   0.00000  -0.00276  -0.00276   2.89473
    R2        2.89093   0.00018   0.00000   0.00197   0.00209   2.89301
    R3        2.08085   0.00117   0.00000   0.00324   0.00324   2.08409
    R4        2.66580   0.00227   0.00000   0.00491   0.00491   2.67071
    R5        2.90917  -0.00492   0.00000  -0.01576  -0.01586   2.89331
    R6        2.64599   0.00038   0.00000   0.00079   0.00079   2.64679
    R7        2.08504  -0.00031   0.00000  -0.00088  -0.00088   2.08416
    R8        2.67567   0.00565   0.00000   0.01172   0.01164   2.68731
    R9        2.09006   0.00135   0.00000   0.00380   0.00380   2.09386
   R10        2.83431   0.00122   0.00000   0.00352   0.00352   2.83783
   R11        1.84418   0.00807   0.00000   0.01477   0.01477   1.85895
   R12        2.72750  -0.00499   0.00000  -0.01044  -0.01038   2.71712
   R13        2.55913   0.03609   0.00000   0.06355   0.06373   2.62286
   R14        2.74614  -0.02233   0.00000  -0.05434  -0.05437   2.69177
   R15        2.86232  -0.00019   0.00000  -0.00057  -0.00057   2.86175
   R16        2.07956   0.00134   0.00000   0.00372   0.00372   2.08328
   R17        1.83057   0.00026   0.00000   0.00047   0.00047   1.83104
   R18        2.67217  -0.00097   0.00000  -0.00211  -0.00211   2.67005
   R19        2.07458   0.00098   0.00000   0.00271   0.00271   2.07729
   R20        2.08567   0.00044   0.00000   0.00122   0.00122   2.08689
   R21        1.82103   0.00234   0.00000   0.00409   0.00409   1.82512
   R22        2.58617  -0.02933   0.00000  -0.05580  -0.05558   2.53060
   R23        2.05527   0.00205   0.00000   0.00547   0.00547   2.06075
   R24        2.61027  -0.01351   0.00000  -0.02732  -0.02727   2.58300
   R25        2.61133   0.01975   0.00000   0.03893   0.03875   2.65008
   R26        2.29360   0.02664   0.00000   0.02648   0.02648   2.32008
   R27        2.62289  -0.01011   0.00000  -0.01900  -0.01923   2.60366
   R28        1.91503   0.00019   0.00000   0.00039   0.00039   1.91542
   R29        2.32411   0.03561   0.00000   0.03807   0.03807   2.36218
    A1        1.80833  -0.00156   0.00000  -0.01099  -0.01096   1.79737
    A2        1.94238   0.00084   0.00000   0.00539   0.00541   1.94780
    A3        1.92158  -0.00000   0.00000  -0.00045  -0.00045   1.92114
    A4        1.95007   0.00105   0.00000   0.00552   0.00553   1.95561
    A5        1.89958   0.00060   0.00000   0.00672   0.00670   1.90628
    A6        1.93758  -0.00092   0.00000  -0.00625  -0.00626   1.93131
    A7        1.76094   0.00280   0.00000   0.01637   0.01635   1.77729
    A8        1.90742   0.00116   0.00000   0.01968   0.01996   1.92738
    A9        1.91116   0.00012   0.00000   0.00353   0.00358   1.91474
   A10        2.01368  -0.00354   0.00000  -0.02521  -0.02544   1.98824
   A11        1.90634  -0.00074   0.00000  -0.00781  -0.00801   1.89832
   A12        1.95352   0.00054   0.00000  -0.00321  -0.00365   1.94987
   A13        1.82013  -0.00234   0.00000  -0.00788  -0.00766   1.81247
   A14        1.87441   0.00027   0.00000  -0.01457  -0.01473   1.85968
   A15        2.03182  -0.00626   0.00000  -0.03308  -0.03296   1.99885
   A16        1.93197  -0.00127   0.00000  -0.01038  -0.01098   1.92099
   A17        1.89753   0.00770   0.00000   0.05323   0.05325   1.95078
   A18        1.90621   0.00167   0.00000   0.01103   0.01027   1.91648
   A19        1.87386  -0.00851   0.00000  -0.04626  -0.04626   1.82760
   A20        1.90947   0.00086   0.00000   0.00135   0.00115   1.91062
   A21        2.13824   0.01620   0.00000   0.05908   0.05901   2.19726
   A22        2.08322  -0.01503   0.00000  -0.05492  -0.05499   2.02823
   A23        2.06125  -0.00116   0.00000  -0.00394  -0.00383   2.05742
   A24        1.86085   0.00088   0.00000   0.00688   0.00690   1.86775
   A25        2.01133   0.00071   0.00000   0.00129   0.00131   2.01265
   A26        1.89411  -0.00046   0.00000  -0.00130  -0.00134   1.89277
   A27        1.87038  -0.00193   0.00000  -0.01202  -0.01204   1.85834
   A28        1.90609   0.00086   0.00000   0.00726   0.00724   1.91333
   A29        1.91824  -0.00001   0.00000  -0.00144  -0.00143   1.91681
   A30        1.84406  -0.00414   0.00000  -0.02248  -0.02248   1.82158
   A31        1.95778  -0.00049   0.00000  -0.00257  -0.00259   1.95519
   A32        1.90852   0.00095   0.00000   0.00779   0.00780   1.91632
   A33        1.90402  -0.00064   0.00000  -0.00604  -0.00606   1.89796
   A34        1.86776   0.00007   0.00000   0.00257   0.00256   1.87032
   A35        1.93917   0.00006   0.00000  -0.00337  -0.00341   1.93576
   A36        1.88479   0.00012   0.00000   0.00225   0.00226   1.88705
   A37        1.85881  -0.00152   0.00000  -0.00828  -0.00828   1.85052
   A38        2.13519   0.02048   0.00000   0.07987   0.08023   2.21542
   A39        2.11599  -0.00883   0.00000  -0.03226  -0.03244   2.08355
   A40        2.03195  -0.01165   0.00000  -0.04759  -0.04777   1.98418
   A41        2.16062  -0.02926   0.00000  -0.11397  -0.11360   2.04701
   A42        1.96889   0.02118   0.00000   0.07501   0.07487   2.04375
   A43        2.15447   0.00446   0.00000   0.01743   0.01750   2.17196
   A44        2.15983  -0.02564   0.00000  -0.09244  -0.09237   2.06746
   A45        2.23046  -0.00192   0.00000  -0.00608  -0.00647   2.22399
   A46        2.01864   0.00471   0.00000   0.02337   0.02356   2.04220
   A47        2.03379  -0.00278   0.00000  -0.01733  -0.01713   2.01666
   A48        2.00972  -0.00931   0.00000  -0.03085  -0.03116   1.97856
   A49        2.19000   0.00322   0.00000   0.01018   0.01031   2.20031
   A50        2.08346   0.00609   0.00000   0.02064   0.02077   2.10423
    D1       -0.55489   0.00009   0.00000   0.00532   0.00541  -0.54947
    D2       -2.68395   0.00215   0.00000   0.01680   0.01675  -2.66720
    D3        1.45365   0.00064   0.00000   0.00574   0.00572   1.45937
    D4       -2.65297  -0.00065   0.00000   0.00254   0.00262  -2.65035
    D5        1.50115   0.00141   0.00000   0.01402   0.01396   1.51511
    D6       -0.64444  -0.00010   0.00000   0.00296   0.00293  -0.64151
    D7        1.47413  -0.00005   0.00000   0.00709   0.00719   1.48132
    D8       -0.65493   0.00201   0.00000   0.01857   0.01853  -0.63640
    D9       -2.80052   0.00051   0.00000   0.00752   0.00749  -2.79302
   D10        0.25502  -0.00128   0.00000  -0.00826  -0.00829   0.24673
   D11       -1.81781   0.00010   0.00000   0.00125   0.00123  -1.81657
   D12        2.30626  -0.00003   0.00000   0.00325   0.00323   2.30949
   D13        2.34787  -0.00069   0.00000  -0.00562  -0.00564   2.34223
   D14        0.27504   0.00069   0.00000   0.00390   0.00389   0.27893
   D15       -1.88408   0.00056   0.00000   0.00590   0.00589  -1.87819
   D16       -1.78946  -0.00075   0.00000  -0.00518  -0.00517  -1.79464
   D17        2.42089   0.00063   0.00000   0.00434   0.00436   2.42525
   D18        0.26177   0.00050   0.00000   0.00634   0.00635   0.26812
   D19        0.60581  -0.00056   0.00000  -0.02683  -0.02682   0.57899
   D20        2.57679  -0.00210   0.00000  -0.03646  -0.03646   2.54033
   D21       -1.55307  -0.00099   0.00000  -0.02905  -0.02906  -1.58213
   D22        0.68123  -0.00107   0.00000  -0.00584  -0.00586   0.67537
   D23       -1.36971   0.00139   0.00000   0.01639   0.01659  -1.35312
   D24        2.77133   0.00331   0.00000   0.03632   0.03622   2.80755
   D25        2.73404   0.00045   0.00000   0.01648   0.01627   2.75031
   D26        0.68311   0.00291   0.00000   0.03870   0.03871   0.72182
   D27       -1.45904   0.00484   0.00000   0.05864   0.05835  -1.40069
   D28       -1.33091  -0.00227   0.00000  -0.01466  -0.01460  -1.34551
   D29        2.90134   0.00019   0.00000   0.00757   0.00785   2.90918
   D30        0.75919   0.00211   0.00000   0.02750   0.02748   0.78667
   D31        2.72300  -0.00010   0.00000  -0.00880  -0.00899   2.71401
   D32        0.75418  -0.00231   0.00000  -0.02768  -0.02746   0.72672
   D33       -1.44003   0.00121   0.00000   0.00705   0.00701  -1.43302
   D34       -0.55098   0.00065   0.00000   0.00593   0.00597  -0.54502
   D35        1.45985  -0.00087   0.00000  -0.02002  -0.01994   1.43992
   D36       -2.72949   0.00527   0.00000   0.02084   0.02072  -2.70877
   D37       -2.14410  -0.00124   0.00000  -0.03849  -0.03828  -2.18238
   D38        1.03101  -0.00152   0.00000  -0.04612  -0.04589   0.98512
   D39       -0.09616  -0.00259   0.00000  -0.03066  -0.03122  -0.12738
   D40        3.07895  -0.00287   0.00000  -0.03828  -0.03883   3.04012
   D41        2.01361   0.00156   0.00000  -0.00424  -0.00391   2.00970
   D42       -1.09446   0.00128   0.00000  -0.01186  -0.01152  -1.10598
   D43        0.18613   0.00009   0.00000   0.00108   0.00106   0.18719
   D44        2.34884   0.00035   0.00000  -0.00026  -0.00029   2.34855
   D45       -1.85717  -0.00028   0.00000  -0.00486  -0.00494  -1.86211
   D46       -3.11267   0.00006   0.00000  -0.00220  -0.00227  -3.11494
   D47        0.01799   0.00013   0.00000  -0.00095  -0.00105   0.01694
   D48       -0.00420   0.00007   0.00000   0.00438   0.00455   0.00035
   D49        3.12646   0.00015   0.00000   0.00562   0.00577   3.13223
   D50        3.09601   0.00039   0.00000   0.00576   0.00568   3.10169
   D51       -0.04825  -0.00008   0.00000  -0.00562  -0.00569  -0.05394
   D52       -0.01354  -0.00023   0.00000  -0.00280  -0.00261  -0.01616
   D53        3.12539  -0.00069   0.00000  -0.01418  -0.01399   3.11140
   D54        0.99597   0.00055   0.00000   0.00912   0.00914   1.00510
   D55       -1.07323   0.00014   0.00000   0.00242   0.00243  -1.07080
   D56       -3.13100  -0.00018   0.00000  -0.00129  -0.00126  -3.13226
   D57       -1.07156   0.00036   0.00000   0.00813   0.00811  -1.06345
   D58       -3.14076  -0.00005   0.00000   0.00142   0.00141  -3.13935
   D59        1.08466  -0.00037   0.00000  -0.00229  -0.00228   1.08237
   D60       -3.14088   0.00045   0.00000   0.00720   0.00718  -3.13369
   D61        1.07311   0.00004   0.00000   0.00049   0.00048   1.07359
   D62       -0.98466  -0.00028   0.00000  -0.00321  -0.00321  -0.98787
   D63        0.96801  -0.00136   0.00000  -0.02452  -0.02451   0.94350
   D64        3.06112  -0.00043   0.00000  -0.01479  -0.01478   3.04634
   D65       -1.16837  -0.00022   0.00000  -0.01240  -0.01240  -1.18078
   D66        0.01541  -0.00014   0.00000  -0.00396  -0.00395   0.01146
   D67       -3.11575  -0.00022   0.00000  -0.00519  -0.00514  -3.12089
   D68       -0.00659   0.00003   0.00000   0.00071   0.00068  -0.00590
   D69        3.13634   0.00011   0.00000   0.00228   0.00233   3.13868
   D70       -0.01401   0.00005   0.00000   0.00194   0.00193  -0.01208
   D71       -3.12835   0.00018   0.00000   0.00400   0.00403  -3.12432
   D72        3.12624   0.00000   0.00000   0.00046   0.00047   3.12671
   D73        0.01190   0.00013   0.00000   0.00252   0.00257   0.01447
   D74        0.02396  -0.00006   0.00000  -0.00109  -0.00107   0.02288
   D75       -3.11515   0.00038   0.00000   0.00955   0.00962  -3.10553
   D76        3.13810  -0.00009   0.00000  -0.00262  -0.00260   3.13550
   D77       -0.00101   0.00035   0.00000   0.00803   0.00809   0.00708
         Item               Value     Threshold  Converged?
 Maximum Force            0.036089     0.000450     NO 
 RMS     Force            0.007652     0.000300     NO 
 Maximum Displacement     0.338443     0.001800     NO 
 RMS     Displacement     0.083780     0.001200     NO 
 Predicted change in Energy=-1.312982D-02
 GradGradGradGradGradGradGradGradGradGradGradGradGradGradGradGradGradGrad

                          Input orientation:                          
 ---------------------------------------------------------------------
 Center     Atomic      Atomic             Coordinates (Angstroms)
 Number     Number       Type             X           Y           Z
 ---------------------------------------------------------------------
      1          6           0        2.752538    0.580009    0.164776
      2          6           0        1.295255    0.883694    0.526151
      3          6           0        0.541906    0.242773   -0.642556
      4          8           0        1.097472    2.265621    0.639708
      5          1           0        1.024582    0.354942    1.455410
      6          8           0        1.264443   -0.955301   -0.897145
      7          1           0        0.641604    0.936481   -1.500777
      8          6           0       -0.910388   -0.029019   -0.374002
      9          6           0        2.651827   -0.755535   -0.576769
     10          1           0        3.387144    0.507520    1.063834
     11          8           0        3.249025    1.565923   -0.717734
     12          6           0        3.089039   -1.970295    0.214769
     13          1           0        3.239898   -0.683564   -1.506466
     14          8           0        2.355917   -2.113177    1.414138
     15          1           0        4.148325   -1.872665    0.491785
     16          1           0        2.981696   -2.866208   -0.421920
     17          1           0        2.796282    2.379298   -0.448844
     18          1           0        0.137548    2.395549    0.468373
     19          1           0        1.424344   -2.109515    1.159281
     20          6           0       -1.546086   -1.256047   -0.503292
     21          7           0       -2.843497   -1.515828   -0.297092
     22          6           0       -3.641944   -0.468273    0.068187
     23          7           0       -3.028924    0.785910    0.201789
     24          6           0       -1.697790    1.090975    0.019185
     25          1           0       -0.968332   -2.128028   -0.811577
     26          1           0       -3.619229    1.558683    0.487695
     27          8           0       -4.846817   -0.556770    0.286774
     28          8           0       -1.280046    2.253468    0.210568
 ---------------------------------------------------------------------
                    Distance matrix (angstroms):
                    1          2          3          4          5
     1  C    0.000000
     2  C    1.531826   0.000000
     3  C    2.377479   1.531074   0.000000
     4  O    2.409583   1.400619   2.458611   0.000000
     5  H    2.168461   1.102890   2.155694   2.078792   0.000000
     6  O    2.387316   2.325645   1.422061   3.572693   2.703477
     7  H    2.712412   2.130371   1.108022   2.560489   3.037087
     8  C    3.752096   2.551114   1.501716   3.213174   2.690406
     9  C    1.530917   2.396621   2.335105   3.608769   2.830342
    10  H    1.102853   2.192398   3.328248   2.917772   2.399648
    11  O    1.413277   2.414519   3.014112   2.638448   3.337241
    12  C    2.572894   3.385244   3.481460   4.699989   3.347820
    13  H    2.151089   3.220165   2.980537   4.230099   3.841722
    14  O    2.995241   3.300722   3.615402   4.621396   2.804598
    15  H    2.840909   3.967204   4.332212   5.143441   3.955828
    16  H    3.503303   4.219560   3.958158   5.568933   4.210756
    17  H    1.901548   2.332493   3.111988   2.020846   3.295925
    18  H    3.197894   1.905079   2.456036   0.983713   2.434162
    19  H    3.160171   3.062159   3.091694   4.417987   2.514170
    20  C    4.721819   3.702899   2.574018   4.549395   3.611112
    21  N    5.993451   4.854348   3.830532   5.541496   4.640374
    22  C    6.480557   5.139405   4.302946   5.501171   4.937463
    23  N    5.785245   4.337429   3.709277   4.405503   4.264763
    24  C    4.481930   3.042745   2.484669   3.094888   3.164774
    25  H    4.704424   3.997976   2.816041   5.067339   3.908462
    26  H    6.454572   4.960771   4.508229   4.771807   4.893920
    27  O    7.684877   6.313262   5.526414   6.589766   6.055597
    28  O    4.366268   2.933948   2.844331   2.415969   3.235018
                    6          7          8          9         10
     6  O    0.000000
     7  H    2.081139   0.000000
     8  C    2.421067   2.147205   0.000000
     9  C    1.437840   2.785266   3.641197   0.000000
    10  H    3.239004   3.781432   4.563336   2.197174   0.000000
    11  O    3.213616   2.794280   4.467965   2.401184   2.076844
    12  C    2.365527   4.169219   4.484487   1.514374   2.636161
    13  H    2.085074   3.061978   4.351526   1.102426   2.836689
    14  O    2.806069   4.553682   4.267308   2.427852   2.837992
    15  H    3.329784   4.915150   5.453366   2.151579   2.563575
    16  H    2.612731   4.593518   4.816664   2.141899   3.708624
    17  H    3.696898   2.798378   4.420972   3.140766   2.478077
    18  H    3.789819   2.502099   2.772417   4.164522   3.805141
    19  H    2.363613   4.119063   3.482872   2.520684   3.272700
    20  C    2.853881   3.253942   1.387957   4.228284   5.468346
    21  N    4.189203   4.428160   2.439964   5.554714   6.690810
    22  C    5.024112   4.773234   2.801763   6.333249   7.166001
    23  N    4.761561   4.048972   2.341759   5.937435   6.479703
    24  C    3.715067   2.794085   1.424424   4.762764   5.223817
    25  H    2.523469   3.529604   2.144917   3.878714   5.425261
    26  H    5.664640   4.742979   3.255939   6.768666   7.108175
    27  O    6.237626   5.962205   4.026241   7.550819   8.338743
    28  O    4.242364   2.890656   2.384977   5.013344   5.055597
                   11         12         13         14         15
    11  O    0.000000
    12  C    3.660601   0.000000
    13  H    2.383773   2.154317   0.000000
    14  O    4.344917   1.412930   3.369740   0.000000
    15  H    3.754406   1.099252   2.496439   2.030101   0.000000
    16  H    4.450029   1.104335   2.450886   2.080808   1.784099
    17  H    0.968947   4.409654   3.270548   4.883335   4.559824
    18  H    3.431678   5.276003   4.796405   5.113144   5.857007
    19  H    4.512372   1.919036   3.526440   0.965813   2.814556
    20  C    5.567997   4.744486   4.923386   4.431347   5.813493
    21  N    6.840537   5.971895   6.258029   5.506272   7.045227
    22  C    7.227799   6.898094   7.062976   6.363304   7.927171
    23  N    6.392698   6.710164   6.661502   6.234661   7.659309
    24  C    5.023903   5.685363   5.464188   5.352104   6.571420
    25  H    5.607155   4.188141   4.503170   4.000582   5.286222
    26  H    6.973237   7.584790   7.486786   7.074124   8.491706
    27  O    8.429562   8.061082   8.284125   7.454711   9.093194
    28  O    4.674072   6.076932   5.657230   5.808304   6.824314
                   16         17         18         19         20
    16  H    0.000000
    17  H    5.248851   0.000000
    18  H    6.047138   2.812546   0.000000
    19  H    2.344808   4.961625   4.735905   0.000000
    20  C    4.806250   5.663467   4.136775   3.509417   0.000000
    21  N    5.980967   6.855810   4.977091   4.548400   1.339134
    22  C    7.061367   7.058805   4.758801   5.436123   2.310801
    23  N    7.060773   6.074144   3.562099   5.397394   2.620217
[...]
 002297,-0.00008275,-0.00006893,0.00002045,0.00016042,-0.00017293,-0.00
 011849,0.00009792,0.00017877,-0.00023242,0.04218363,-0.00295568,-0.069
 05003,-0.09952412,0.05469966,0.10329082,-0.00028656,0.00011015,0.00048
 866,0.00073883,-0.00109292,-0.00154881,-0.00447358,0.00246381,0.001233
 00,0.00220374,0.00083589,0.00065946,-0.00027313,-0.00003962,-0.0001439
 0,0.00362127,-0.00133687,0.00027653,0.00178180,0.00028042,-0.00065627,
 0.00364630,0.01827967,0.00288900,-0.00220039,-0.00015139,-0.00018930,0
 .00055235,-0.00005155,0.00008765,0.00143873,0.00056335,-0.00032496,-0.
 00000254,0.00044953,0.00002264,0.00041721,0.00001684,-0.00022685,0.000
 46376,-0.00072303,0.00035032,0.00022173,-0.00005630,0.00014633,-0.0000
 8632,-0.00015742,-0.00009535,-0.00081827,-0.00031577,0.00016114,-0.002
 92260,-0.00089881,-0.00064201,-0.00050206,0.00065575,-0.00046665,-0.06
 955871,0.02580984,0.01429818,-0.15441177,0.05919098,0.02057617,0.93410
 485,-0.00014469,-0.00013405,-0.00053428,-0.00116023,0.00263161,0.00107
 490,0.00105254,-0.00422394,-0.00073534,0.00363920,-0.00218589,0.000420
 45,0.00012842,-0.00015633,0.00019565,-0.00020539,0.00022033,-0.0004934
 1,-0.00145393,-0.00024085,0.00069426,0.00475830,-0.06069974,-0.0110100
 0,0.00063719,-0.00011929,-0.00003799,-0.00025509,0.00005730,0.00002766
 ,-0.00019113,-0.00058226,-0.00001736,0.00003433,0.00001577,-0.00001480
 ,-0.00003832,-0.00005098,0.00004145,-0.00009827,-0.00005995,-0.0000478
 9,-0.00004783,0.00000329,-0.00002713,0.00003010,-0.00001494,-0.0000053
 3,-0.00020367,0.00023872,0.00021468,-0.00471156,0.00059732,-0.00081926
 ,0.00005251,0.00009197,0.00009997,0.05975638,0.04039445,-0.00165768,0.
 07036944,-0.22242606,-0.03262296,-0.02130553,0.52493769,-0.00007208,-0
 .00000687,-0.00018794,-0.00027365,0.00075412,0.00061930,0.00067996,-0.
 00123611,-0.00046300,0.00075078,-0.00065236,-0.00023538,0.00002053,0.0
 0000779,-0.00004078,-0.00061420,0.00033252,-0.00011485,-0.00038876,0.0
 0010508,0.00010522,-0.00019364,-0.01201174,-0.00515915,0.00043102,-0.0
 0000830,0.00004040,-0.00014059,0.00002304,-0.00000323,-0.00018563,-0.0
 0018451,-0.00002881,-0.00003509,-0.00008351,0.00008895,-0.00006975,-0.
 00001012,0.00002292,-0.00003931,0.00013701,-0.00018858,-0.00003260,0.0
 0000920,-0.00003993,0.00002337,0.00001230,-0.00000040,0.00006229,0.000
 07964,0.00006064,-0.00089952,0.00015014,0.00045455,0.00003929,-0.00010
 495,0.00016485,0.01975162,0.00288536,-0.00809627,0.02239643,-0.0312026
 8,-0.08867221,-0.11739431,0.04947296,0.25120355,0.00022531,0.00016864,
 0.00016815,0.00061295,-0.00228541,0.00023760,0.00237843,0.00377774,0.0
 0049888,-0.00560571,0.00166050,-0.00107571,-0.00000512,0.00031916,-0.0
 0019861,-0.00238596,0.00028445,0.00031665,-0.00012977,-0.00019603,-0.0
 0008932,-0.04192739,0.03797176,0.01430718,0.00080254,0.00023153,0.0002
 1389,-0.00010241,-0.00002806,-0.00008976,-0.00063485,0.00022854,0.0001
 8181,-0.00006177,-0.00026502,0.00006124,-0.00024108,0.00004162,0.00008
 945,-0.00013815,0.00039718,-0.00022358,-0.00008557,0.00003558,-0.00007
 092,0.00002992,0.00009091,0.00003618,0.00072402,-0.00004909,-0.0003570
 4,0.00827988,0.00020532,0.00173221,0.00020217,-0.00036793,0.00025378,-
 0.03360418,-0.01946481,0.00153791,0.04352195,0.00433099,-0.00427604,-0
 .13901079,0.02062691,0.01710627,0.76444347,0.00013103,-0.00013593,0.00
 036791,-0.00004132,-0.00364133,-0.00035390,0.00047447,-0.00516272,-0.0
 0093937,-0.00835402,0.00326495,-0.00137706,0.00009457,0.00043894,-0.00
 004204,0.00265677,0.00063078,0.00010023,-0.00001406,0.00020678,-0.0003
 4804,0.02561488,0.03400145,-0.00122619,-0.00027586,-0.00062709,-0.0002
 3742,0.00001383,0.00003396,-0.00003524,-0.00055604,0.00072679,0.000161
 27,0.00020415,-0.00004521,0.00003270,0.00010940,0.00008248,0.00003807,
 -0.00001692,0.00031887,-0.00002825,0.00003318,-0.00006122,0.00003860,-
 0.00002193,0.00010748,0.00000978,0.00084192,-0.00019860,-0.00047424,0.
 01118508,-0.00073215,0.00259537,-0.00003664,-0.00027621,-0.00003444,-0
 .02655900,-0.01993568,0.00129966,0.02868519,-0.05865201,-0.01652760,-0
 .03564851,-0.20007017,-0.01505010,-0.06545736,0.72700759,0.00001275,-0
 .00002527,0.00005765,0.00072663,0.00067433,-0.00012182,-0.00048409,-0.
 00274189,0.00429865,0.00052480,-0.00027382,-0.00008861,0.00006500,-0.0
 0004303,-0.00008694,0.00101316,0.00018129,0.00001252,-0.00081867,0.000
 10674,-0.00007831,0.01290395,-0.00209075,0.00835680,0.00000819,-0.0000
 9776,-0.00018617,0.00003416,-0.00000434,0.00001392,0.00001910,0.000056
 89,-0.00003353,0.00006273,0.00003920,-0.00006233,0.00010476,-0.0000265
 4,0.00001055,-0.00000593,-0.00001712,0.00009941,0.00000971,-0.00001560
 ,0.00002111,-0.00001168,0.00000763,0.00000689,0.00001693,-0.00003897,0
 .00000209,-0.00074960,-0.00037782,0.00074330,-0.00003765,0.00001566,-0
 .00009595,0.00048359,0.00033824,-0.00157219,0.00030826,-0.01272565,0.0
 1407145,0.00692404,-0.02521846,-0.06433221,-0.12132611,0.11906536,0.10
 277749,-0.00023598,0.00053077,0.00015940,-0.00145290,0.00298814,0.0002
 8804,-0.02088202,0.02531657,0.00667119,0.00124812,0.00035705,-0.000111
 14,-0.00013322,-0.00010411,-0.00030562,-0.00510421,-0.00166407,0.00003
 938,-0.00040567,0.00047331,0.00094245,-0.18897906,0.05791496,0.0277346
 0,-0.00087735,0.00140765,0.00062357,0.00017382,-0.00003554,0.00002659,
 0.00079432,-0.00020044,-0.00030997,-0.00053671,-0.00002364,0.00017457,
 -0.00008801,-0.00004899,-0.00011809,0.00035202,-0.00029074,-0.00000368
 ,0.00007381,0.00011891,-0.00005561,-0.00002186,-0.00008591,-0.00003410
 ,-0.00073295,-0.00001010,0.00029239,-0.00408667,-0.00865732,-0.0008894
 8,-0.00042727,0.00028604,-0.00017086,0.07203391,0.02551564,-0.00651913
 ,-0.05784966,0.02892977,0.01378223,-0.00109400,-0.10321067,-0.01854278
 ,-0.28808296,0.01988567,0.03805693,0.64598199,-0.00044153,0.00026664,-
 0.00182733,-0.00548345,0.01643650,0.00199651,0.00844804,0.01371375,-0.
 00137579,0.03013699,-0.01302960,0.00331884,0.00012437,-0.00107963,0.00
 081848,-0.00787393,-0.00409036,-0.00035516,-0.00464800,-0.00189511,0.0
 0291022,0.09052449,-0.18605471,-0.03300308,0.00248378,0.00139929,0.000
 94774,-0.00056777,-0.00007656,0.00008485,0.00096425,-0.00374345,-0.000
 32893,-0.00028406,-0.00011795,-0.00044133,-0.00072289,-0.00019932,0.00
 002146,-0.00060882,-0.00054040,0.00003141,-0.00031536,0.00018651,-0.00
 013910,0.00009658,-0.00027199,0.00009963,-0.00308074,0.00126818,0.0018
 8479,-0.04124177,-0.00290386,-0.00688310,0.00117502,0.00011651,0.00037
 571,-0.01786095,-0.06199370,-0.00743117,0.03670803,-0.00422037,-0.0064
 3973,-0.03810139,0.03527912,0.01299768,-0.03447371,-0.14848998,-0.0095
 2082,0.04943580,0.83920384,-0.00023240,0.00024679,0.00009332,-0.000513
 19,0.00105892,0.00141928,0.00633380,-0.00213607,-0.00250995,0.00261740
 ,-0.00149613,0.00054853,-0.00001449,0.00004343,0.00010812,-0.00095486,
 0.00015916,0.00007127,-0.00057730,-0.00037691,0.00110543,0.03140477,-0
 .02599044,-0.08999814,0.00031521,-0.00024412,0.00079428,-0.00000592,-0
 .00002440,-0.00005178,0.00009741,-0.00045198,-0.00021519,0.00014590,0.
 00002578,-0.00001733,-0.00031943,-0.00006734,-0.00005077,-0.00015558,-
 0.00004101,-0.00010838,-0.00002436,-0.00000564,-0.00001270,0.00001265,
 -0.00006215,0.00001081,-0.00037215,0.00017005,0.00027227,-0.00415316,-
 0.00094458,-0.00165310,0.00032231,-0.00008574,0.00018135,-0.01322979,-
 0.01445590,0.00193174,0.01395299,-0.00451525,-0.00589926,-0.00744493,0
 .02275598,-0.00716942,0.02888829,-0.01775125,-0.06279575,-0.05741213,0
 .09854007,0.23097843,-0.00005562,-0.00006960,-0.00000560,0.00002281,0.
 00000646,-0.00013317,-0.00023424,0.00022036,-0.00041219,-0.00004211,0.
 00017709,0.00008451,-0.00001441,-0.00001528,0.00000347,-0.00265601,-0.
 00178657,0.00042360,0.00015705,0.00020537,-0.00003288,0.01024891,-0.00
 831842,-0.00160787,-0.00059824,-0.00015009,-0.00016633,0.00001207,0.00
 002162,0.00002477,0.00004867,0.00009292,-0.00000858,0.00003375,0.00005
 090,-0.00005249,0.00014027,0.00000784,-0.00003755,0.00005636,-0.000094
 30,0.00016512,0.00002647,-0.00001361,0.00004204,-0.00003162,0.00002439
 ,-0.00000275,-0.00000352,-0.00002166,-0.00000083,0.00009566,-0.0000099
 3,0.00001447,-0.00001078,0.00012224,-0.00028436,-0.13018347,0.11842794
 ,0.03388384,-0.02765067,0.02211193,0.00799779,-0.00344139,-0.00139652,
 0.00219628,0.00008456,0.00026632,-0.00010768,-0.00116076,-0.00293415,0
 .00117811,0.15615176,0.00016176,-0.00018789,0.00009377,0.00010790,-0.0
 0026133,-0.00004645,0.00263453,-0.00154737,-0.00003429,-0.00055048,0.0
 0048514,0.00001808,0.00005216,0.00001122,-0.00002131,0.00079596,0.0013
 3479,0.00039353,-0.00030701,0.00001410,0.00000952,0.01687593,-0.018367
 19,-0.00758981,-0.00083562,0.00059902,-0.00009876,0.00001270,0.0000813
 8,0.00007218,-0.00004369,0.00026241,-0.00001783,-0.00009338,0.00003313
 ,0.00001714,0.00019466,0.00003834,-0.00002303,0.00008599,-0.00003855,0
 .00010854,0.00005790,-0.00001555,0.00001839,-0.00001236,0.00001705,-0.
 00001316,0.00010892,-0.00004013,-0.00003477,0.00084622,0.00004341,0.00
 016393,-0.00027451,0.00004370,-0.00030193,0.11659993,-0.23435523,-0.05
 092944,-0.00122525,0.01085606,0.00222498,-0.00324372,0.00329940,-0.000
 76624,-0.00100172,0.00032529,0.00031155,-0.00474742,-0.00319373,-0.001
 18458,-0.12766149,0.24287520,-0.00004780,-0.00010402,-0.00010409,-0.00
 033473,-0.00013207,0.00033353,-0.00008559,0.00013501,-0.00291463,-0.00
 011813,0.00006247,-0.00007010,-0.00002046,-0.00001487,-0.00001426,0.00
 037857,0.00040914,-0.00034110,0.00039336,0.00020494,0.00002641,0.00274
 167,-0.00355220,0.00846955,0.00004411,0.00012168,-0.00014778,-0.000062
 24,0.00000764,0.00000028,-0.00002476,0.00005225,-0.00001432,-0.0001880
 7,-0.00003844,0.00025057,0.00006827,0.00003554,-0.00001846,0.00023918,
 0.00013576,-0.00014328,0.00003552,0.00002074,-0.00003636,-0.00000755,-
 0.00001618,-0.00002778,0.00001801,-0.00000612,-0.00000552,0.00012320,-
 0.00003236,0.00007740,-0.00042013,-0.00017542,-0.00012471,0.03427440,-
 0.05107532,-0.06237079,0.00382332,-0.00171543,-0.00149360,0.00180182,-
 0.00119202,0.01010379,-0.00016094,0.00023625,-0.00066141,0.00057245,-0
 .00118990,0.00846397,-0.04268810,0.05763841,0.04497538,-0.00001066,0.0
 0002284,-0.00004864,-0.00001903,0.00048135,0.00012676,0.00031384,0.001
 57568,0.00017716,0.00098118,-0.00035645,0.00013414,-0.00001934,-0.0000
 4092,-0.00002104,-0.00065354,-0.00010319,-0.00000104,-0.00004656,-0.00
 005740,0.00005471,-0.00489140,-0.00468511,0.00090737,0.00006748,0.0001
 7147,0.00007823,-0.00001279,-0.00000605,0.00000150,0.00006833,-0.00009
 657,-0.00002577,-0.00006907,-0.00002860,0.00002137,-0.00003211,-0.0000
 0584,-0.00000933,0.00002344,-0.00001072,-0.00002960,-0.00000293,0.0000
 1896,-0.00001290,0.00000133,-0.00001098,-0.00000125,-0.00011220,0.0000
 3372,0.00006421,-0.00118560,-0.00003613,-0.00031990,-0.00001619,0.0000
 0359,0.00002079,-0.00052187,-0.00053303,-0.00002351,0.00021824,-0.0052
 0097,-0.00010849,0.01730619,-0.00762917,-0.00431872,-0.21388778,0.1752
 0543,0.06096205,-0.01724515,0.03238401,0.00817009,-0.00002122,0.000053
 90,-0.00013765,0.21712442,0.00001156,0.00002338,-0.00002387,-0.0000017
 5,0.00018062,0.00003085,-0.00020832,0.00046550,-0.00009300,0.00020440,
 -0.00015409,0.00003911,0.00000393,-0.00002101,0.00001170,-0.00035454,0
 .00001393,0.00001634,-0.00002618,0.00000101,0.00005102,-0.00301623,0.0
 0205892,0.00002024,0.00005069,0.00004609,0.00002968,-0.00001552,-0.000
 00112,-0.00000034,-0.00003885,-0.00006361,0.00001873,-0.00001232,-0.00
 002269,-0.00001191,-0.00002692,-0.00000253,0.00000598,-0.00002176,0.00
 001839,-0.00000058,-0.00001044,0.00000832,-0.00000886,0.00000168,0.000
 00341,0.00000712,-0.00000270,0.00002905,0.00000776,-0.00022568,0.00002
 298,-0.00010363,0.00002455,-0.00002867,0.00000618,-0.00264140,-0.00018
 603,0.00049072,-0.00365800,-0.00584612,-0.00103429,0.02692273,-0.01730
 167,-0.00715214,0.17667372,-0.28448150,-0.07325068,-0.00250802,0.01180
 704,0.00245317,0.00020165,-0.00002305,0.00010572,-0.19121654,0.2905492
 2,0.00000912,-0.00002675,0.00001834,0.00000867,-0.00007808,0.00002694,
 0.00006325,-0.00025652,0.00101381,-0.00031618,0.00007012,-0.00007915,-
 0.00000349,0.00003699,-0.00004378,0.00006405,0.00000216,-0.00004878,-0
 .00001932,-0.00004325,-0.00003760,0.00093691,-0.00011851,0.00498808,0.
 00001686,0.00001595,-0.00004514,-0.00000663,0.00000694,-0.00000908,-0.
 00001021,0.00003318,-0.00003423,-0.00002365,-0.00001239,0.00002510,0.0
 0002639,-0.00000033,-0.00000106,0.00001915,0.00000833,-0.00004537,-0.0
 0000321,0.00000370,-0.00000188,0.00000297,-0.00000277,-0.00000615,0.00
 002010,-0.00000338,0.00000906,0.00037666,0.00004425,0.00001153,-0.0000
 0389,0.00000118,0.00002827,-0.00029217,0.00013424,-0.00040041,0.000192
 11,-0.00057830,0.00442065,0.00149278,-0.00102702,-0.00132121,0.0616292
 1,-0.07387335,-0.03866606,0.00202671,-0.00259502,-0.00114716,-0.000130
 42,0.00016224,-0.00095347,-0.06419589,0.07645465,0.03986594,0.00019921
 ,-0.00008277,-0.00041474,-0.00068037,0.00098592,0.00145813,0.00328203,
 -0.00174534,-0.00099654,-0.00209752,-0.00066849,-0.00071255,0.00024981
 ,0.00008887,0.00009896,-0.00303051,0.00085744,-0.00024874,-0.00164069,
 -0.00017454,0.00051243,-0.00405515,-0.00769988,-0.00219481,0.00187763,
 -0.00001459,0.00017344,-0.00047403,0.00004042,-0.00007488,-0.00122870,
 -0.00050120,0.00027430,0.00001848,-0.00038544,0.00000521,-0.00036799,-
 0.00000971,0.00018534,-0.00038230,0.00063546,-0.00033239,-0.00018281,0
 .00004587,-0.00012510,0.00006990,0.00013217,0.00007616,0.00068059,0.00
 027689,-0.00013896,0.00277043,0.00058271,0.00084722,0.00041818,-0.0005
 8561,0.00044054,0.01501694,0.00971786,0.00053840,-0.07353830,0.0322409
 2,0.02002374,-0.58774742,-0.04197473,0.07511973,-0.05914792,-0.0445680
 2,0.00653961,0.00402609,0.00379931,0.00111681,-0.00163618,0.00040940,0
 .00011279,-0.00283115,-0.00098672,-0.00048364,0.71553300,0.00005101,-0
 .00000265,0.00013940,0.00031187,-0.00069169,-0.00016192,0.00009579,0.0
 0085324,0.00025682,-0.00127316,0.00062029,-0.00017809,-0.00000582,0.00
 005911,-0.00005052,-0.00015119,0.00018590,0.00012464,0.00018403,0.0000
 4994,-0.00013415,-0.00198076,0.01188799,0.00250661,-0.00011190,0.00005
 293,0.00001720,0.00003100,-0.00000441,-0.00001088,-0.00005509,0.000173
 40,0.00000984,-0.00003191,-0.00005869,0.00002750,-0.00000630,0.0000147
 2,-0.00000016,0.00003030,0.00010853,-0.00002860,0.00000923,0.00000637,
 -0.00000283,-0.00000856,0.00002571,0.00000813,0.00013476,-0.00005833,-
 0.00007682,0.00167606,-0.00014411,0.00036009,-0.00002573,-0.00010722,-
 0.00000818,-0.00770072,-0.01107999,-0.00178571,0.05347577,0.01079167,-
 0.00981698,-0.04242398,-0.09782002,0.00440051,-0.07710210,-0.01494489,
 0.00673817,0.02093684,-0.00922111,-0.00542428,0.00106733,-0.00007048,0
 .00003127,0.00169049,0.00440535,0.00099113,0.05763118,0.10577725,-0.00
 000979,-0.00000538,0.00002417,-0.00008117,-0.00032238,-0.00034434,-0.0
 0051866,0.00067149,-0.00068320,0.00004321,0.00029519,0.00018146,-0.000
 02551,-0.00002263,0.00004520,0.00048058,-0.00015859,0.00011105,0.00045
 610,-0.00004881,-0.00009128,0.00007752,0.00335341,-0.00061429,-0.00033
 705,0.00000607,-0.00005346,0.00007788,-0.00000541,0.00001998,0.0001604
 9,0.00008253,0.00003216,0.00002616,0.00006304,-0.00006965,0.00005494,0
 .00000618,-0.00001830,0.00002360,-0.00011464,0.00014969,0.00002602,-0.
 00000845,0.00002700,-0.00001659,-0.00000608,0.00000203,-0.00008176,-0.
 00004461,-0.00001900,-0.00006949,-0.00009609,-0.00019307,-0.00005309,0
 .00009889,-0.00013681,-0.00235817,-0.00433872,0.00692112,0.02303811,-0
 .00645814,0.01353531,0.07508724,0.00438309,-0.09269709,0.00096919,0.00
 137160,0.02111157,0.00375954,-0.00304828,0.00546714,0.00023484,0.00008
 045,-0.00104647,0.00020532,0.00147241,-0.00323095,-0.10083664,0.001412
 25,0.05228435,0.00007505,0.00054308,0.00137986,0.00268965,-0.01510705,
 -0.00106222,-0.00037935,-0.00272369,-0.00066776,-0.04805495,0.00713141
 ,-0.00959470,-0.00003042,0.00135809,-0.00056453,0.00121246,0.00249637,
 0.00069492,0.00192175,0.00031433,-0.00111030,0.02382757,0.01117977,0.0
 0267947,-0.00068121,-0.00061949,-0.00050118,0.00015646,-0.00002200,-0.
 00014984,-0.00164997,0.00259619,0.00073248,0.00008897,-0.00021579,0.00
 027717,0.00013576,0.00018199,0.00016245,0.00009155,0.00072779,-0.00024
 234,0.00004192,-0.00005030,-0.00001646,-0.00001311,0.00027221,-0.00001
 311,0.00315522,-0.00071299,-0.00230731,0.01506528,0.00955089,0.0065100
 0,-0.00032817,-0.00046744,0.00006575,-0.00944671,0.00197610,0.00265772
 ,0.00656193,-0.00826284,-0.00263849,0.00033278,0.02294142,0.00462306,-
 0.03625381,-0.08385221,-0.00523496,-0.13528766,-0.09764216,-0.00914605
 ,0.00066192,0.00099880,-0.00033051,0.00547415,0.00087699,-0.00139628,-
 0.00510125,-0.00644840,-0.00033284,0.17573417,0.00008497,0.00036233,0.
 00152345,0.00114468,-0.00991454,-0.00178351,-0.00881152,-0.00165027,0.
 00281380,-0.02037315,0.01558463,-0.00207914,-0.00001149,0.00093301,-0.
 00058841,0.00275999,0.00282700,0.00067788,0.00253000,0.00135014,-0.001
 66959,-0.00451500,-0.07300903,-0.01295544,-0.00218973,-0.00046805,-0.0
 0054101,0.00040332,0.00004223,-0.00010021,-0.00053267,0.00259255,0.000
 02766,0.00000263,-0.00004298,0.00036697,0.00043323,0.00016065,-0.00001
 332,0.00046800,0.00047904,-0.00007297,0.00020727,-0.00007906,0.0000647
 0,-0.00007631,0.00021750,-0.00005166,0.00209484,-0.00096160,-0.0011946
 3,0.02922083,-0.01171012,0.00432002,-0.00081932,-0.00019385,-0.0002906
 6,0.01944290,0.01145974,-0.00231059,-0.01534288,-0.00170115,0.00255415
 ,0.00996785,-0.00168084,-0.00289773,-0.04635334,-0.02969066,-0.0010665
 4,-0.11251014,-0.47855555,-0.05019558,-0.00053273,-0.00221913,0.000047
 52,-0.00162377,-0.00150114,0.00065063,-0.00804739,-0.00080880,0.001381
 58,0.15297893,0.57817796,0.00021284,0.00016070,0.00031104,-0.00005564,
 -0.00458059,-0.00149478,-0.00232061,0.00139301,-0.00305926,-0.01384397
 ,0.00304755,0.00472264,0.00016492,0.00001603,0.00007935,0.00093824,-0.
 00007822,0.00084468,-0.00015513,0.00037451,0.00002312,-0.00094558,-0.0
 1741860,0.01950608,-0.00083702,-0.00023950,-0.00025087,0.00009620,-0.0
 0000769,0.00001045,-0.00055902,0.00090090,0.00056684,0.00007487,0.0000
 1092,0.00002872,0.00009309,0.00013419,0.00004002,0.00006783,0.00013043
 ,0.00011905,0.00004472,-0.00003543,0.00003143,-0.00001993,0.00009270,-
 0.00000319,0.00092838,-0.00021138,-0.00097484,0.01026613,0.00102915,-0
 .00891009,-0.00016467,-0.00004935,-0.00016788,0.00570681,0.00053502,0.
 00495988,-0.00360770,0.00093780,-0.00088830,0.00263839,-0.00392014,0.0
 0588630,-0.00035986,0.00298169,0.01719790,-0.01067747,-0.04944865,-0.0
 7981701,-0.00057803,-0.00025111,-0.00221273,-0.00166996,0.00045790,-0.
 00433624,-0.00096382,0.00065552,-0.00071431,0.01552600,0.06338264,0.04
 850201\\-0.00001742,-0.00001338,0.00001346,0.00000832,-0.00000680,-0.0
 0000034,-0.00001534,0.00003942,0.00000421,-0.00001063,0.00000264,-0.00
 000954,-0.00000269,-0.00000255,-0.00000037,0.00001713,-0.00001900,-0.0
 0000116,0.00000161,-0.00000534,-0.00000153,0.00000219,-0.00000539,0.00
 000569,-0.00001095,-0.00000258,0.00000407,0.00000284,0.00000056,-0.000
 00281,0.00001112,0.00001268,-0.00000701,0.00000034,0.00000062,-0.00000
 569,0.00000242,0.00000317,-0.00000089,0.00000180,0.00000005,0.00000346
 ,-0.00000185,-0.00000181,0.00000162,-0.00000081,0.00000053,-0.00000221
 ,-0.00000232,0.00000737,-0.00000105,0.00001147,-0.00000564,0.00000860,
 0.00000152,-0.00000045,-0.00000279,-0.00001359,-0.00000934,-0.00000145
 ,0.00000458,-0.00000759,-0.00000342,0.00001295,0.00002704,-0.00000256,
 -0.00000498,-0.00001930,0.00000465,0.00001098,0.00002081,-0.00000105,-
 0.00000129,0.00000134,-0.00000154,-0.00000315,-0.00000061,-0.00000098,
 -0.00000296,-0.00000514,0.00000140,-0.00000127,-0.00001131,-0.00000078
 \\\@
 The archive entry for this job was punched.


 TIMES HAVE CHANGED. IN THE BIBLE WHEN AN ASS
 SPOKE IT WAS CONSIDERED A MIRACLE.
 Job cpu time:       0 days  9 hours 37 minutes 25.5 seconds.
 Elapsed time:       0 days  0 hours 14 minutes 33.3 seconds.
 File lengths (MBytes):  RWF=    600 Int=      0 D2E=      0 Chk=     20 Scr=      1
 Normal termination of Gaussian 16 at Sat Oct 26 23:50:31 2024.
