 Entering Gaussian System, Link 0=g16
 Input=PseudoUridineAmSsllgPBE0aVDZ.gjf
 Output=PseudoUridineAmSsllgPBE0aVDZ.log
 Initial command:
 /sw/contrib/chem-src/g16/c01/g16/l1.exe "/scr/Gau-1778.inp" -scrdir="/scr/"
 Entering Link 1 = /sw/contrib/chem-src/g16/c01/g16/l1.exe PID=      1779.
  
 Copyright (c) 1988-2019, Gaussian, Inc.  All Rights Reserved.
  
 This is part of the Gaussian(R) 16 program.  It is based on
 the Gaussian(R) 09 system (copyright 2009, Gaussian, Inc.),
 the Gaussian(R) 03 system (copyright 2003, Gaussian, Inc.),
 the Gaussian(R) 98 system (copyright 1998, Gaussian, Inc.),
 the Gaussian(R) 94 system (copyright 1995, Gaussian, Inc.),
 the Gaussian 92(TM) system (copyright 1992, Gaussian, Inc.),
 the Gaussian 90(TM) system (copyright 1990, Gaussian, Inc.),
 the Gaussian 88(TM) system (copyright 1988, Gaussian, Inc.),
 the Gaussian 86(TM) system (copyright 1986, Carnegie Mellon
 University), and the Gaussian 82(TM) system (copyright 1983,
 Carnegie Mellon University). Gaussian is a federally registered
 trademark of Gaussian, Inc.
  
 This software contains proprietary and confidential information,
 including trade secrets, belonging to Gaussian, Inc.
  
 This software is provided under written license and may be
 used, copied, transmitted, or stored only in accord with that
 written license.
  
 The following legend is applicable only to US Government
 contracts under FAR:
  
                    RESTRICTED RIGHTS LEGEND
  
 Use, reproduction and disclosure by the US Government is
 subject to restrictions as set forth in subparagraphs (a)
 and (c) of the Commercial Computer Software - Restricted
 Rights clause in FAR 52.227-19.
  
 Gaussian, Inc.
 340 Quinnipiac St., Bldg. 40, Wallingford CT 06492
  
  
 ---------------------------------------------------------------
 Warning -- This program may not be used in any manner that
 competes with the business of Gaussian, Inc. or will provide
 assistance to any competitor of Gaussian, Inc.  The licensee
 of this program is prohibited from giving any competitor of
 Gaussian, Inc. access to this program.  By using this program,
 the user acknowledges that Gaussian, Inc. is engaged in the
 business of creating and licensing software in the field of
 computational chemistry and represents and warrants to the
 licensee that it is not a competitor of Gaussian, Inc. and that
 it will not use this program in any manner prohibited above.
 ---------------------------------------------------------------
  

 Cite this work as:
 Gaussian 16, Revision C.01,
 M. J. Frisch, G. W. Trucks, H. B. Schlegel, G. E. Scuseria, 
 M. A. Robb, J. R. Cheeseman, G. Scalmani, V. Barone, 
 G. A. Petersson, H. Nakatsuji, X. Li, M. Caricato, A. V. Marenich, 
 J. Bloino, B. G. Janesko, R. Gomperts, B. Mennucci, H. P. Hratchian, 
 J. V. Ortiz, A. F. Izmaylov, J. L. Sonnenberg, D. Williams-Young, 
 F. Ding, F. Lipparini, F. Egidi, J. Goings, B. Peng, A. Petrone, 
 T. Henderson, D. Ranasinghe, V. G. Zakrzewski, J. Gao, N. Rega, 
 G. Zheng, W. Liang, M. Hada, M. Ehara, K. Toyota, R. Fukuda, 
 J. Hasegawa, M. Ishida, T. Nakajima, Y. Honda, O. Kitao, H. Nakai, 
 T. Vreven, K. Throssell, J. A. Montgomery, Jr., J. E. Peralta, 
 F. Ogliaro, M. J. Bearpark, J. J. Heyd, E. N. Brothers, K. N. Kudin, 
 V. N. Staroverov, T. A. Keith, R. Kobayashi, J. Normand, 
 K. Raghavachari, A. P. Rendell, J. C. Burant, S. S. Iyengar, 
 J. Tomasi, M. Cossi, J. M. Millam, M. Klene, C. Adamo, R. Cammi, 
 J. W. Ochterski, R. L. Martin, K. Morokuma, O. Farkas, 
 J. B. Foresman, and D. J. Fox, Gaussian, Inc., Wallingford CT, 2019.
 
 ******************************************
 Gaussian 16:  EM64L-G16RevC.01  3-Jul-2019
                27-Oct-2024 
 ******************************************
 %nprocshared=40
 Will use up to   40 processors via shared memory.
 %mem=50gb
 ------------------------------------------------------
 # PBE1PBE/aug-cc-pVDZ opt freq EmpiricalDispersion=GD3
 ------------------------------------------------------
 1/18=20,19=15,26=3,38=1/1,3;
 2/9=110,12=2,17=6,18=5,40=1/2;
 3/5=16,7=10,11=2,25=1,30=1,71=1,74=-13,124=31/1,2,3;
 4//1;
 5/5=2,38=5/2;
 6/7=2,8=2,9=2,10=2,28=1/1;
 7//1,2,3,16;
 1/18=20,19=15,26=3/3(2);
 2/9=110/2;
 99//99;
 2/9=110/2;
 3/5=16,7=10,11=2,25=1,30=1,71=1,74=-13,124=31/1,2,3;
 4/5=5,16=3,69=1/1;
 5/5=2,38=5/2;
 7//1,2,3,16;
 1/18=20,19=15,26=3/3(-5);
 2/9=110/2;
 6/7=2,8=2,9=2,10=2,19=2,28=1/1;
 99/9=1/99;
 ----
 blah
 ----
 Symbolic Z-matrix:
 Charge =  0 Multiplicity = 2
 C                     2.71086   0.62799   0.1832 
 C                     1.25164   0.93442   0.54991 
 C                     0.48408   0.23884  -0.58632 
 O                     1.05919   2.32061   0.61594 
 H                     0.99413   0.43713   1.50146 
 O                     1.21673  -0.9679   -0.78355 
 H                     0.58935   0.88209  -1.48343 
 C                    -0.96113  -0.05425  -0.32571 
 C                     2.60831  -0.68991  -0.60115 
 H                     3.34061   0.51125   1.07978 
 O                     3.22588   1.65606  -0.64022 
 C                     3.19718  -1.90275   0.09247 
 H                     3.09815  -0.54345  -1.57901 
 O                     2.552    -2.16429   1.32251 
 H                     4.26012  -1.72625   0.30905 
 H                     3.1223   -2.7744   -0.58262 
 H                     2.64337   2.4132   -0.45299 
 H                     0.0855    2.45867   0.43388 
 H                     1.60547  -2.10342   1.13431 
 C                    -1.54064  -1.31397  -0.43447 
 N                    -2.82309  -1.63766  -0.25952 
 C                    -3.68545  -0.62875   0.0483 
 N                    -3.14177   0.66528   0.15279 
 C                    -1.8269    1.02736  -0.00463 
 H                    -0.88339  -2.14928  -0.69555 
 H                    -3.79287   1.40183   0.39105 
 O                    -4.89739  -0.76073   0.24087 
 O                    -1.49847   2.23692   0.13967 
 

 GradGradGradGradGradGradGradGradGradGradGradGradGradGradGradGradGradGrad
 Berny optimization.
 Initialization pass.
                           ----------------------------
                           !    Initial Parameters    !
                           ! (Angstroms and Degrees)  !
 --------------------------                            --------------------------
 ! Name  Definition              Value          Derivative Info.                !
 --------------------------------------------------------------------------------
 ! R1    R(1,2)                  1.5355         estimate D2E/DX2                !
 ! R2    R(1,9)                  1.5371         estimate D2E/DX2                !
 ! R3    R(1,10)                 1.1019         estimate D2E/DX2                !
 ! R4    R(1,11)                 1.4143         estimate D2E/DX2                !
 ! R5    R(2,3)                  1.5375         estimate D2E/DX2                !
 ! R6    R(2,4)                  1.401          estimate D2E/DX2                !
 ! R7    R(2,5)                  1.1041         estimate D2E/DX2                !
 ! R8    R(3,6)                  1.4254         estimate D2E/DX2                !
 ! R9    R(3,7)                  1.1089         estimate D2E/DX2                !
 ! R10   R(3,8)                  1.4975         estimate D2E/DX2                !
 ! R11   R(4,18)                 1.0001         estimate D2E/DX2                !
 ! R12   R(6,9)                  1.4307         estimate D2E/DX2                !
 ! R13   R(8,20)                 1.3909         estimate D2E/DX2                !
 ! R14   R(8,24)                 1.4222         estimate D2E/DX2                !
 ! R15   R(9,12)                 1.5162         estimate D2E/DX2                !
 ! R16   R(9,13)                 1.1034         estimate D2E/DX2                !
 ! R17   R(11,17)                0.9735         estimate D2E/DX2                !
 ! R18   R(12,14)                1.4134         estimate D2E/DX2                !
 ! R19   R(12,15)                1.099          estimate D2E/DX2                !
 ! R20   R(12,16)                1.1051         estimate D2E/DX2                !
 ! R21   R(14,19)                0.967          estimate D2E/DX2                !
 ! R22   R(20,21)                1.3342         estimate D2E/DX2                !
 ! R23   R(20,25)                1.0945         estimate D2E/DX2                !
 ! R24   R(21,22)                1.3625         estimate D2E/DX2                !
 ! R25   R(22,23)                1.4075         estimate D2E/DX2                !
 ! R26   R(22,27)                1.2342         estimate D2E/DX2                !
 ! R27   R(23,24)                1.3729         estimate D2E/DX2                !
 ! R28   R(23,26)                1.0115         estimate D2E/DX2                !
 ! R29   R(24,28)                1.2616         estimate D2E/DX2                !
 ! A1    A(2,1,9)              103.2727         estimate D2E/DX2                !
 ! A2    A(2,1,10)             111.7132         estimate D2E/DX2                !
 ! A3    A(2,1,11)             109.88           estimate D2E/DX2                !
 ! A4    A(9,1,10)             111.2548         estimate D2E/DX2                !
 ! A5    A(9,1,11)             110.516          estimate D2E/DX2                !
 ! A6    A(10,1,11)            110.0373         estimate D2E/DX2                !
 ! A7    A(1,2,3)              101.9839         estimate D2E/DX2                !
 ! A8    A(1,2,4)              109.8311         estimate D2E/DX2                !
 ! A9    A(1,2,5)              109.7298         estimate D2E/DX2                !
 ! A10   A(3,2,4)              114.4475         estimate D2E/DX2                !
 ! A11   A(3,2,5)              108.4629         estimate D2E/DX2                !
 ! A12   A(4,2,5)              111.8996         estimate D2E/DX2                !
 ! A13   A(2,3,6)              103.2179         estimate D2E/DX2                !
 ! A14   A(2,3,7)              106.7403         estimate D2E/DX2                !
 ! A15   A(2,3,8)              116.2138         estimate D2E/DX2                !
 ! A16   A(6,3,7)              109.2899         estimate D2E/DX2                !
 ! A17   A(6,3,8)              110.7585         estimate D2E/DX2                !
 ! A18   A(7,3,8)              110.2395         estimate D2E/DX2                !
 ! A19   A(2,4,18)             105.1722         estimate D2E/DX2                !
 ! A20   A(3,6,9)              108.5291         estimate D2E/DX2                !
 ! A21   A(3,8,20)             124.455          estimate D2E/DX2                !
 ! A22   A(3,8,24)             118.5524         estimate D2E/DX2                !
 ! A23   A(20,8,24)            116.9255         estimate D2E/DX2                !
 ! A24   A(1,9,6)              107.2495         estimate D2E/DX2                !
 ! A25   A(1,9,12)             115.2458         estimate D2E/DX2                !
 ! A26   A(1,9,13)             107.9861         estimate D2E/DX2                !
 ! A27   A(6,9,12)             106.2994         estimate D2E/DX2                !
 ! A28   A(6,9,13)             110.156          estimate D2E/DX2                !
 ! A29   A(12,9,13)            109.8265         estimate D2E/DX2                !
 ! A30   A(1,11,17)            103.6209         estimate D2E/DX2                !
 ! A31   A(9,12,14)            111.6456         estimate D2E/DX2                !
 ! A32   A(9,12,15)            109.7136         estimate D2E/DX2                !
 ! A33   A(9,12,16)            108.9758         estimate D2E/DX2                !
 ! A34   A(14,12,15)           107.4399         estimate D2E/DX2                !
 ! A35   A(14,12,16)           110.779          estimate D2E/DX2                !
 ! A36   A(15,12,16)           108.2162         estimate D2E/DX2                !
 ! A37   A(12,14,19)           105.4149         estimate D2E/DX2                !
 ! A38   A(8,20,21)            127.5876         estimate D2E/DX2                !
 ! A39   A(8,20,25)            117.3665         estimate D2E/DX2                !
 ! A40   A(21,20,25)           115.0457         estimate D2E/DX2                !
 ! A41   A(20,21,22)           117.2813         estimate D2E/DX2                !
 ! A42   A(21,22,23)           116.9423         estimate D2E/DX2                !
 ! A43   A(21,22,27)           125.2802         estimate D2E/DX2                !
 ! A44   A(23,22,27)           117.7775         estimate D2E/DX2                !
 ! A45   A(22,23,24)           127.1519         estimate D2E/DX2                !
 ! A46   A(22,23,26)           115.9954         estimate D2E/DX2                !
 ! A47   A(24,23,26)           116.8366         estimate D2E/DX2                !
 ! A48   A(8,24,23)            114.1015         estimate D2E/DX2                !
 ! A49   A(8,24,28)            126.6189         estimate D2E/DX2                !
 ! A50   A(23,24,28)           119.2795         estimate D2E/DX2                !
 ! D1    D(9,1,2,3)            -27.3078         estimate D2E/DX2                !
 ! D2    D(9,1,2,4)           -149.0638         estimate D2E/DX2                !
 ! D3    D(9,1,2,5)             87.5307         estimate D2E/DX2                !
 ! D4    D(10,1,2,3)          -146.9672         estimate D2E/DX2                !
 ! D5    D(10,1,2,4)            91.2768         estimate D2E/DX2                !
 ! D6    D(10,1,2,5)           -32.1287         estimate D2E/DX2                !
 ! D7    D(11,1,2,3)            90.6098         estimate D2E/DX2                !
 ! D8    D(11,1,2,4)           -31.1461         estimate D2E/DX2                !
 ! D9    D(11,1,2,5)          -154.5516         estimate D2E/DX2                !
 ! D10   D(2,1,9,6)              6.6957         estimate D2E/DX2                !
 ! D11   D(2,1,9,12)          -111.4242         estimate D2E/DX2                !
 ! D12   D(2,1,9,13)           125.3908         estimate D2E/DX2                !
 ! D13   D(10,1,9,6)           126.67           estimate D2E/DX2                !
 ! D14   D(10,1,9,12)            8.55           estimate D2E/DX2                !
 ! D15   D(10,1,9,13)         -114.635          estimate D2E/DX2                !
 ! D16   D(11,1,9,6)          -110.7761         estimate D2E/DX2                !
 ! D17   D(11,1,9,12)          131.1039         estimate D2E/DX2                !
 ! D18   D(11,1,9,13)            7.9189         estimate D2E/DX2                !
 ! D19   D(2,1,11,17)           21.5781         estimate D2E/DX2                !
 ! D20   D(9,1,11,17)          134.9052         estimate D2E/DX2                !
 ! D21   D(10,1,11,17)        -101.8321         estimate D2E/DX2                !
 ! D22   D(1,2,3,6)             39.2045         estimate D2E/DX2                !
 ! D23   D(1,2,3,7)            -75.9462         estimate D2E/DX2                !
 ! D24   D(1,2,3,8)            160.6345         estimate D2E/DX2                !
 ! D25   D(4,2,3,6)            157.7244         estimate D2E/DX2                !
 ! D26   D(4,2,3,7)             42.5737         estimate D2E/DX2                !
 ! D27   D(4,2,3,8)            -80.8456         estimate D2E/DX2                !
 ! D28   D(5,2,3,6)            -76.5618         estimate D2E/DX2                !
 ! D29   D(5,2,3,7)            168.2874         estimate D2E/DX2                !
 ! D30   D(5,2,3,8)             44.8681         estimate D2E/DX2                !
 ! D31   D(1,2,4,18)           154.6499         estimate D2E/DX2                !
 ! D32   D(3,2,4,18)            40.6698         estimate D2E/DX2                !
 ! D33   D(5,2,4,18)           -83.2264         estimate D2E/DX2                !
 ! D34   D(2,3,6,9)            -36.6743         estimate D2E/DX2                !
 ! D35   D(7,3,6,9)             76.6339         estimate D2E/DX2                !
 ! D36   D(8,3,6,9)           -161.7228         estimate D2E/DX2                !
 ! D37   D(2,3,8,20)          -125.1229         estimate D2E/DX2                !
 ! D38   D(2,3,8,24)            57.9541         estimate D2E/DX2                !
 ! D39   D(6,3,8,20)            -7.7885         estimate D2E/DX2                !
 ! D40   D(6,3,8,24)           175.2885         estimate D2E/DX2                !
 ! D41   D(7,3,8,20)           113.2949         estimate D2E/DX2                !
 ! D42   D(7,3,8,24)           -63.6281         estimate D2E/DX2                !
 ! D43   D(3,6,9,1)             18.9561         estimate D2E/DX2                !
 ! D44   D(3,6,9,12)           142.7413         estimate D2E/DX2                !
 ! D45   D(3,6,9,13)           -98.3274         estimate D2E/DX2                !
 ! D46   D(3,8,20,21)         -177.6847         estimate D2E/DX2                !
 ! D47   D(3,8,20,25)            2.1691         estimate D2E/DX2                !
 ! D48   D(24,8,20,21)          -0.7161         estimate D2E/DX2                !
 ! D49   D(24,8,20,25)         179.1377         estimate D2E/DX2                !
 ! D50   D(3,8,24,23)          177.0159         estimate D2E/DX2                !
 ! D51   D(3,8,24,28)           -2.9442         estimate D2E/DX2                !
 ! D52   D(20,8,24,23)          -0.1386         estimate D2E/DX2                !
 ! D53   D(20,8,24,28)         179.9013         estimate D2E/DX2                !
 ! D54   D(1,9,12,14)           60.632          estimate D2E/DX2                !
 ! D55   D(1,9,12,15)          -58.3619         estimate D2E/DX2                !
 ! D56   D(1,9,12,16)         -176.6795         estimate D2E/DX2                !
 ! D57   D(6,9,12,14)          -58.018          estimate D2E/DX2                !
 ! D58   D(6,9,12,15)         -177.0119         estimate D2E/DX2                !
 ! D59   D(6,9,12,16)           64.6705         estimate D2E/DX2                !
 ! D60   D(13,9,12,14)        -177.1652         estimate D2E/DX2                !
 ! D61   D(13,9,12,15)          63.8409         estimate D2E/DX2                !
 ! D62   D(13,9,12,16)         -54.4767         estimate D2E/DX2                !
 ! D63   D(9,12,14,19)          46.4282         estimate D2E/DX2                !
 ! D64   D(15,12,14,19)        166.7639         estimate D2E/DX2                !
 ! D65   D(16,12,14,19)        -75.2238         estimate D2E/DX2                !
 ! D66   D(8,20,21,22)           0.7678         estimate D2E/DX2                !
 ! D67   D(25,20,21,22)       -179.089          estimate D2E/DX2                !
 ! D68   D(20,21,22,23)          0.0316         estimate D2E/DX2                !
 ! D69   D(20,21,22,27)       -179.985          estimate D2E/DX2                !
 ! D70   D(21,22,23,24)         -0.9163         estimate D2E/DX2                !
 ! D71   D(21,22,23,26)       -179.402          estimate D2E/DX2                !
 ! D72   D(27,22,23,24)        179.0991         estimate D2E/DX2                !
 ! D73   D(27,22,23,26)          0.6134         estimate D2E/DX2                !
 ! D74   D(22,23,24,8)           0.941          estimate D2E/DX2                !
 ! D75   D(22,23,24,28)       -179.0958         estimate D2E/DX2                !
 ! D76   D(26,23,24,8)         179.4156         estimate D2E/DX2                !
 ! D77   D(26,23,24,28)         -0.6212         estimate D2E/DX2                !
 --------------------------------------------------------------------------------
 Trust Radius=3.00D-01 FncErr=1.00D-07 GrdErr=1.00D-06 EigMax=2.50D+02 EigMin=1.00D-04
 Number of steps in this run=    166 maximum allowed number of steps=    168.
 GradGradGradGradGradGradGradGradGradGradGradGradGradGradGradGradGradGrad

                          Input orientation:                          
 ---------------------------------------------------------------------
 Center     Atomic      Atomic             Coordinates (Angstroms)
 Number     Number       Type             X           Y           Z
 ---------------------------------------------------------------------
      1          6           0        2.710856    0.627987    0.183195
      2          6           0        1.251640    0.934422    0.549914
      3          6           0        0.484083    0.238839   -0.586322
      4          8           0        1.059190    2.320611    0.615941
      5          1           0        0.994133    0.437125    1.501455
      6          8           0        1.216734   -0.967900   -0.783554
      7          1           0        0.589354    0.882093   -1.483433
      8          6           0       -0.961130   -0.054247   -0.325711
      9          6           0        2.608312   -0.689914   -0.601154
     10          1           0        3.340614    0.511250    1.079784
     11          8           0        3.225880    1.656061   -0.640220
     12          6           0        3.197182   -1.902746    0.092473
     13          1           0        3.098151   -0.543450   -1.579009
     14          8           0        2.551996   -2.164290    1.322505
     15          1           0        4.260121   -1.726247    0.309054
     16          1           0        3.122296   -2.774404   -0.582620
     17          1           0        2.643368    2.413203   -0.452991
     18          1           0        0.085496    2.458665    0.433877
     19          1           0        1.605465   -2.103420    1.134308
     20          6           0       -1.540636   -1.313966   -0.434466
     21          7           0       -2.823093   -1.637664   -0.259519
     22          6           0       -3.685451   -0.628750    0.048301
     23          7           0       -3.141769    0.665280    0.152785
     24          6           0       -1.826902    1.027363   -0.004629
     25          1           0       -0.883385   -2.149275   -0.695554
     26          1           0       -3.792873    1.401830    0.391045
     27          8           0       -4.897389   -0.760732    0.240865
     28          8           0       -1.498465    2.236923    0.139666
 ---------------------------------------------------------------------
                    Distance matrix (angstroms):
                    1          2          3          4          5
     1  C    0.000000
     2  C    1.535479   0.000000
     3  C    2.387909   1.537534   0.000000
     4  O    2.404214   1.401041   2.471833   0.000000
     5  H    2.172873   1.104103   2.158305   2.082279   0.000000
     6  O    2.390368   2.323399   1.425446   3.577389   2.691638
     7  H    2.709795   2.139126   1.108903   2.587943   3.044897
     8  C    3.769338   2.576924   1.497484   3.257047   2.720852
     9  C    1.537069   2.409146   2.318437   3.597827   2.880409
    10  H    1.101860   2.196281   3.318115   2.948531   2.385220
    11  O    1.414284   2.415534   3.086887   2.591160   3.324646
    12  C    2.578634   3.470433   3.522507   4.762538   3.509081
    13  H    2.151192   3.182141   2.903576   4.144637   3.857159
    14  O    3.019946   3.448165   3.700664   4.779335   3.037486
    15  H    2.821078   4.023448   4.349911   5.168868   4.094957
    16  H    3.511698   4.305505   4.004974   5.626023   4.380224
    17  H    1.896387   2.264844   3.067270   1.913324   3.231829
    18  H    3.210411   1.922673   2.475339   1.000143   2.460075
    19  H    3.096303   3.113710   3.115163   4.487669   2.638729
    20  C    4.714644   3.717668   2.556120   4.590490   3.638566
    21  N    5.996146   4.886129   3.816474   5.613064   4.687963
    22  C    6.519994   5.202883   4.305865   5.615386   5.014604
    23  N    5.852823   4.419524   3.724907   4.539019   4.356220
    24  C    4.559170   3.129469   2.510137   3.222906   3.251908
    25  H    4.626441   3.952051   2.754086   5.047128   3.878323
    26  H    6.552902   5.068611   4.538738   4.943405   5.007903
    27  O    7.734162   6.385892   5.535668   6.716859   6.142799
    28  O    4.506546   3.070487   2.906870   2.602968   3.362557
                    6          7          8          9         10
     6  O    0.000000
     7  H    2.075069   0.000000
     8  C    2.405717   2.149664   0.000000
     9  C    1.430746   2.706624   3.636050   0.000000
    10  H    3.189166   3.778497   4.560724   2.191943   0.000000
    11  O    3.307927   2.874248   4.533776   2.426214   2.069340
    12  C    2.358715   4.127902   4.569834   1.516195   2.612036
    13  H    2.086297   2.887104   4.276428   1.103447   2.870603
    14  O    2.765820   4.583198   4.417120   2.424339   2.799883
    15  H    3.321308   4.846749   5.519055   2.151961   2.538880
    16  H    2.633438   4.538417   4.913209   2.147003   3.688736
    17  H    3.684619   2.761355   4.370002   3.106850   2.540271
    18  H    3.808305   2.532890   2.826150   4.165266   3.847780
    19  H    2.262457   4.098577   3.594186   2.452658   3.138505
    20  C    2.800842   3.234171   1.390880   4.198928   5.426875
    21  N    4.128365   4.414967   2.445097   5.524048   6.663546
    22  C    4.983816   4.785688   2.809246   6.327479   7.192298
    23  N    4.747690   4.079889   2.345605   5.955536   6.550141
    24  C    3.721763   2.836593   1.422159   4.793329   5.305238
    25  H    2.411201   3.461056   2.128843   3.785577   5.298338
    26  H    5.664933   4.794550   3.263842   6.806983   7.221782
    27  O    6.202810   5.981340   4.039092   7.553116   8.377733
    28  O    4.300643   2.971364   2.398909   5.097137   5.222878
                   11         12         13         14         15
    11  O    0.000000
    12  C    3.633562   0.000000
    13  H    2.394888   2.156698   0.000000
    14  O    4.347584   1.413382   3.368114   0.000000
    15  H    3.662074   1.099044   2.512760   2.033877   0.000000
    16  H    4.432050   1.105055   2.443467   2.080140   1.785598
    17  H    0.973467   4.385391   3.196332   4.910619   4.508841
    18  H    3.414655   5.368524   4.705369   5.314602   5.912408
    19  H    4.461882   1.912917   3.467522   0.966977   2.805442
    20  C    5.619882   4.803254   4.839630   4.534273   5.862728
    21  N    6.898089   6.036380   6.164373   5.627763   7.106549
    22  C    7.311697   6.999690   6.976580   6.548834   8.025248
    23  N    6.492877   6.839641   6.587620   6.464802   7.780218
    24  C    5.131261   5.816905   5.403913   5.578771   6.688244
    25  H    5.600866   4.163267   4.383126   3.984298   5.257741
    26  H    7.098664   7.737586   7.426401   7.337724   8.639578
    27  O    8.520839   8.176081   8.202915   7.657236   9.208521
    28  O    4.823387   6.260047   5.640319   6.097214   6.992619
                   16         17         18         19         20
    16  H    0.000000
    17  H    5.211280   0.000000
    18  H    6.135180   2.707639   0.000000
    19  H    2.387224   4.898637   4.859375   0.000000
    20  C    4.888534   5.603394   4.198937   3.603088   0.000000
    21  N    6.061701   6.806552   5.071548   4.666027   1.334197
    22  C    7.165704   7.039796   4.888849   5.598916   2.302784
    23  N    7.184063   6.073715   3.702767   5.582591   2.612643
    24  C    6.267541   4.701584   2.428617   4.783317   2.397609
    25  H    4.055739   5.771744   4.842257   3.089478   1.094480
    26  H    8.136862   6.569663   4.020010   6.479296   3.623477
    27  O    8.309534   8.210866   5.935563   6.699863   3.468419
    28  O    6.854672   4.187732   1.626242   5.427916   3.597252
                   21         22         23         24         25
    21  N    0.000000
    22  C    1.362469   0.000000
    23  N    2.361165   1.407487   0.000000
    24  C    2.856525   2.489923   1.372865   0.000000
    25  H    2.052886   3.273666   3.706980   3.385060   0.000000
    26  H    3.256107   2.062103   1.011539   2.040055   4.717644
    27  O    2.306967   1.234218   2.263508   3.561663   4.349386
    28  O    4.114172   3.606014   2.273913   1.261637   4.507177
                   26         27         28
    26  H    0.000000
    27  O    2.432937   0.000000
    28  O    2.454563   4.533085   0.000000
 Stoichiometry    C9H11N2O6(2)
 Framework group  C1[X(C9H11N2O6)]
 Deg. of freedom    78
 Full point group                 C1      NOp   1
 Largest Abelian subgroup         C1      NOp   1
 Largest concise Abelian subgroup C1      NOp   1
                         Standard orientation:                         
 ---------------------------------------------------------------------
 Center     Atomic      Atomic             Coordinates (Angstroms)
 Number     Number       Type             X           Y           Z
 ---------------------------------------------------------------------
      1          6           0        2.710856    0.627987    0.183195
      2          6           0        1.251640    0.934422    0.549914
      3          6           0        0.484083    0.238839   -0.586322
      4          8           0        1.059190    2.320611    0.615941
      5          1           0        0.994133    0.437125    1.501455
      6          8           0        1.216734   -0.967900   -0.783554
      7          1           0        0.589354    0.882093   -1.483433
      8          6           0       -0.961130   -0.054247   -0.325711
      9          6           0        2.608312   -0.689914   -0.601154
     10          1           0        3.340614    0.511250    1.079784
     11          8           0        3.225880    1.656061   -0.640220
     12          6           0        3.197182   -1.902746    0.092473
     13          1           0        3.098151   -0.543450   -1.579009
     14          8           0        2.551996   -2.164290    1.322505
     15          1           0        4.260121   -1.726247    0.309054
     16          1           0        3.122296   -2.774404   -0.582620
     17          1           0        2.643368    2.413203   -0.452991
     18          1           0        0.085496    2.458665    0.433877
     19          1           0        1.605465   -2.103420    1.134308
     20          6           0       -1.540636   -1.313966   -0.434466
     21          7           0       -2.823093   -1.637664   -0.259519
     22          6           0       -3.685451   -0.628750    0.048301
     23          7           0       -3.141769    0.665280    0.152785
     24          6           0       -1.826902    1.027363   -0.004629
     25          1           0       -0.883385   -2.149275   -0.695554
     26          1           0       -3.792873    1.401830    0.391045
     27          8           0       -4.897389   -0.760732    0.240865
     28          8           0       -1.498465    2.236923    0.139666
 ---------------------------------------------------------------------
 Rotational constants (GHZ):           0.8845257           0.2985192           0.2401723
 Standard basis: Aug-CC-pVDZ (5D, 7F)
 There are   524 symmetry adapted cartesian basis functions of A   symmetry.
 There are   490 symmetry adapted basis functions of A   symmetry.
   490 basis functions,   852 primitive gaussians,   524 cartesian basis functions
    64 alpha electrons       63 beta electrons
       nuclear repulsion energy      1293.1117300669 Hartrees.
 NAtoms=   28 NActive=   28 NUniq=   28 SFac= 1.00D+00 NAtFMM=   60 NAOKFM=F Big=F
 Integral buffers will be    131072 words long.
 Raffenetti 2 integral format.
 Two-electron integral symmetry is turned on.
 Nuclear repulsion after empirical dispersion term =     1293.0925767943 Hartrees.
 One-electron integrals computed using PRISM.
 NBasis=   490 RedAO= T EigKep=  3.04D-06  NBF=   490
 NBsUse=   490 1.00D-06 EigRej= -1.00D+00 NBFU=   490
 ExpMin= 2.97D-02 ExpMax= 1.17D+04 ExpMxC= 4.01D+02 IAcc=3 IRadAn=         5 AccDes= 0.00D+00
 Harris functional with IExCor= 1009 and IRadAn=       5 diagonalized for initial guess.
 HarFok:  IExCor= 1009 AccDes= 0.00D+00 IRadAn=         5 IDoV= 1 UseB2=F ITyADJ=14
 ICtDFT=  3500011 ScaDFX=  1.000000  1.000000  1.000000  1.000000
 FoFCou: FMM=F IPFlag=           0 FMFlag=      100000 FMFlg1=           0
         NFxFlg=           0 DoJE=T BraDBF=F KetDBF=T FulRan=T
         wScrn=  0.000000 ICntrl=       500 IOpCl=  0 I1Cent=   200000004 NGrid=           0
         NMat0=    1 NMatS0=      1 NMatT0=    0 NMatD0=    1 NMtDS0=    0 NMtDT0=    0
 Petite list used in FoFCou.
 Initial guess <Sx>= 0.0000 <Sy>= 0.0000 <Sz>= 0.5000 <S**2>= 0.7500 S= 0.5000
 Requested convergence on RMS density matrix=1.00D-08 within 128 cycles.
 Requested convergence on MAX density matrix=1.00D-06.
 Requested convergence on             energy=1.00D-06.
 No special actions if energy rises.
 SCF Done:  E(UPBE1PBE) =  -909.559132861     A.U. after   20 cycles
            NFock= 20  Conv=0.87D-08     -V/T= 2.0054
 <Sx>= 0.0000 <Sy>= 0.0000 <Sz>= 0.5000 <S**2>= 0.7836 S= 0.5166
 <L.S>= 0.000000000000E+00
 Annihilation of the first spin contaminant:
 S**2 before annihilation     0.7836,   after     0.7507

 **********************************************************************

            Population analysis using the SCF Density.

 **********************************************************************

 Orbital symmetries:
 Alpha Orbitals:
       Occupied  (A) (A) (A) (A) (A) (A) (A) (A) (A) (A) (A) (A)
                 (A) (A) (A) (A) (A) (A) (A) (A) (A) (A) (A) (A)
                 (A) (A) (A) (A) (A) (A) (A) (A) (A) (A) (A) (A)
                 (A) (A) (A) (A) (A) (A) (A) (A) (A) (A) (A) (A)
                 (A) (A) (A) (A) (A) (A) (A) (A) (A) (A) (A) (A)
                 (A) (A) (A) (A)
       Virtual   (A) (A) (A) (A) (A) (A) (A) (A) (A) (A) (A) (A)
                 (A) (A) (A) (A) (A) (A) (A) (A) (A) (A) (A) (A)
                 (A) (A) (A) (A) (A) (A) (A) (A) (A) (A) (A) (A)
                 (A) (A) (A) (A) (A) (A) (A) (A) (A) (A) (A) (A)
                 (A) (A) (A) (A) (A) (A) (A) (A) (A) (A) (A) (A)
                 (A) (A) (A) (A) (A) (A) (A) (A) (A) (A) (A) (A)
                 (A) (A) (A) (A) (A) (A) (A) (A) (A) (A) (A) (A)
                 (A) (A) (A) (A) (A) (A) (A) (A) (A) (A) (A) (A)
                 (A) (A) (A) (A) (A) (A) (A) (A) (A) (A) (A) (A)
                 (A) (A) (A) (A) (A) (A) (A) (A) (A) (A) (A) (A)
                 (A) (A) (A) (A) (A) (A) (A) (A) (A) (A) (A) (A)
                 (A) (A) (A) (A) (A) (A) (A) (A) (A) (A) (A) (A)
                 (A) (A) (A) (A) (A) (A) (A) (A) (A) (A) (A) (A)
                 (A) (A) (A) (A) (A) (A) (A) (A) (A) (A) (A) (A)
                 (A) (A) (A) (A) (A) (A) (A) (A) (A) (A) (A) (A)
                 (A) (A) (A) (A) (A) (A) (A) (A) (A) (A) (A) (A)
                 (A) (A) (A) (A) (A) (A) (A) (A) (A) (A) (A) (A)
                 (A) (A) (A) (A) (A) (A) (A) (A) (A) (A) (A) (A)
                 (A) (A) (A) (A) (A) (A) (A) (A) (A) (A) (A) (A)
                 (A) (A) (A) (A) (A) (A) (A) (A) (A) (A) (A) (A)
                 (A) (A) (A) (A) (A) (A) (A) (A) (A) (A) (A) (A)
                 (A) (A) (A) (A) (A) (A) (A) (A) (A) (A) (A) (A)
                 (A) (A) (A) (A) (A) (A) (A) (A) (A) (A) (A) (A)
                 (A) (A) (A) (A) (A) (A) (A) (A) (A) (A) (A) (A)
                 (A) (A) (A) (A) (A) (A) (A) (A) (A) (A) (A) (A)
                 (A) (A) (A) (A) (A) (A) (A) (A) (A) (A) (A) (A)
                 (A) (A) (A) (A) (A) (A) (A) (A) (A) (A) (A) (A)
                 (A) (A) (A) (A) (A) (A) (A) (A) (A) (A) (A) (A)
                 (A) (A) (A) (A) (A) (A) (A) (A) (A) (A) (A) (A)
                 (A) (A) (A) (A) (A) (A) (A) (A) (A) (A) (A) (A)
                 (A) (A) (A) (A) (A) (A) (A) (A) (A) (A) (A) (A)
                 (A) (A) (A) (A) (A) (A) (A) (A) (A) (A) (A) (A)
                 (A) (A) (A) (A) (A) (A) (A) (A) (A) (A) (A) (A)
                 (A) (A) (A) (A) (A) (A) (A) (A) (A) (A) (A) (A)
                 (A) (A) (A) (A) (A) (A) (A) (A) (A) (A) (A) (A)
                 (A) (A) (A) (A) (A) (A)
 Beta  Orbitals:
       Occupied  (A) (A) (A) (A) (A) (A) (A) (A) (A) (A) (A) (A)
                 (A) (A) (A) (A) (A) (A) (A) (A) (A) (A) (A) (A)
                 (A) (A) (A) (A) (A) (A) (A) (A) (A) (A) (A) (A)
                 (A) (A) (A) (A) (A) (A) (A) (A) (A) (A) (A) (A)
                 (A) (A) (A) (A) (A) (A) (A) (A) (A) (A) (A) (A)
                 (A) (A) (A)
       Virtual   (A) (A) (A) (A) (A) (A) (A) (A) (A) (A) (A) (A)
                 (A) (A) (A) (A) (A) (A) (A) (A) (A) (A) (A) (A)
                 (A) (A) (A) (A) (A) (A) (A) (A) (A) (A) (A) (A)
                 (A) (A) (A) (A) (A) (A) (A) (A) (A) (A) (A) (A)
                 (A) (A) (A) (A) (A) (A) (A) (A) (A) (A) (A) (A)
                 (A) (A) (A) (A) (A) (A) (A) (A) (A) (A) (A) (A)
                 (A) (A) (A) (A) (A) (A) (A) (A) (A) (A) (A) (A)
                 (A) (A) (A) (A) (A) (A) (A) (A) (A) (A) (A) (A)
                 (A) (A) (A) (A) (A) (A) (A) (A) (A) (A) (A) (A)
                 (A) (A) (A) (A) (A) (A) (A) (A) (A) (A) (A) (A)
                 (A) (A) (A) (A) (A) (A) (A) (A) (A) (A) (A) (A)
                 (A) (A) (A) (A) (A) (A) (A) (A) (A) (A) (A) (A)
                 (A) (A) (A) (A) (A) (A) (A) (A) (A) (A) (A) (A)
                 (A) (A) (A) (A) (A) (A) (A) (A) (A) (A) (A) (A)
                 (A) (A) (A) (A) (A) (A) (A) (A) (A) (A) (A) (A)
                 (A) (A) (A) (A) (A) (A) (A) (A) (A) (A) (A) (A)
                 (A) (A) (A) (A) (A) (A) (A) (A) (A) (A) (A) (A)
                 (A) (A) (A) (A) (A) (A) (A) (A) (A) (A) (A) (A)
                 (A) (A) (A) (A) (A) (A) (A) (A) (A) (A) (A) (A)
                 (A) (A) (A) (A) (A) (A) (A) (A) (A) (A) (A) (A)
                 (A) (A) (A) (A) (A) (A) (A) (A) (A) (A) (A) (A)
                 (A) (A) (A) (A) (A) (A) (A) (A) (A) (A) (A) (A)
                 (A) (A) (A) (A) (A) (A) (A) (A) (A) (A) (A) (A)
                 (A) (A) (A) (A) (A) (A) (A) (A) (A) (A) (A) (A)
                 (A) (A) (A) (A) (A) (A) (A) (A) (A) (A) (A) (A)
                 (A) (A) (A) (A) (A) (A) (A) (A) (A) (A) (A) (A)
                 (A) (A) (A) (A) (A) (A) (A) (A) (A) (A) (A) (A)
                 (A) (A) (A) (A) (A) (A) (A) (A) (A) (A) (A) (A)
                 (A) (A) (A) (A) (A) (A) (A) (A) (A) (A) (A) (A)
                 (A) (A) (A) (A) (A) (A) (A) (A) (A) (A) (A) (A)
                 (A) (A) (A) (A) (A) (A) (A) (A) (A) (A) (A) (A)
                 (A) (A) (A) (A) (A) (A) (A) (A) (A) (A) (A) (A)
                 (A) (A) (A) (A) (A) (A) (A) (A) (A) (A) (A) (A)
                 (A) (A) (A) (A) (A) (A) (A) (A) (A) (A) (A) (A)
                 (A) (A) (A) (A) (A) (A) (A) (A) (A) (A) (A) (A)
                 (A) (A) (A) (A) (A) (A) (A)
 The electronic state is 2-A.
 Alpha  occ. eigenvalues --  -19.27849 -19.26599 -19.25872 -19.24429 -19.24205
 Alpha  occ. eigenvalues --  -19.23404 -14.49166 -14.46895 -10.40813 -10.40486
 Alpha  occ. eigenvalues --  -10.34240 -10.34189 -10.33727 -10.31998 -10.30701
 Alpha  occ. eigenvalues --  -10.30384 -10.29532  -1.14806  -1.13238  -1.12279
 Alpha  occ. eigenvalues --   -1.08967  -1.07183  -1.05714  -1.03943  -0.98435
 Alpha  occ. eigenvalues --   -0.89949  -0.81904  -0.80789  -0.74632  -0.72996
 Alpha  occ. eigenvalues --   -0.69817  -0.65955  -0.64242  -0.61673  -0.60247
 Alpha  occ. eigenvalues --   -0.58496  -0.56374  -0.54512  -0.54088  -0.53408
 Alpha  occ. eigenvalues --   -0.52965  -0.51623  -0.50542  -0.49027  -0.48675
 Alpha  occ. eigenvalues --   -0.47478  -0.47223  -0.45705  -0.43676  -0.43211
 Alpha  occ. eigenvalues --   -0.41986  -0.40971  -0.39758  -0.37303  -0.36512
 Alpha  occ. eigenvalues --   -0.36049  -0.35332  -0.34241  -0.33433  -0.32785
 Alpha  occ. eigenvalues --   -0.31925  -0.31144  -0.30489  -0.29417
 Alpha virt. eigenvalues --   -0.08449  -0.03889  -0.01563  -0.00425  -0.00035
 Alpha virt. eigenvalues --    0.00716   0.01160   0.02430   0.02653   0.03023
 Alpha virt. eigenvalues --    0.03472   0.03829   0.04991   0.05291   0.05685
 Alpha virt. eigenvalues --    0.06201   0.06659   0.07223   0.07540   0.08071
 Alpha virt. eigenvalues --    0.08281   0.08615   0.08816   0.09097   0.09521
 Alpha virt. eigenvalues --    0.09679   0.09924   0.10209   0.10346   0.10769
 Alpha virt. eigenvalues --    0.10837   0.11696   0.11865   0.12070   0.12536
 Alpha virt. eigenvalues --    0.12749   0.12902   0.13832   0.13920   0.14232
 Alpha virt. eigenvalues --    0.14862   0.15221   0.15680   0.15992   0.16320
 Alpha virt. eigenvalues --    0.16855   0.17311   0.17588   0.17836   0.17954
 Alpha virt. eigenvalues --    0.18498   0.18988   0.19314   0.20183   0.20620
 Alpha virt. eigenvalues --    0.20812   0.21041   0.21076   0.21657   0.21993
 Alpha virt. eigenvalues --    0.22555   0.22738   0.23061   0.23278   0.23740
 Alpha virt. eigenvalues --    0.23979   0.24183   0.24652   0.24819   0.24952
 Alpha virt. eigenvalues --    0.25228   0.25752   0.25998   0.26078   0.26600
 Alpha virt. eigenvalues --    0.26769   0.27515   0.27584   0.28176   0.28290
 Alpha virt. eigenvalues --    0.28764   0.29316   0.29423   0.29719   0.30616
 Alpha virt. eigenvalues --    0.31195   0.31277   0.31691   0.32118   0.32472
 Alpha virt. eigenvalues --    0.32542   0.33678   0.33845   0.34056   0.34302
 Alpha virt. eigenvalues --    0.34863   0.35229   0.35577   0.35701   0.36312
 Alpha virt. eigenvalues --    0.36723   0.37401   0.38103   0.38567   0.39232
 Alpha virt. eigenvalues --    0.39510   0.39842   0.40148   0.40525   0.40930
 Alpha virt. eigenvalues --    0.41607   0.42262   0.43235   0.43833   0.44406
 Alpha virt. eigenvalues --    0.44615   0.44981   0.46129   0.46538   0.46736
 Alpha virt. eigenvalues --    0.47242   0.48122   0.48259   0.49010   0.49338
 Alpha virt. eigenvalues --    0.50525   0.50975   0.51409   0.52229   0.52383
 Alpha virt. eigenvalues --    0.52946   0.53519   0.53794   0.54066   0.54914
 Alpha virt. eigenvalues --    0.55075   0.55494   0.56088   0.56613   0.57299
 Alpha virt. eigenvalues --    0.57646   0.58460   0.59000   0.59596   0.59873
 Alpha virt. eigenvalues --    0.60375   0.60839   0.61416   0.62338   0.62749
 Alpha virt. eigenvalues --    0.63370   0.64336   0.64891   0.65137   0.65198
 Alpha virt. eigenvalues --    0.65567   0.66180   0.66826   0.67851   0.68063
 Alpha virt. eigenvalues --    0.68670   0.69033   0.69247   0.69419   0.70081
 Alpha virt. eigenvalues --    0.70659   0.71022   0.72072   0.72411   0.73535
 Alpha virt. eigenvalues --    0.74027   0.74381   0.74544   0.75370   0.75747
 Alpha virt. eigenvalues --    0.76572   0.77371   0.78106   0.78454   0.79366
 Alpha virt. eigenvalues --    0.79710   0.80952   0.81216   0.82386   0.82896
 Alpha virt. eigenvalues --    0.83895   0.84197   0.84554   0.85774   0.86039
 Alpha virt. eigenvalues --    0.86859   0.87294   0.87743   0.88586   0.89831
 Alpha virt. eigenvalues --    0.90989   0.91570   0.92108   0.92705   0.93326
 Alpha virt. eigenvalues --    0.94409   0.95394   0.95570   0.96458   0.96943
 Alpha virt. eigenvalues --    0.97367   0.99428   0.99910   1.00775   1.01888
 Alpha virt. eigenvalues --    1.02462   1.03152   1.04150   1.04600   1.06020
 Alpha virt. eigenvalues --    1.07667   1.08357   1.09166   1.09721   1.10403
 Alpha virt. eigenvalues --    1.11366   1.12224   1.13065   1.13821   1.14463
 Alpha virt. eigenvalues --    1.15808   1.16820   1.17123   1.17860   1.18344
 Alpha virt. eigenvalues --    1.19648   1.20665   1.21644   1.22051   1.23074
 Alpha virt. eigenvalues --    1.23904   1.25126   1.25539   1.26114   1.27095
 Alpha virt. eigenvalues --    1.29268   1.29836   1.31627   1.32284   1.33261
 Alpha virt. eigenvalues --    1.33961   1.34728   1.36021   1.37107   1.37883
 Alpha virt. eigenvalues --    1.39316   1.40241   1.41937   1.42277   1.43369
 Alpha virt. eigenvalues --    1.44827   1.45254   1.46366   1.47781   1.48717
 Alpha virt. eigenvalues --    1.49895   1.50808   1.51684   1.52299   1.52330
 Alpha virt. eigenvalues --    1.53665   1.54241   1.54661   1.56249   1.56443
 Alpha virt. eigenvalues --    1.57523   1.58292   1.59423   1.59653   1.60795
 Alpha virt. eigenvalues --    1.61949   1.62615   1.64236   1.65069   1.65740
 Alpha virt. eigenvalues --    1.66720   1.68884   1.69757   1.70047   1.72146
 Alpha virt. eigenvalues --    1.72432   1.73575   1.74379   1.75657   1.76066
 Alpha virt. eigenvalues --    1.76825   1.77554   1.79040   1.80511   1.81297
 Alpha virt. eigenvalues --    1.82510   1.83476   1.83978   1.84421   1.84994
 Alpha virt. eigenvalues --    1.86157   1.88046   1.89557   1.89731   1.91239
 Alpha virt. eigenvalues --    1.92368   1.93353   1.93679   1.95254   1.96341
 Alpha virt. eigenvalues --    1.97530   1.98073   1.99554   2.00650   2.01463
 Alpha virt. eigenvalues --    2.02731   2.04131   2.04604   2.05206   2.07031
 Alpha virt. eigenvalues --    2.07711   2.08443   2.09499   2.10387   2.11028
 Alpha virt. eigenvalues --    2.12339   2.12817   2.14977   2.16086   2.17728
 Alpha virt. eigenvalues --    2.17838   2.18969   2.19552   2.21168   2.23963
 Alpha virt. eigenvalues --    2.25144   2.27443   2.28641   2.30161   2.31006
 Alpha virt. eigenvalues --    2.31623   2.34873   2.36118   2.36426   2.38270
 Alpha virt. eigenvalues --    2.38611   2.39149   2.40653   2.43254   2.43635
 Alpha virt. eigenvalues --    2.44655   2.46637   2.47221   2.47890   2.49029
 Alpha virt. eigenvalues --    2.50692   2.50946   2.52037   2.53859   2.56601
 Alpha virt. eigenvalues --    2.58519   2.59699   2.59953   2.60760   2.63531
 Alpha virt. eigenvalues --    2.65063   2.65392   2.68317   2.69960   2.71581
 Alpha virt. eigenvalues --    2.74018   2.76056   2.78971   2.80014   2.83743
 Alpha virt. eigenvalues --    2.85544   2.86361   2.89631   2.91252   2.92764
 Alpha virt. eigenvalues --    2.95790   2.97972   3.00785   3.06469   3.07693
 Alpha virt. eigenvalues --    3.17518   3.22094   3.24808   3.27673   3.32026
 Alpha virt. eigenvalues --    3.32214   3.34613   3.36907   3.38780   3.39451
 Alpha virt. eigenvalues --    3.41436   3.43432   3.44799   3.47075   3.48004
 Alpha virt. eigenvalues --    3.49346   3.50384   3.51367   3.53215   3.54363
 Alpha virt. eigenvalues --    3.54849   3.56733   3.58492   3.61203   3.62595
 Alpha virt. eigenvalues --    3.64363   3.65953   3.67591   3.72268   3.73174
 Alpha virt. eigenvalues --    3.77930   3.78181   3.82185   3.86196   3.92369
 Alpha virt. eigenvalues --    3.96843   4.00396   4.11459   4.20050   4.39572
 Alpha virt. eigenvalues --    4.76535
  Beta  occ. eigenvalues --  -19.27846 -19.26294 -19.25182 -19.24411 -19.24204
  Beta  occ. eigenvalues --  -19.23384 -14.49178 -14.46120 -10.40993 -10.40573
  Beta  occ. eigenvalues --  -10.34465 -10.34269 -10.32938 -10.31917 -10.30700
  Beta  occ. eigenvalues --  -10.30374 -10.29533  -1.14200  -1.13104  -1.11533
  Beta  occ. eigenvalues --   -1.08898  -1.07175  -1.05659  -1.02854  -0.97778
  Beta  occ. eigenvalues --   -0.88434  -0.81834  -0.80411  -0.74526  -0.72859
  Beta  occ. eigenvalues --   -0.69535  -0.65798  -0.64081  -0.61351  -0.59933
  Beta  occ. eigenvalues --   -0.58103  -0.56251  -0.54313  -0.53760  -0.52960
  Beta  occ. eigenvalues --   -0.52374  -0.51431  -0.50259  -0.48641  -0.48381
  Beta  occ. eigenvalues --   -0.47243  -0.45731  -0.44975  -0.43580  -0.42861
  Beta  occ. eigenvalues --   -0.41586  -0.39705  -0.38739  -0.37132  -0.36175
  Beta  occ. eigenvalues --   -0.35472  -0.33752  -0.33242  -0.32808  -0.32121
  Beta  occ. eigenvalues --   -0.31192  -0.31011  -0.29644
  Beta virt. eigenvalues --   -0.20572  -0.07319  -0.01945  -0.01358  -0.00413
  Beta virt. eigenvalues --    0.00018   0.00743   0.01231   0.02459   0.02675
  Beta virt. eigenvalues --    0.03054   0.03489   0.03853   0.05018   0.05360
  Beta virt. eigenvalues --    0.05776   0.06228   0.06838   0.07573   0.07804
  Beta virt. eigenvalues --    0.08185   0.08595   0.08674   0.08867   0.09294
  Beta virt. eigenvalues --    0.09683   0.09904   0.09975   0.10214   0.10402
  Beta virt. eigenvalues --    0.10799   0.10883   0.11722   0.11903   0.12106
  Beta virt. eigenvalues --    0.12621   0.12850   0.12933   0.13883   0.13988
  Beta virt. eigenvalues --    0.14295   0.14923   0.15309   0.15746   0.15999
  Beta virt. eigenvalues --    0.16363   0.16932   0.17343   0.17664   0.17954
  Beta virt. eigenvalues --    0.18075   0.18518   0.19026   0.19382   0.20383
  Beta virt. eigenvalues --    0.20752   0.20943   0.21106   0.21175   0.21763
  Beta virt. eigenvalues --    0.22127   0.22655   0.22820   0.23245   0.23345
  Beta virt. eigenvalues --    0.23783   0.24070   0.24298   0.24643   0.24862
  Beta virt. eigenvalues --    0.25030   0.25413   0.25917   0.26074   0.26277
  Beta virt. eigenvalues --    0.26647   0.26947   0.27601   0.27740   0.28218
  Beta virt. eigenvalues --    0.28435   0.28846   0.29357   0.29568   0.29804
  Beta virt. eigenvalues --    0.30677   0.31296   0.31376   0.31765   0.32197
  Beta virt. eigenvalues --    0.32522   0.32592   0.33759   0.33922   0.34199
  Beta virt. eigenvalues --    0.34432   0.34930   0.35358   0.35645   0.35767
  Beta virt. eigenvalues --    0.36447   0.36831   0.37578   0.38202   0.38738
  Beta virt. eigenvalues --    0.39290   0.39613   0.39952   0.40227   0.40602
  Beta virt. eigenvalues --    0.41039   0.41692   0.42377   0.43340   0.44029
  Beta virt. eigenvalues --    0.44493   0.44731   0.45203   0.46228   0.46609
  Beta virt. eigenvalues --    0.46837   0.47329   0.48235   0.48412   0.49081
  Beta virt. eigenvalues --    0.49346   0.50579   0.51117   0.51588   0.52320
  Beta virt. eigenvalues --    0.52506   0.53123   0.53642   0.53892   0.54236
  Beta virt. eigenvalues --    0.55051   0.55107   0.55601   0.56176   0.56692
  Beta virt. eigenvalues --    0.57500   0.57735   0.58664   0.59158   0.59677
  Beta virt. eigenvalues --    0.60163   0.60511   0.61054   0.61684   0.62504
  Beta virt. eigenvalues --    0.62906   0.63448   0.64378   0.64941   0.65232
  Beta virt. eigenvalues --    0.65285   0.65650   0.66307   0.66907   0.67920
  Beta virt. eigenvalues --    0.68200   0.68782   0.69095   0.69347   0.69723
  Beta virt. eigenvalues --    0.70208   0.70746   0.71182   0.72148   0.72562
  Beta virt. eigenvalues --    0.73602   0.74149   0.74450   0.74693   0.75447
  Beta virt. eigenvalues --    0.75918   0.76711   0.77469   0.78285   0.78580
  Beta virt. eigenvalues --    0.79466   0.79823   0.81073   0.81323   0.82619
  Beta virt. eigenvalues --    0.83118   0.83947   0.84249   0.84728   0.85846
  Beta virt. eigenvalues --    0.86179   0.87012   0.87376   0.87847   0.88748
  Beta virt. eigenvalues --    0.90012   0.91360   0.91773   0.92338   0.92820
  Beta virt. eigenvalues --    0.93504   0.94951   0.95446   0.95776   0.96688
  Beta virt. eigenvalues --    0.97230   0.97621   0.99612   1.00187   1.01032
  Beta virt. eigenvalues --    1.02026   1.02676   1.03325   1.04355   1.05206
  Beta virt. eigenvalues --    1.06189   1.07844   1.08465   1.09398   1.09912
  Beta virt. eigenvalues --    1.10714   1.11468   1.12500   1.13255   1.14033
  Beta virt. eigenvalues --    1.14562   1.15944   1.16935   1.17271   1.18015
  Beta virt. eigenvalues --    1.18408   1.19963   1.20894   1.21893   1.22160
  Beta virt. eigenvalues --    1.23274   1.24093   1.25309   1.25652   1.26244
  Beta virt. eigenvalues --    1.27230   1.29387   1.30026   1.31822   1.32552
  Beta virt. eigenvalues --    1.33355   1.34095   1.35512   1.36265   1.37695
  Beta virt. eigenvalues --    1.38183   1.39573   1.40468   1.42267   1.42497
  Beta virt. eigenvalues --    1.43637   1.45146   1.45351   1.46622   1.47885
  Beta virt. eigenvalues --    1.49115   1.50473   1.50980   1.51934   1.52381
  Beta virt. eigenvalues --    1.52569   1.53745   1.54355   1.55066   1.56456
  Beta virt. eigenvalues --    1.56662   1.57727   1.58450   1.59804   1.59921
  Beta virt. eigenvalues --    1.60908   1.62053   1.62763   1.64576   1.65290
  Beta virt. eigenvalues --    1.66079   1.66854   1.69072   1.69896   1.70489
  Beta virt. eigenvalues --    1.72227   1.72556   1.73648   1.74496   1.75788
  Beta virt. eigenvalues --    1.76213   1.76930   1.77710   1.79150   1.80687
  Beta virt. eigenvalues --    1.81466   1.82610   1.83665   1.84184   1.84499
  Beta virt. eigenvalues --    1.85147   1.86281   1.88239   1.89734   1.90033
  Beta virt. eigenvalues --    1.91487   1.92734   1.93728   1.93789   1.95327
  Beta virt. eigenvalues --    1.96520   1.97841   1.98235   1.99633   2.00849
  Beta virt. eigenvalues --    2.01706   2.02865   2.04247   2.04775   2.05465
  Beta virt. eigenvalues --    2.07202   2.07905   2.08616   2.09685   2.10549
  Beta virt. eigenvalues --    2.11350   2.12515   2.13002   2.15143   2.16213
  Beta virt. eigenvalues --    2.17950   2.17998   2.19096   2.19709   2.21308
  Beta virt. eigenvalues --    2.24115   2.25353   2.27494   2.28887   2.30520
  Beta virt. eigenvalues --    2.31150   2.31847   2.35067   2.36171   2.36682
  Beta virt. eigenvalues --    2.38662   2.38807   2.39827   2.40742   2.43743
  Beta virt. eigenvalues --    2.43967   2.44912   2.46895   2.47348   2.48160
  Beta virt. eigenvalues --    2.49489   2.50919   2.51362   2.52242   2.53954
  Beta virt. eigenvalues --    2.56809   2.58731   2.59772   2.60435   2.61408
  Beta virt. eigenvalues --    2.63778   2.65172   2.65547   2.68588   2.70034
  Beta virt. eigenvalues --    2.71730   2.74112   2.76165   2.79079   2.80062
  Beta virt. eigenvalues --    2.83825   2.85705   2.86477   2.89761   2.91702
  Beta virt. eigenvalues --    2.92855   2.96043   2.98178   3.01073   3.06742
  Beta virt. eigenvalues --    3.07970   3.17640   3.22202   3.25268   3.27750
  Beta virt. eigenvalues --    3.32332   3.33886   3.34709   3.38148   3.40023
  Beta virt. eigenvalues --    3.40419   3.42009   3.43603   3.44953   3.47572
  Beta virt. eigenvalues --    3.48175   3.49433   3.50630   3.51440   3.53371
  Beta virt. eigenvalues --    3.54399   3.55149   3.56854   3.58664   3.61342
  Beta virt. eigenvalues --    3.62698   3.64549   3.65984   3.67802   3.72734
  Beta virt. eigenvalues --    3.73284   3.78202   3.78572   3.82520   3.86370
  Beta virt. eigenvalues --    3.92902   3.96955   4.00416   4.11563   4.20104
  Beta virt. eigenvalues --    4.39751   4.76569
          Condensed to atoms (all electrons):
               1          2          3          4          5          6
     1  C    8.773734  -1.927135   0.557009   0.072870   0.292222  -0.147906
     2  C   -1.927135   8.587031  -0.921997  -0.501968  -0.689252   0.125313
     3  C    0.557009  -0.921997  12.960147   0.189060   0.075838  -0.448689
     4  O    0.072870  -0.501968   0.189060   8.751541  -0.181955   0.002844
     5  H    0.292222  -0.689252   0.075838  -0.181955   2.210325  -0.032775
     6  O   -0.147906   0.125313  -0.448689   0.002844  -0.032775   9.616390
     7  H   -0.039114   0.099430  -0.625812  -0.032639   0.105944  -0.095205
     8  C    0.082438  -0.208233  -1.660213   0.003021  -0.007368   0.030999
     9  C   -1.582492   0.244226  -2.809186   0.094674  -0.256262   0.019053
    10  H   -0.843000   0.542775   0.097422   0.005587  -0.123881   0.020902
    11  O   -0.563858   0.114884  -0.086605  -0.016493  -0.026979   0.030291
    12  C    0.016485  -0.111005   0.206665  -0.010770   0.048905  -0.049822
    13  H    0.253251   0.228479   0.361491  -0.006975  -0.008433  -0.258879
    14  O   -0.044131   0.009678  -0.013385   0.000026   0.001785  -0.057566
    15  H    0.052363  -0.021589   0.055645  -0.001312   0.019581   0.112713
    16  H    0.009729  -0.028279   0.039495   0.000420  -0.007553  -0.051314
    17  H    0.124989  -0.232507   0.052381   0.058066   0.035184   0.005813
    18  H    0.000224  -0.006581  -0.054756   0.313117  -0.024138   0.006660
    19  H    0.041401  -0.025089   0.065155   0.001301   0.002000   0.029210
    20  C   -0.117329   0.083209  -1.744860  -0.001735   0.006719   0.081518
    21  N    0.011246   0.009242   0.056595   0.001343  -0.006665   0.016241
    22  C    0.003890  -0.030893  -0.242995   0.000160  -0.004142   0.003603
    23  N    0.004881   0.028365  -0.094011  -0.008727   0.016732  -0.004300
    24  C   -0.004855  -0.196116  -0.776318   0.039701   0.065450  -0.021678
    25  H    0.041112  -0.044883   0.130344  -0.001539   0.016460  -0.176213
    26  H    0.000152  -0.000062   0.005731   0.000255   0.001045   0.000237
    27  O   -0.000322  -0.000541   0.006194   0.000056  -0.000100   0.000564
    28  O    0.000960   0.120813  -0.083574  -0.080261   0.013736   0.004305
               7          8          9         10         11         12
     1  C   -0.039114   0.082438  -1.582492  -0.843000  -0.563858   0.016485
     2  C    0.099430  -0.208233   0.244226   0.542775   0.114884  -0.111005
     3  C   -0.625812  -1.660213  -2.809186   0.097422  -0.086605   0.206665
     4  O   -0.032639   0.003021   0.094674   0.005587  -0.016493  -0.010770
     5  H    0.105944  -0.007368  -0.256262  -0.123881  -0.026979   0.048905
     6  O   -0.095205   0.030999   0.019053   0.020902   0.030291  -0.049822
     7  H    1.625094   0.045056   0.016931  -0.002031   0.013209   0.006530
     8  C    0.045056  12.171468   0.360796  -0.054987   0.010176   0.020989
     9  C    0.016931   0.360796  10.188837  -0.124109   0.385489  -0.323188
    10  H   -0.002031  -0.054987  -0.124109   1.904069  -0.080541  -0.085360
    11  O    0.013209   0.010176   0.385489  -0.080541   8.720847  -0.036977
    12  C    0.006530   0.020989  -0.323188  -0.085360  -0.036977   4.955096
    13  H    0.010460  -0.121488  -1.062874   0.097106  -0.059794  -0.107773
    14  O    0.000562  -0.008394   0.147151   0.030390   0.000418   0.043384
    15  H    0.000433   0.018549  -0.407032  -0.047232   0.013795   0.303129
    16  H    0.001178  -0.019734   0.276555   0.022279  -0.004845   0.036086
    17  H    0.010329  -0.001766  -0.074746  -0.008601   0.271472   0.007420
    18  H   -0.002508   0.053326   0.030786   0.002573  -0.001205  -0.000971
    19  H   -0.000926   0.004796  -0.130877  -0.007973  -0.001294  -0.016061
    20  C    0.029719  -2.324186   0.058405   0.011434   0.003087  -0.077298
    21  N    0.000425   0.095031   0.027058   0.000384  -0.000472   0.001356
    22  C   -0.013765   0.133770   0.006178   0.000363   0.000019  -0.005659
    23  N    0.027735   0.007757  -0.002955   0.000020   0.000049  -0.000905
    24  C    0.057785  -3.696769  -0.021982   0.012902   0.003976   0.017036
    25  H    0.031737  -0.013763  -0.027460   0.000094  -0.000720   0.023406
    26  H    0.000548   0.160048  -0.000529   0.000026  -0.000032  -0.000177
    27  O    0.000109   0.009064  -0.000194  -0.000022   0.000000   0.000071
    28  O    0.038562   0.001474   0.013455  -0.000720  -0.000179  -0.002791
              13         14         15         16         17         18
     1  C    0.253251  -0.044131   0.052363   0.009729   0.124989   0.000224
     2  C    0.228479   0.009678  -0.021589  -0.028279  -0.232507  -0.006581
     3  C    0.361491  -0.013385   0.055645   0.039495   0.052381  -0.054756
     4  O   -0.006975   0.000026  -0.001312   0.000420   0.058066   0.313117
     5  H   -0.008433   0.001785   0.019581  -0.007553   0.035184  -0.024138
     6  O   -0.258879  -0.057566   0.112713  -0.051314   0.005813   0.006660
     7  H    0.010460   0.000562   0.000433   0.001178   0.010329  -0.002508
     8  C   -0.121488  -0.008394   0.018549  -0.019734  -0.001766   0.053326
     9  C   -1.062874   0.147151  -0.407032   0.276555  -0.074746   0.030786
    10  H    0.097106   0.030390  -0.047232   0.022279  -0.008601   0.002573
    11  O   -0.059794   0.000418   0.013795  -0.004845   0.271472  -0.001205
    12  C   -0.107773   0.043384   0.303129   0.036086   0.007420  -0.000971
    13  H    2.256781   0.024195  -0.061797  -0.037601  -0.008731   0.000940
    14  O    0.024195   8.302758  -0.166572  -0.033489  -0.001439  -0.000462
    15  H   -0.061797  -0.166572   1.678391  -0.320228   0.004897  -0.001030
    16  H   -0.037601  -0.033489  -0.320228   1.405621  -0.001279   0.000044
    17  H   -0.008731  -0.001439   0.004897  -0.001279   0.564782  -0.006601
    18  H    0.000940  -0.000462  -0.001030   0.000044  -0.006601   0.497503
    19  H    0.010409   0.290068   0.018693  -0.039053   0.000063   0.000560
    20  C    0.015894   0.002030  -0.006341  -0.000910   0.000125   0.004685
    21  N    0.001054  -0.000017  -0.000156   0.000304  -0.000157   0.000627
    22  C    0.000664  -0.000024  -0.000282  -0.000257   0.000290   0.000826
    23  N   -0.000825  -0.000015   0.000012  -0.000280   0.000528  -0.004068
    24  C    0.009029  -0.002841   0.000473   0.003273   0.008549  -0.081653
    25  H   -0.003184  -0.002575   0.002522   0.001396   0.001029  -0.004510
    26  H    0.000084   0.000010  -0.000030   0.000031   0.000075  -0.003058
    27  O   -0.000021   0.000002   0.000002  -0.000003  -0.000009   0.000603
    28  O   -0.000006  -0.000087  -0.000092  -0.000188   0.000771   0.012191
              19         20         21         22         23         24
     1  C    0.041401  -0.117329   0.011246   0.003890   0.004881  -0.004855
     2  C   -0.025089   0.083209   0.009242  -0.030893   0.028365  -0.196116
     3  C    0.065155  -1.744860   0.056595  -0.242995  -0.094011  -0.776318
     4  O    0.001301  -0.001735   0.001343   0.000160  -0.008727   0.039701
     5  H    0.002000   0.006719  -0.006665  -0.004142   0.016732   0.065450
     6  O    0.029210   0.081518   0.016241   0.003603  -0.004300  -0.021678
     7  H   -0.000926   0.029719   0.000425  -0.013765   0.027735   0.057785
     8  C    0.004796  -2.324186   0.095031   0.133770   0.007757  -3.696769
     9  C   -0.130877   0.058405   0.027058   0.006178  -0.002955  -0.021982
    10  H   -0.007973   0.011434   0.000384   0.000363   0.000020   0.012902
    11  O   -0.001294   0.003087  -0.000472   0.000019   0.000049   0.003976
    12  C   -0.016061  -0.077298   0.001356  -0.005659  -0.000905   0.017036
    13  H    0.010409   0.015894   0.001054   0.000664  -0.000825   0.009029
    14  O    0.290068   0.002030  -0.000017  -0.000024  -0.000015  -0.002841
    15  H    0.018693  -0.006341  -0.000156  -0.000282   0.000012   0.000473
    16  H   -0.039053  -0.000910   0.000304  -0.000257  -0.000280   0.003273
    17  H    0.000063   0.000125  -0.000157   0.000290   0.000528   0.008549
    18  H    0.000560   0.004685   0.000627   0.000826  -0.004068  -0.081653
    19  H    0.588902  -0.008197   0.002045   0.001154  -0.000324   0.000788
    20  C   -0.008197  12.628718  -0.533673  -0.655523   0.326563  -1.942424
    21  N    0.002045  -0.533673   7.855459   0.019767  -0.017112   0.133768
    22  C    0.001154  -0.655523   0.019767   6.185798  -0.015776  -0.077897
    23  N   -0.000324   0.326563  -0.017112  -0.015776   7.443756  -0.471695
    24  C    0.000788  -1.942424   0.133768  -0.077897  -0.471695  12.418059
    25  H   -0.004480  -0.494668  -0.065164   0.003163  -0.000952   0.132295
    26  H   -0.000011  -0.136373   0.033578  -0.178014   0.424949  -0.248140
    27  O   -0.000049   0.074653  -0.073225   0.113029  -0.152141   0.035121
    28  O    0.000186  -0.021184   0.000762   0.002957  -0.114599   0.017324
              25         26         27         28
     1  C    0.041112   0.000152  -0.000322   0.000960
     2  C   -0.044883  -0.000062  -0.000541   0.120813
     3  C    0.130344   0.005731   0.006194  -0.083574
     4  O   -0.001539   0.000255   0.000056  -0.080261
     5  H    0.016460   0.001045  -0.000100   0.013736
     6  O   -0.176213   0.000237   0.000564   0.004305
     7  H    0.031737   0.000548   0.000109   0.038562
     8  C   -0.013763   0.160048   0.009064   0.001474
     9  C   -0.027460  -0.000529  -0.000194   0.013455
    10  H    0.000094   0.000026  -0.000022  -0.000720
    11  O   -0.000720  -0.000032   0.000000  -0.000179
    12  C    0.023406  -0.000177   0.000071  -0.002791
    13  H   -0.003184   0.000084  -0.000021  -0.000006
    14  O   -0.002575   0.000010   0.000002  -0.000087
    15  H    0.002522  -0.000030   0.000002  -0.000092
    16  H    0.001396   0.000031  -0.000003  -0.000188
    17  H    0.001029   0.000075  -0.000009   0.000771
    18  H   -0.004510  -0.003058   0.000603   0.012191
    19  H   -0.004480  -0.000011  -0.000049   0.000186
    20  C   -0.494668  -0.136373   0.074653  -0.021184
    21  N   -0.065164   0.033578  -0.073225   0.000762
    22  C    0.003163  -0.178014   0.113029   0.002957
    23  N   -0.000952   0.424949  -0.152141  -0.114599
    24  C    0.132295  -0.248140   0.035121   0.017324
    25  H    2.156107  -0.003027   0.002423  -0.007295
    26  H   -0.003027   1.042073  -0.006556  -0.032396
    27  O    0.002423  -0.006556   8.549651  -0.001164
    28  O   -0.007295  -0.032396  -0.001164   9.031526
          Atomic-Atomic Spin Densities.
               1          2          3          4          5          6
     1  C    0.076757  -0.029086  -0.056237  -0.002144  -0.017970   0.000007
     2  C   -0.029086   0.082615   0.023687  -0.006045   0.019177  -0.001916
     3  C   -0.056237   0.023687   0.018237  -0.002443   0.002576  -0.008332
     4  O   -0.002144  -0.006045  -0.002443   0.009171  -0.000622   0.000290
     5  H   -0.017970   0.019177   0.002576  -0.000622  -0.006643   0.001203
     6  O    0.000007  -0.001916  -0.008332   0.000290   0.001203   0.004817
     7  H    0.033823  -0.029947  -0.146735   0.004549  -0.005458  -0.003411
     8  C    0.030147  -0.028883  -0.113731   0.001997  -0.008736  -0.010803
     9  C    0.003258   0.000033  -0.013031  -0.000497   0.002948   0.003306
    10  H   -0.009530  -0.001581   0.001488   0.001058   0.001226  -0.000361
    11  O   -0.007530   0.001159   0.005256   0.000771   0.000316   0.000322
    12  C   -0.011568   0.003115   0.016428   0.000531   0.000022  -0.001134
    13  H   -0.001048  -0.000428  -0.001595   0.000048  -0.000091  -0.000321
    14  O    0.000752  -0.000080  -0.003420   0.000070  -0.000706   0.000330
    15  H   -0.000417   0.000193   0.000769  -0.000002  -0.000013  -0.000117
    16  H   -0.001268   0.000489   0.001365   0.000035   0.000093  -0.000070
    17  H   -0.005046   0.003745   0.001087  -0.000069   0.000214   0.000142
    18  H    0.003138  -0.001947  -0.006302  -0.000281  -0.000500  -0.000300
    19  H    0.000519  -0.000563  -0.002987   0.000050  -0.000299   0.000384
    20  C    0.001626   0.017780   0.059741  -0.000993   0.005005   0.017622
    21  N   -0.000926  -0.001536   0.014195  -0.000034   0.000489  -0.000609
    22  C    0.000395   0.000688   0.002618   0.000078  -0.000299   0.000251
    23  N   -0.000448   0.000683   0.000839  -0.000281   0.000133  -0.000206
    24  C    0.003217  -0.012849   0.086883   0.001925   0.000819   0.001090
    25  H    0.002408   0.000447   0.010127  -0.000031  -0.000738  -0.001790
    26  H   -0.000055  -0.000364   0.001319  -0.000038   0.000059  -0.000001
    27  O    0.000039   0.000255  -0.001234   0.000004  -0.000050  -0.000010
    28  O   -0.001222   0.001609   0.000643  -0.000838   0.000457  -0.000324
               7          8          9         10         11         12
     1  C    0.033823   0.030147   0.003258  -0.009530  -0.007530  -0.011568
     2  C   -0.029947  -0.028883   0.000033  -0.001581   0.001159   0.003115
     3  C   -0.146735  -0.113731  -0.013031   0.001488   0.005256   0.016428
     4  O    0.004549   0.001997  -0.000497   0.001058   0.000771   0.000531
     5  H   -0.005458  -0.008736   0.002948   0.001226   0.000316   0.000022
     6  O   -0.003411  -0.010803   0.003306  -0.000361   0.000322  -0.001134
     7  H    0.130896   0.033905  -0.003645   0.000626  -0.004823  -0.003505
     8  C    0.033905   0.518807   0.008515   0.000679  -0.000967  -0.004235
     9  C   -0.003645   0.008515  -0.006384  -0.001859   0.000090   0.000527
    10  H    0.000626   0.000679  -0.001859   0.009986   0.000502   0.001692
    11  O   -0.004823  -0.000967   0.000090   0.000502   0.009702   0.000772
    12  C   -0.003505  -0.004235   0.000527   0.001692   0.000772   0.001219
    13  H    0.001294   0.001695   0.001487   0.000020   0.000001  -0.000812
    14  O    0.000177   0.002077   0.001393   0.000137  -0.000022  -0.001384
    15  H   -0.000152  -0.000278   0.000836  -0.000053  -0.000008  -0.000543
    16  H   -0.000133  -0.000311  -0.000264   0.000054   0.000073   0.001095
    17  H   -0.001403  -0.000183   0.000400   0.000257   0.000547   0.000126
    18  H    0.001437   0.003329  -0.000247  -0.000092  -0.000397  -0.000190
    19  H    0.000272   0.003641  -0.000031  -0.000040  -0.000014   0.000098
    20  C    0.005930   0.367972   0.000557  -0.000283  -0.000293  -0.002482
    21  N    0.000181  -0.018708  -0.000266  -0.000069   0.000015   0.000162
    22  C    0.001144  -0.016772   0.000483   0.000032  -0.000005  -0.000044
    23  N   -0.000610  -0.017516   0.000453  -0.000027  -0.000032   0.000058
    24  C    0.012323   0.047121   0.001733   0.000272   0.000370  -0.000065
    25  H    0.002630   0.041931  -0.001821   0.000036  -0.000096  -0.000840
    26  H    0.000068  -0.000521   0.000009  -0.000005   0.000002  -0.000001
    27  O    0.000013   0.004982  -0.000006   0.000005  -0.000000  -0.000006
    28  O    0.004179  -0.018367   0.000188  -0.000079  -0.000129   0.000168
              13         14         15         16         17         18
     1  C   -0.001048   0.000752  -0.000417  -0.001268  -0.005046   0.003138
     2  C   -0.000428  -0.000080   0.000193   0.000489   0.003745  -0.001947
     3  C   -0.001595  -0.003420   0.000769   0.001365   0.001087  -0.006302
     4  O    0.000048   0.000070  -0.000002   0.000035  -0.000069  -0.000281
     5  H   -0.000091  -0.000706  -0.000013   0.000093   0.000214  -0.000500
     6  O   -0.000321   0.000330  -0.000117  -0.000070   0.000142  -0.000300
     7  H    0.001294   0.000177  -0.000152  -0.000133  -0.001403   0.001437
     8  C    0.001695   0.002077  -0.000278  -0.000311  -0.000183   0.003329
     9  C    0.001487   0.001393   0.000836  -0.000264   0.000400  -0.000247
    10  H    0.000020   0.000137  -0.000053   0.000054   0.000257  -0.000092
    11  O    0.000001  -0.000022  -0.000008   0.000073   0.000547  -0.000397
    12  C   -0.000812  -0.001384  -0.000543   0.001095   0.000126  -0.000190
    13  H   -0.000517   0.000066   0.000003  -0.000120  -0.000084   0.000007
    14  O    0.000066   0.001102   0.000029  -0.000300  -0.000010  -0.000003
    15  H    0.000003   0.000029  -0.000166  -0.000078   0.000007  -0.000008
    16  H   -0.000120  -0.000300  -0.000078  -0.000492   0.000003  -0.000013
    17  H   -0.000084  -0.000010   0.000007   0.000003   0.000324  -0.000165
    18  H    0.000007  -0.000003  -0.000008  -0.000013  -0.000165   0.001613
    19  H   -0.000034  -0.000359  -0.000017  -0.000040  -0.000005   0.000011
    20  C    0.000312   0.000567  -0.000077  -0.000204  -0.000003   0.000343
    21  N   -0.000006  -0.000076   0.000003   0.000064  -0.000007   0.000047
    22  C    0.000038   0.000023  -0.000003   0.000011  -0.000006   0.000224
    23  N   -0.000014  -0.000032   0.000004  -0.000005  -0.000013   0.000045
    24  C    0.000123   0.000118  -0.000018   0.000085  -0.000182   0.002188
    25  H    0.000094   0.000309   0.000017  -0.000095  -0.000016   0.000141
    26  H    0.000001  -0.000002   0.000000  -0.000001   0.000005  -0.000076
    27  O   -0.000000   0.000002  -0.000000  -0.000001  -0.000000  -0.000020
    28  O   -0.000031  -0.000012   0.000011   0.000001  -0.000032  -0.002317
              19         20         21         22         23         24
     1  C    0.000519   0.001626  -0.000926   0.000395  -0.000448   0.003217
     2  C   -0.000563   0.017780  -0.001536   0.000688   0.000683  -0.012849
     3  C   -0.002987   0.059741   0.014195   0.002618   0.000839   0.086883
     4  O    0.000050  -0.000993  -0.000034   0.000078  -0.000281   0.001925
     5  H   -0.000299   0.005005   0.000489  -0.000299   0.000133   0.000819
     6  O    0.000384   0.017622  -0.000609   0.000251  -0.000206   0.001090
     7  H    0.000272   0.005930   0.000181   0.001144  -0.000610   0.012323
     8  C    0.003641   0.367972  -0.018708  -0.016772  -0.017516   0.047121
     9  C   -0.000031   0.000557  -0.000266   0.000483   0.000453   0.001733
    10  H   -0.000040  -0.000283  -0.000069   0.000032  -0.000027   0.000272
    11  O   -0.000014  -0.000293   0.000015  -0.000005  -0.000032   0.000370
    12  C    0.000098  -0.002482   0.000162  -0.000044   0.000058  -0.000065
    13  H   -0.000034   0.000312  -0.000006   0.000038  -0.000014   0.000123
    14  O   -0.000359   0.000567  -0.000076   0.000023  -0.000032   0.000118
    15  H   -0.000017  -0.000077   0.000003  -0.000003   0.000004  -0.000018
    16  H   -0.000040  -0.000204   0.000064   0.000011  -0.000005   0.000085
    17  H   -0.000005  -0.000003  -0.000007  -0.000006  -0.000013  -0.000182
    18  H    0.000011   0.000343   0.000047   0.000224   0.000045   0.002188
    19  H    0.000572  -0.000186  -0.000085  -0.000026   0.000009   0.000083
    20  C   -0.000186  -0.914102  -0.043954   0.065813   0.004637   0.148228
    21  N   -0.000085  -0.043954   0.454393   0.005842   0.002519   0.001504
    22  C   -0.000026   0.065813   0.005842  -0.195549   0.026230   0.008020
    23  N    0.000009   0.004637   0.002519   0.026230  -0.019035   0.006711
    24  C    0.000083   0.148228   0.001504   0.008020   0.006711  -0.417574
    25  H    0.000069  -0.078107  -0.004559   0.002007  -0.001432   0.005176
    26  H   -0.000006   0.008002   0.000096  -0.003827  -0.002293  -0.003213
    27  O    0.000007  -0.004818  -0.015954  -0.007320  -0.003904  -0.004550
    28  O   -0.000002   0.009915   0.000808  -0.000912   0.003743  -0.022269
              25         26         27         28
     1  C    0.002408  -0.000055   0.000039  -0.001222
     2  C    0.000447  -0.000364   0.000255   0.001609
     3  C    0.010127   0.001319  -0.001234   0.000643
     4  O   -0.000031  -0.000038   0.000004  -0.000838
     5  H   -0.000738   0.000059  -0.000050   0.000457
     6  O   -0.001790  -0.000001  -0.000010  -0.000324
     7  H    0.002630   0.000068   0.000013   0.004179
     8  C    0.041931  -0.000521   0.004982  -0.018367
     9  C   -0.001821   0.000009  -0.000006   0.000188
    10  H    0.000036  -0.000005   0.000005  -0.000079
    11  O   -0.000096   0.000002  -0.000000  -0.000129
    12  C   -0.000840  -0.000001  -0.000006   0.000168
    13  H    0.000094   0.000001  -0.000000  -0.000031
    14  O    0.000309  -0.000002   0.000002  -0.000012
    15  H    0.000017   0.000000  -0.000000   0.000011
    16  H   -0.000095  -0.000001  -0.000001   0.000001
    17  H   -0.000016   0.000005  -0.000000  -0.000032
    18  H    0.000141  -0.000076  -0.000020  -0.002317
    19  H    0.000069  -0.000006   0.000007  -0.000002
    20  C   -0.078107   0.008002  -0.004818   0.009915
    21  N   -0.004559   0.000096  -0.015954   0.000808
    22  C    0.002007  -0.003827  -0.007320  -0.000912
    23  N   -0.001432  -0.002293  -0.003904   0.003743
    24  C    0.005176  -0.003213  -0.004550  -0.022269
    25  H    0.023416   0.000248  -0.000192   0.000157
    26  H    0.000248   0.001706  -0.000490  -0.002171
    27  O   -0.000192  -0.000490   0.293958  -0.000103
    28  O    0.000157  -0.002171  -0.000103   0.139018
 Mulliken charges and spin densities:
               1          2
     1  C    0.931185   0.011592
     2  C    0.752685   0.040450
     3  C    0.703227  -0.108793
     4  O   -0.689668   0.006257
     5  H   -0.542421  -0.007389
     6  O   -0.762311   0.000061
     7  H   -0.309774   0.033625
     8  C    0.908142   0.826786
     9  C    0.954292  -0.001834
    10  H   -0.369868   0.004091
    11  O   -0.687717   0.005579
    12  C    1.142199  -0.000798
    13  H   -0.531458   0.000086
    14  O   -0.521462   0.000745
    15  H   -0.247505  -0.000079
    16  H   -0.251399  -0.000028
    17  H    0.189072  -0.000367
    18  H    0.266875  -0.000338
    19  H    0.177603   0.001019
    20  C    0.737940  -0.331453
    21  N   -0.569642   0.393529
    22  C    0.749599  -0.110868
    23  N   -0.392660   0.000216
    24  C    0.586840  -0.132730
    25  H   -0.691656  -0.000504
    26  H   -0.060438  -0.001549
    27  O   -0.557198   0.260605
    28  O   -0.914485   0.112089
 Sum of Mulliken charges =  -0.00000   1.00000
 Mulliken charges and spin densities with hydrogens summed into heavy atoms:
               1          2
     1  C    0.561317   0.015682
     2  C    0.210264   0.033061
     3  C    0.393453  -0.075168
     4  O   -0.422793   0.005919
     6  O   -0.762311   0.000061
     8  C    0.908142   0.826786
     9  C    0.422834  -0.001748
    11  O   -0.498645   0.005212
    12  C    0.643295  -0.000905
    14  O   -0.343859   0.001764
    20  C    0.046285  -0.331956
    21  N   -0.569642   0.393529
    22  C    0.749599  -0.110868
    23  N   -0.453098  -0.001333
    24  C    0.586840  -0.132730
    27  O   -0.557198   0.260605
    28  O   -0.914485   0.112089
 Electronic spatial extent (au):  <R**2>=           4358.3570
 Charge=             -0.0000 electrons
 Dipole moment (field-independent basis, Debye):
    X=              0.5133    Y=             -0.0338    Z=             -1.2153  Tot=              1.3197
 Quadrupole moment (field-independent basis, Debye-Ang):
   XX=           -117.8258   YY=           -108.6907   ZZ=            -99.4142
   XY=            -12.6612   XZ=             -1.8719   YZ=              2.4550
 Traceless Quadrupole moment (field-independent basis, Debye-Ang):
   XX=             -9.1822   YY=             -0.0471   ZZ=              9.2293
   XY=            -12.6612   XZ=             -1.8719   YZ=              2.4550
 Octapole moment (field-independent basis, Debye-Ang**2):
  XXX=             96.7938  YYY=              5.7482  ZZZ=             -2.0339  XYY=              2.2633
  XXY=             36.8186  XXZ=             -3.4706  XZZ=            -11.0833  YZZ=              7.5618
  YYZ=            -11.9856  XYZ=             12.1150
 Hexadecapole moment (field-independent basis, Debye-Ang**3):
 XXXX=          -4537.3444 YYYY=          -1303.7278 ZZZZ=           -298.3483 XXXY=           -335.9116
 XXXZ=             30.2870 YYYX=             -7.1916 YYYZ=              3.6563 ZZZX=            -18.4668
 ZZZY=              3.9807 XXYY=           -944.5358 XXZZ=           -723.1530 YYZZ=           -279.4176
 XXYZ=             59.5416 YYXZ=            -38.9198 ZZXY=             13.6268
 N-N= 1.293092576794D+03 E-N=-4.715078699553D+03  KE= 9.046339388110D+02
                          Isotropic Fermi Contact Couplings
        Atom                 a.u.       MegaHertz       Gauss      10(-4) cm-1
     1  C(13)              0.00025       0.28381       0.10127       0.09467
     2  C(13)              0.01605      18.04274       6.43810       6.01841
     3  C(13)             -0.01999     -22.46800      -8.01714      -7.49452
     4  O(17)              0.00042      -0.25641      -0.09149      -0.08553
     5  H(1)              -0.00048      -2.12686      -0.75892      -0.70944
     6  O(17)              0.00002      -0.01140      -0.00407      -0.00380
     7  H(1)               0.01511      67.53342      24.09760      22.52673
     8  C(13)              0.06725      75.60408      26.97742      25.21881
     9  C(13)              0.00041       0.45752       0.16325       0.15261
    10  H(1)               0.00143       6.39076       2.28038       2.13173
    11  O(17)              0.00162      -0.98022      -0.34977      -0.32697
    12  C(13)             -0.00011      -0.12804      -0.04569      -0.04271
    13  H(1)              -0.00006      -0.24926      -0.08894      -0.08314
    14  O(17)              0.00004      -0.02212      -0.00789      -0.00738
    15  H(1)              -0.00001      -0.04342      -0.01549      -0.01448
    16  H(1)              -0.00001      -0.03295      -0.01176      -0.01099
    17  H(1)               0.00005       0.22828       0.08146       0.07615
    18  H(1)               0.00023       1.03949       0.37091       0.34674
    19  H(1)              -0.00001      -0.06670      -0.02380      -0.02225
    20  C(13)             -0.04051     -45.54127     -16.25026     -15.19093
[...]
 002833,0.00009829,-0.00001597,0.00015284,-0.00001542,-0.00018941,0.055
 53553,-0.00525852,-0.05042306,-0.10577672,0.03168597,0.08367912,-0.000
 17966,-0.00003934,0.00088239,0.00034421,-0.00171649,-0.00172209,-0.001
 06712,0.00235997,0.00084736,-0.00038582,0.00099083,0.00055216,0.000054
 68,0.00012796,0.00008502,0.00196769,-0.00069931,-0.00010222,0.00090864
 ,-0.00023376,-0.00025091,0.01417637,0.01840377,-0.00143632,-0.00127846
 ,-0.00007568,-0.00022764,0.00027316,-0.00006207,-0.00012631,0.00062596
 ,0.00060699,-0.00027703,0.00003395,0.00019678,0.00002121,0.00021118,0.
 00001522,-0.00004032,0.00022008,-0.00029079,0.00014224,0.00007924,-0.0
 0002798,0.00006595,-0.00007421,-0.00002644,-0.00002690,-0.00017873,-0.
 00030074,-0.00006192,0.00060576,-0.00039837,-0.00003317,-0.00023800,0.
 00021936,-0.00021597,-0.07837590,0.00617376,0.01440472,-0.08530234,0.0
 2382536,0.00355569,0.88394242,-0.00013600,-0.00005094,-0.00204135,-0.0
 0036795,0.00627582,0.00428038,-0.00483641,-0.00762415,-0.00213611,0.00
 501288,-0.00449195,-0.00020395,-0.00016105,-0.00017362,-0.00015067,0.0
 0093085,-0.00026311,-0.00025389,-0.00095075,0.00071046,0.00062814,0.00
 937765,-0.01250462,-0.00279955,0.00073628,-0.00031386,-0.00015613,-0.0
 0042947,0.00016050,0.00034560,-0.00018739,-0.00115110,0.00030591,0.000
 13184,0.00011549,-0.00013387,-0.00003730,-0.00006324,0.00001479,-0.000
 15714,-0.00014725,0.00004697,-0.00004185,-0.00002770,0.00000400,0.0000
 4217,-0.00003866,-0.00000586,-0.00041872,0.00034435,0.00030329,-0.0073
 6233,0.00023044,-0.00126736,0.00022699,0.00011125,0.00013101,0.0036666
 8,0.01268546,0.00153294,0.08431495,-0.18910004,-0.02713446,0.08042583,
 0.54335801,-0.00017982,-0.00001370,-0.00009946,0.00025458,0.00086480,0
 .00023653,0.00011950,-0.00207542,0.00236622,0.00101917,-0.00036917,-0.
 00020182,-0.00008354,-0.00005190,-0.00010525,-0.00048952,0.00041325,-0
 .00102341,-0.00060159,0.00025489,-0.00012206,-0.00310799,-0.00452044,-
 0.00806329,0.00055851,-0.00002351,0.00017278,-0.00004077,-0.00002662,-
 0.00000374,-0.00009962,-0.00020562,-0.00009188,-0.00009885,-0.00004289
 ,0.00016030,-0.00006099,-0.00003326,-0.00002793,0.00007075,0.00004712,
 -0.00020112,-0.00000854,0.00001391,-0.00003868,0.00002432,-0.00002238,
 -0.00001886,-0.00011203,0.00008379,0.00012600,-0.00127459,-0.00013288,
 0.00015831,-0.00005169,-0.00002572,0.00013572,0.01425355,0.00230630,-0
 .00785019,0.00967729,-0.01644581,-0.08072917,-0.11387880,0.02168450,0.
 23369121,0.00026018,0.00023499,0.00043531,0.00050507,-0.00332214,-0.00
 088076,0.00411548,0.00561594,0.00062654,-0.00441464,0.00227715,-0.0006
 8512,0.00000003,0.00024289,-0.00001743,-0.00302464,0.00050396,0.000310
 45,0.00028422,-0.00045235,-0.00033603,-0.04409476,0.00856722,0.0106587
 5,0.00068139,0.00026240,0.00043244,-0.00000141,-0.00006151,-0.00010447
 ,-0.00045232,0.00027402,0.00006479,-0.00015772,-0.00030176,0.00016552,
 -0.00022448,0.00005961,0.00001204,-0.00003268,0.00039935,-0.00026676,-
 0.00003488,0.00005206,-0.00007742,0.00003687,0.00006006,0.00000874,0.0
 0059068,0.00001057,-0.00025393,0.00682721,0.00048184,0.00188697,0.0000
 0627,-0.00029822,0.00017832,-0.00313760,-0.00259044,0.00005035,0.01353
 707,0.02093825,0.00180234,-0.12166732,0.01557548,0.01491527,0.78584767
 ,0.00018749,-0.00010314,0.00090014,0.00010212,-0.00519933,-0.00206835,
 0.00144179,-0.00407106,0.00034175,-0.00657501,0.00410274,-0.00073512,0
 .00014330,0.00039314,0.00005733,0.00267167,0.00096119,0.00016987,0.000
 27968,-0.00008543,-0.00062289,0.02167704,0.01995820,-0.00304903,-0.000
 68633,-0.00041423,-0.00041204,0.00017845,-0.00000499,-0.00011534,-0.00
 024150,0.00083210,-0.00002352,0.00012190,-0.00004279,0.00007383,0.0002
 1342,0.00008266,0.00005293,0.00003546,0.00024702,-0.00001950,0.0000429
 1,-0.00004311,0.00003625,-0.00003481,0.00008215,-0.00000529,0.00062429
 ,-0.00016408,-0.00034276,0.00920872,-0.00005231,0.00270420,-0.00016528
 ,-0.00015234,-0.00008771,-0.01136634,-0.00610135,0.00119889,0.01351515
 ,-0.04749075,-0.00939641,-0.01736666,-0.23366052,-0.01510236,-0.053287
 73,0.74020818,-0.00002485,-0.00008849,0.00000223,-0.00006317,0.0004302
 2,-0.00015491,-0.00001753,-0.00153231,0.00161980,0.00077014,0.00014790
 ,0.00009126,0.00010863,-0.00007469,-0.00000035,0.00089156,-0.00017442,
 0.00008993,-0.00027098,-0.00011753,-0.00002841,0.01288383,-0.00050505,
 0.00819543,-0.00014936,-0.00006703,-0.00026435,0.00003128,0.00000481,0
 .00001630,0.00005296,-0.00001453,0.00001810,0.00005902,0.00006852,-0.0
 0009685,0.00010002,-0.00002258,0.00002549,-0.00002714,-0.00006891,0.00
 013875,0.00000614,-0.00001188,0.00002460,-0.00001521,0.00000284,0.0000
 1091,-0.00006459,-0.00001786,0.00005282,-0.00084076,-0.00050310,0.0003
 0127,0.00001004,0.00003833,-0.00009834,-0.00084489,-0.00044537,0.00015
 766,0.00167770,-0.01075148,0.01287571,0.00977133,-0.02316905,-0.061107
 83,-0.13705375,0.09460573,0.10120725,-0.00047407,0.00031428,0.00088632
 ,-0.00189440,0.00194482,-0.00113650,-0.01790543,0.02683667,0.00622546,
 0.00196381,-0.00016833,0.00001430,0.00005269,-0.00004519,-0.00010204,-
 0.00399525,-0.00396413,-0.00031028,-0.00092473,-0.00019037,0.00124970,
 -0.17261883,0.06057546,0.02687069,-0.00065169,0.00103363,0.00125969,0.
 00028349,-0.00014947,-0.00016629,0.00103999,0.00007465,-0.00040121,-0.
 00018118,0.00019634,-0.00002738,-0.00023060,-0.00003969,-0.00017502,0.
 00021806,-0.00056743,0.00018828,0.00004045,0.00003086,0.00000338,-0.00
 004220,-0.00011014,-0.00000667,-0.00078844,-0.00024436,0.00022034,-0.0
 0408481,-0.00579161,-0.00111213,-0.00005988,0.00040876,-0.00023285,0.0
 3668820,0.00484069,-0.00417747,-0.02285770,0.01572106,0.00501857,-0.01
 641961,-0.08743993,-0.00925965,-0.30659134,0.00513680,0.04360768,0.646
 88143,-0.00021185,0.00048183,-0.00336215,-0.00171411,0.01508021,0.0063
 6493,0.00224608,0.01170116,-0.00410147,0.01786892,-0.01235089,0.001493
 52,-0.00045946,-0.00084224,0.00012740,-0.00763757,-0.00175210,0.000151
 42,-0.00108340,-0.00095986,0.00260222,0.06024480,-0.13798398,-0.018743
 17,0.00175205,0.00092838,0.00084851,-0.00074133,0.00014410,0.00048327,
 0.00028163,-0.00255801,0.00028276,-0.00040900,-0.00022887,-0.00012223,
 -0.00063640,-0.00014555,-0.00010966,-0.00016929,-0.00014742,-0.0001113
 4,-0.00011859,0.00016028,-0.00011953,0.00009476,-0.00011784,0.00005329
 ,-0.00140700,0.00056273,0.00081146,-0.02526823,-0.00317377,-0.00610363
 ,0.00045235,-0.00010483,0.00027159,0.00491641,-0.04213306,-0.00610913,
 0.01290894,0.00809755,-0.00116669,-0.02860298,0.00260921,0.00595002,-0
 .03507615,-0.14478149,-0.00447097,0.09882237,0.88128379,0.00012360,-0.
 00005974,-0.00094291,0.00154415,0.00229827,0.00271577,0.00278994,-0.00
 538397,-0.00011281,0.00084481,-0.00242016,-0.00043055,-0.00039485,0.00
 006450,-0.00035286,-0.00039867,0.00202382,0.00174020,-0.00007777,-0.00
 047528,0.00069691,0.02640843,-0.01654992,-0.08583291,0.00078009,-0.000
 24992,0.00108289,-0.00014118,0.00011181,0.00013242,0.00000247,-0.00018
 981,-0.00005618,0.00021622,-0.00005642,0.00011868,-0.00026994,-0.00006
 433,-0.00008966,-0.00002377,0.00012800,-0.00022557,-0.00001389,-0.0000
 6058,-0.00000659,0.00002265,-0.00001704,-0.00001466,-0.00003551,0.0000
 7552,0.00006248,-0.00222738,-0.00070168,-0.00049498,0.00002633,-0.0001
 0696,0.00019208,-0.00540749,-0.00720421,0.00891065,0.00503304,-0.00090
 028,-0.00645192,-0.00213546,0.01631078,-0.00797700,0.03818515,-0.01212
 637,-0.06191054,-0.06424998,0.07974800,0.21204806,0.00000284,-0.000167
 82,-0.00010212,0.00000841,0.00014942,0.00010415,-0.00013647,-0.0002728
 8,-0.00055137,-0.00014757,0.00018056,0.00009680,0.00001257,-0.00000975
 ,-0.00002701,-0.00287604,-0.00167086,0.00082531,0.00008585,0.00034074,
 0.00005179,0.01110143,-0.00859827,-0.00138441,-0.00085455,-0.00004764,
 -0.00028833,-0.00002886,0.00005850,0.00005174,-0.00000892,0.00014851,0
 .00000428,-0.00004164,-0.00004077,-0.00008170,0.00016740,0.00001095,0.
 00000067,0.00004971,-0.00000936,0.00022977,0.00002995,0.00001737,0.000
 05796,-0.00007117,0.00008766,0.00003025,0.00003772,-0.00001186,-0.0000
 0846,0.00018328,0.00001230,0.00005225,0.00006616,0.00002365,-0.0004536
 3,-0.15348722,0.13254995,0.03673575,-0.02901487,0.02004634,0.00683605,
 -0.00095018,-0.00254193,0.00294086,0.00014534,0.00073092,-0.00021187,-
 0.00191108,-0.00185871,0.00110189,0.17906430,0.00019795,-0.00016347,-0
 .00000927,0.00024281,-0.00004519,0.00018196,0.00194371,-0.00197782,-0.
 00020368,-0.00027830,0.00029971,0.00002835,-0.00000292,-0.00000839,-0.
 00008288,0.00095326,0.00145996,0.00017631,-0.00012412,0.00019640,-0.00
 002555,0.01807098,-0.01745085,-0.00679326,-0.00094737,0.00057220,-0.00
 027347,-0.00000111,0.00011019,0.00008886,-0.00003491,0.00014684,0.0000
 0235,-0.00007965,0.00014248,0.00004431,0.00021165,0.00003017,0.0000076
 3,0.00009673,-0.00017646,0.00011236,0.00004408,-0.00003964,0.00000929,
 0.00001611,-0.00001000,-0.00003668,0.00004715,-0.00001498,-0.00001314,
 0.00039286,0.00004371,0.00012983,-0.00024138,0.00028695,-0.00020719,0.
 13165414,-0.22631918,-0.04643871,-0.00563851,0.01394487,0.00325271,-0.
 00313518,0.00113660,-0.00133258,-0.00011877,0.00073974,0.00029051,-0.0
 0524452,-0.00230960,0.00016777,-0.13902776,0.23092584,-0.00008046,-0.0
 0007444,-0.00019289,-0.00031907,-0.00014540,0.00051126,-0.00056142,0.0
 0015470,-0.00259582,-0.00001454,-0.00003125,-0.00011914,-0.00001734,-0
 .00001679,-0.00005193,0.00059707,0.00063583,-0.00047436,0.00037791,0.0
 0007161,0.00008765,0.00178236,-0.00152668,0.00845714,0.00014579,-0.000
 00363,-0.00008688,-0.00006515,-0.00000492,0.00001532,0.00002225,0.0000
 2735,-0.00000968,-0.00024764,-0.00003313,0.00040843,0.00002989,0.00002
 966,-0.00000998,0.00030669,0.00011351,-0.00022203,0.00003492,0.0000197
 1,-0.00005670,0.00000057,-0.00002822,-0.00003836,0.00000442,-0.0000057
 9,0.00000043,-0.00002173,-0.00001811,0.00004829,-0.00043467,-0.0001212
 1,-0.00019071,0.03814673,-0.04737340,-0.05938678,0.00314227,-0.0016856
 7,-0.00405659,0.00257785,-0.00106655,0.01396923,-0.00018834,0.00010101
 ,-0.00127304,0.00080415,-0.00039413,0.00564489,-0.04545483,0.05097850,
 0.04340740,-0.00004371,0.00001714,0.00003571,-0.00003747,0.00026362,0.
 00002262,0.00042225,0.00169291,0.00012875,0.00057656,-0.00023092,0.000
 07530,-0.00002328,-0.00002618,-0.00001601,-0.00046956,-0.00018557,-0.0
 0004965,-0.00000938,-0.00007778,0.00005241,-0.00435791,-0.00398020,0.0
 0129370,-0.00000692,0.00012633,0.00010256,0.00000670,-0.00001188,-0.00
 000912,0.00009481,-0.00000982,-0.00004338,-0.00005951,-0.00001184,0.00
 003113,-0.00002796,-0.00000285,-0.00002061,0.00004466,-0.00003062,-0.0
 0002381,0.00000622,0.00001402,-0.00000703,-0.00000400,-0.00000894,-0.0
 0000365,-0.00008458,-0.00001263,0.00003348,-0.00073034,-0.00006685,-0.
 00024982,-0.00003028,0.00002246,0.00000051,-0.00092869,-0.00056821,-0.
 00000634,0.00125653,-0.00546892,0.00020753,0.01695270,-0.00474515,-0.0
 0414631,-0.24119370,0.17664161,0.06417729,-0.01900210,0.02741348,0.007
 52789,-0.00002132,0.00006924,-0.00014729,0.24525901,0.00004530,0.00003
 562,-0.00010335,0.00008832,0.00017920,0.00017423,-0.00008896,0.0005756
 0,-0.00009897,-0.00007917,-0.00019464,-0.00002558,-0.00000557,-0.00001
 408,0.00000228,-0.00056650,0.00011720,0.00004212,0.00004286,-0.0000009
 0,0.00002563,-0.00361208,0.00063492,0.00004828,0.00014117,0.00004466,0
 .00007824,-0.00003414,0.00000472,0.00001442,-0.00009055,-0.00007816,0.
 00004748,-0.00002090,-0.00004378,0.00000292,-0.00004500,0.00000205,-0.
 00000020,-0.00002396,0.00005126,-0.00001885,-0.00000927,0.00000966,-0.
 00001375,0.00000521,0.00000733,0.00000569,0.00004461,0.00004096,-0.000
 01305,0.00014603,0.00013140,0.00000739,0.00001459,-0.00004828,0.000013
 02,-0.00157448,-0.00018870,0.00043426,-0.00217198,-0.00552735,-0.00085
 127,0.02470736,-0.01696262,-0.00674884,0.17714758,-0.25608347,-0.06368
 609,-0.00439507,0.01659930,0.00271882,0.00023463,0.00004327,0.00006504
 ,-0.19113554,0.25914343,-0.00001776,-0.00000045,0.00001172,-0.00003230
 ,-0.00006668,0.00006281,0.00012870,-0.00020020,0.00050601,-0.00021297,
 0.00004995,-0.00012574,-0.00001063,0.00003615,-0.00002115,-0.00003066,
 -0.00003026,-0.00012373,0.00004616,0.00001230,-0.00002417,0.00106952,-
 0.00016894,0.00530123,0.00002358,0.00001914,-0.00006622,-0.00001277,0.
 00000379,-0.00000528,-0.00001248,0.00001355,-0.00003560,-0.00003885,-0
 .00001769,0.00003580,0.00002215,-0.00000091,0.00000613,0.00002389,0.00
 001105,-0.00005453,-0.00000112,0.00000855,-0.00000527,0.00000455,-0.00
 000347,-0.00000612,0.00001569,0.00000181,0.00001855,0.00028595,0.00004
 576,0.00014128,-0.00000243,-0.00000164,0.00003252,-0.00014637,0.000156
 57,-0.00081991,0.00054120,-0.00004471,0.00515811,-0.00021358,-0.000335
 30,-0.00111647,0.06491006,-0.06494978,-0.03977787,0.00315180,-0.002389
 30,0.00048308,-0.00013789,0.00009882,-0.00085824,-0.06736495,0.0668539
 9,0.03867157,0.00016336,0.00006107,-0.00066544,0.00002834,0.00075625,0
 .00132060,0.00040909,-0.00170878,-0.00041012,-0.00073818,-0.00040889,-
 0.00056545,-0.00002910,-0.00000753,-0.00007808,-0.00172006,0.00059973,
 0.00002280,-0.00048808,0.00018599,0.00003236,-0.00836597,-0.00663976,0
 .00021385,0.00104345,-0.00008519,0.00020322,-0.00022450,0.00004553,0.0
 0009296,-0.00058181,-0.00039819,0.00022689,-0.00003160,-0.00019968,0.0
 0005919,-0.00018317,-0.00000179,0.00002834,-0.00014327,0.00032538,-0.0
 0019403,-0.00005364,0.00002261,-0.00006253,0.00005795,0.00003620,0.000
 01238,0.00027375,0.00022098,-0.00001970,0.00091792,0.00035123,0.000545
 21,0.00012981,-0.00024267,0.00022741,0.01712492,0.02046396,-0.00047939
 ,-0.10276794,0.03037258,0.02593705,-0.61245667,-0.11713871,0.08565861,
 -0.05769210,-0.05487744,0.00871268,0.01898218,-0.00532549,-0.00267941,
 -0.00204112,-0.00041133,-0.00015721,-0.00275772,0.00011852,-0.00034519
 ,0.75696579,0.00004416,-0.00000606,0.00050469,0.00006792,-0.00169641,-
 0.00104636,0.00136803,0.00182411,0.00049409,-0.00144401,0.00126940,-0.
 00001519,0.00003647,0.00005114,0.00001701,-0.00029929,0.00026584,0.000
 10895,0.00019065,-0.00018800,-0.00016327,-0.00491979,-0.00077395,0.000
 92428,-0.00023445,0.00009426,0.00004608,0.00010351,-0.00002924,-0.0000
 8029,0.00002763,0.00031868,-0.00007571,-0.00005590,-0.00005439,0.00006
 151,0.00000931,0.00001744,-0.00000469,0.00006365,0.00006976,-0.0000310
 7,0.00001705,0.00001146,-0.00000439,-0.00001384,0.00002008,0.00000114,
 0.00012857,-0.00008683,-0.00008127,0.00210171,-0.00007150,0.00046211,-
 0.00009160,-0.00004264,-0.00004301,0.00891158,0.00012484,-0.00189599,0
 .02938452,0.01872364,-0.00558030,-0.10361620,-0.11740972,0.01429086,-0
 .08278414,-0.02647805,0.00991882,0.02194115,-0.00516861,-0.00478556,0.
 00079948,0.00045612,0.00007951,0.00089935,0.00429683,0.00064431,0.1359
 1490,0.12927700,0.00000966,0.00000387,0.00020908,-0.00000314,-0.000393
 75,-0.00047065,0.00009112,0.00057444,-0.00005173,-0.00014786,0.0002240
 3,0.00017448,0.00001847,0.00000308,0.00004205,0.00031612,-0.00008914,0
 .00014611,0.00009727,-0.00006681,-0.00001962,0.00088263,0.00138738,-0.
 00047022,-0.00026228,0.00002556,-0.00005479,0.00006491,-0.00000896,-0.
 00002837,0.00009134,0.00010710,-0.00001424,0.00003776,0.00004060,-0.00
 008032,0.00003618,0.00000435,0.00000142,-0.00001916,-0.00006845,0.0001
 1633,0.00000623,-0.00000510,0.00001872,-0.00001549,0.00000348,0.000008
 68,-0.00001750,-0.00004758,-0.00003486,0.00016460,-0.00001303,-0.00015
 020,-0.00000171,0.00004657,-0.00009071,-0.00184539,-0.00420507,0.00270
 701,0.02592162,-0.00586244,0.01528216,0.08691684,0.01680361,-0.0888224
 1,0.00533601,0.00464010,0.02038703,0.00010340,-0.00034613,0.00634057,0
 .00009241,0.00037383,-0.00177546,0.00006183,0.00092937,-0.00298076,-0.
 11790682,-0.01419237,0.05107351,0.00009218,0.00038711,0.00163922,0.001
 69278,-0.01164796,-0.00338732,0.00297511,-0.00166723,0.00181593,-0.025
 11992,0.00585367,-0.00674500,0.00007385,0.00080440,-0.00013940,0.00021
 169,0.00166662,0.00004055,0.00045703,0.00041181,-0.00122802,0.02009221
 ,0.01075892,0.00192294,0.00006610,-0.00021335,-0.00016128,0.00030959,-
 0.00014063,-0.00020848,-0.00078959,0.00112511,0.00027640,0.00001309,-0
 .00019570,0.00014779,0.00006901,0.00011490,0.00011317,-0.00005863,0.00
 047814,-0.00018323,-0.00000595,-0.00000438,-0.00003882,0.00000464,0.00
 011474,-0.00001013,0.00132850,0.00001890,-0.00094982,0.00431946,0.0064
 0937,0.00406284,-0.00011153,-0.00028204,0.00008105,-0.00407877,0.00460
 700,0.00065210,0.00304378,-0.00691043,-0.00086505,-0.00182203,0.026510
 48,0.00400189,-0.03011787,-0.08835163,-0.00327623,-0.13551697,-0.11628
 226,-0.00655134,0.00063603,0.00134516,-0.00026316,0.00516899,0.0011169
 8,-0.00164331,-0.00582163,-0.00855042,-0.00002903,0.16288884,0.0000271
 6,0.00012307,0.00298250,-0.00012015,-0.01105908,-0.00582451,-0.0014544
 5,0.00273415,0.00370439,-0.01423756,0.01227215,-0.00125420,0.00032187,
 0.00074603,0.00001577,0.00191599,0.00076275,0.00030105,0.00066245,-0.0
 0004471,-0.00124046,-0.00084957,-0.07379968,-0.01202831,-0.00164348,-0
 .00016392,-0.00024467,0.00061261,-0.00018178,-0.00046520,-0.00003980,0
 .00201839,-0.00036062,0.00010504,0.00002937,0.00016579,0.00030951,0.00
 013580,0.00006042,0.00017428,0.00020111,0.00002141,0.00008438,-0.00006
 131,0.00005094,-0.00007801,0.00010869,-0.00002370,0.00106649,-0.000553
 07,-0.00063321,0.01931995,-0.00426946,0.00446785,-0.00035668,-0.000025
 87,-0.00024207,0.01515320,0.00474590,-0.00269393,-0.00434816,-0.006230
 70,0.00015939,-0.00146121,0.01624550,0.00126364,-0.05441017,-0.0426786
 5,0.00021367,-0.12952730,-0.58289043,-0.05229506,-0.00113338,-0.002019
 46,0.00025288,-0.00058627,-0.00277544,0.00025359,-0.00202947,-0.004815
 23,0.00013148,0.17252273,0.69144590,0.00022746,0.00035302,0.00069639,-
 0.00050204,-0.00491021,-0.00224621,-0.00048312,0.00200721,-0.00172160,
 -0.01025080,0.00291889,0.00218136,0.00027039,0.00021255,0.00017777,0.0
 0096134,-0.00070960,0.00043225,-0.00043362,-0.00037101,0.00035012,-0.0
 0076771,-0.01594138,0.01785123,-0.00091489,-0.00024868,-0.00025807,0.0
 0017425,-0.00006194,-0.00008251,-0.00025179,0.00053977,0.00040618,0.00
 011316,0.00003955,-0.00003468,0.00010498,0.00012691,0.00005649,-0.0000
 2885,0.00009672,0.00012629,0.00002734,-0.00002846,0.00003535,-0.000022
 04,0.00006503,-0.00000066,0.00050359,-0.00002687,-0.00064716,0.0070670
 1,0.00178998,-0.00386283,-0.00005399,-0.00003454,-0.00013154,0.0036901
 0,-0.00013333,0.00017982,-0.00101784,-0.00005848,0.00008389,0.00092589
 ,-0.00153783,0.00658426,-0.00011505,0.00417444,0.01949793,-0.00824630,
 -0.05153884,-0.07526956,-0.00051031,-0.00052698,-0.00115147,-0.0016627
 2,0.00009678,-0.00440775,0.00026982,0.00044614,-0.00146280,0.01092574,
 0.06326117,0.04261749\\-0.00000451,0.00000634,-0.00000285,0.00000969,0
 .00002491,-0.00001815,-0.00001374,-0.00000103,0.00001990,-0.00001512,-
 0.00000631,0.00001311,-0.00000095,-0.00000489,-0.00000296,0.00000854,0
 .00000532,0.00000378,0.00000352,0.00000879,-0.00000226,-0.00000468,-0.
 00003715,-0.00003153,-0.00001288,0.00001854,0.00000252,0.00000878,-0.0
 0000107,-0.00000038,0.00001136,-0.00002311,-0.00001490,-0.00001204,0.0
 0000172,0.00000502,0.00000480,-0.00001403,-0.00000622,0.00001976,-0.00
 002086,-0.00000169,0.00000407,0.00001135,0.00000307,0.00000471,-0.0000
 0164,0.00000567,-0.00000904,-0.00001369,0.00001570,-0.00000231,0.00000
 210,-0.00000708,-0.00001389,0.00001478,-0.00000491,0.00002405,0.000037
 33,0.00000489,-0.00003221,0.00002238,0.00002612,0.00004651,-0.00002763
 ,-0.00002799,0.00000381,-0.00000736,-0.00001703,-0.00000734,-0.0000001
 5,0.00004260,-0.00000352,-0.00000481,-0.00000326,0.00000089,-0.0000011
 1,0.00000088,-0.00003298,0.00000117,0.00000815,0.00001471,0.00001011,-
 0.00001021\\\@
 The archive entry for this job was punched.


 THE WISE MAN HAS THE POWER TO REASON AWAY
 WHAT A FOOL BELIEVES.
                     - DOOBIE BROTHERS
 Job cpu time:       0 days 17 hours 14 minutes 41.2 seconds.
 Elapsed time:       0 days  0 hours 26 minutes  4.7 seconds.
 File lengths (MBytes):  RWF=   1167 Int=      0 D2E=      0 Chk=     28 Scr=      1
 Normal termination of Gaussian 16 at Sun Oct 27 21:23:14 2024.
