 Entering Gaussian System, Link 0=g16
 Input=PseudoUridineAnSsllgPBE0aVDZ.gjf
 Output=PseudoUridineAnSsllgPBE0aVDZ.log
 Initial command:
 /sw/contrib/chem-src/g16/c01/g16/l1.exe "/scr/Gau-32838.inp" -scrdir="/scr/"
 Entering Link 1 = /sw/contrib/chem-src/g16/c01/g16/l1.exe PID=     32839.
  
 Copyright (c) 1988-2019, Gaussian, Inc.  All Rights Reserved.
  
 This is part of the Gaussian(R) 16 program.  It is based on
 the Gaussian(R) 09 system (copyright 2009, Gaussian, Inc.),
 the Gaussian(R) 03 system (copyright 2003, Gaussian, Inc.),
 the Gaussian(R) 98 system (copyright 1998, Gaussian, Inc.),
 the Gaussian(R) 94 system (copyright 1995, Gaussian, Inc.),
 the Gaussian 92(TM) system (copyright 1992, Gaussian, Inc.),
 the Gaussian 90(TM) system (copyright 1990, Gaussian, Inc.),
 the Gaussian 88(TM) system (copyright 1988, Gaussian, Inc.),
 the Gaussian 86(TM) system (copyright 1986, Carnegie Mellon
 University), and the Gaussian 82(TM) system (copyright 1983,
 Carnegie Mellon University). Gaussian is a federally registered
 trademark of Gaussian, Inc.
  
 This software contains proprietary and confidential information,
 including trade secrets, belonging to Gaussian, Inc.
  
 This software is provided under written license and may be
 used, copied, transmitted, or stored only in accord with that
 written license.
  
 The following legend is applicable only to US Government
 contracts under FAR:
  
                    RESTRICTED RIGHTS LEGEND
  
 Use, reproduction and disclosure by the US Government is
 subject to restrictions as set forth in subparagraphs (a)
 and (c) of the Commercial Computer Software - Restricted
 Rights clause in FAR 52.227-19.
  
 Gaussian, Inc.
 340 Quinnipiac St., Bldg. 40, Wallingford CT 06492
  
  
 ---------------------------------------------------------------
 Warning -- This program may not be used in any manner that
 competes with the business of Gaussian, Inc. or will provide
 assistance to any competitor of Gaussian, Inc.  The licensee
 of this program is prohibited from giving any competitor of
 Gaussian, Inc. access to this program.  By using this program,
 the user acknowledges that Gaussian, Inc. is engaged in the
 business of creating and licensing software in the field of
 computational chemistry and represents and warrants to the
 licensee that it is not a competitor of Gaussian, Inc. and that
 it will not use this program in any manner prohibited above.
 ---------------------------------------------------------------
  

 Cite this work as:
 Gaussian 16, Revision C.01,
 M. J. Frisch, G. W. Trucks, H. B. Schlegel, G. E. Scuseria, 
 M. A. Robb, J. R. Cheeseman, G. Scalmani, V. Barone, 
 G. A. Petersson, H. Nakatsuji, X. Li, M. Caricato, A. V. Marenich, 
 J. Bloino, B. G. Janesko, R. Gomperts, B. Mennucci, H. P. Hratchian, 
 J. V. Ortiz, A. F. Izmaylov, J. L. Sonnenberg, D. Williams-Young, 
 F. Ding, F. Lipparini, F. Egidi, J. Goings, B. Peng, A. Petrone, 
 T. Henderson, D. Ranasinghe, V. G. Zakrzewski, J. Gao, N. Rega, 
 G. Zheng, W. Liang, M. Hada, M. Ehara, K. Toyota, R. Fukuda, 
 J. Hasegawa, M. Ishida, T. Nakajima, Y. Honda, O. Kitao, H. Nakai, 
 T. Vreven, K. Throssell, J. A. Montgomery, Jr., J. E. Peralta, 
 F. Ogliaro, M. J. Bearpark, J. J. Heyd, E. N. Brothers, K. N. Kudin, 
 V. N. Staroverov, T. A. Keith, R. Kobayashi, J. Normand, 
 K. Raghavachari, A. P. Rendell, J. C. Burant, S. S. Iyengar, 
 J. Tomasi, M. Cossi, J. M. Millam, M. Klene, C. Adamo, R. Cammi, 
 J. W. Ochterski, R. L. Martin, K. Morokuma, O. Farkas, 
 J. B. Foresman, and D. J. Fox, Gaussian, Inc., Wallingford CT, 2019.
 
 ******************************************
 Gaussian 16:  EM64L-G16RevC.01  3-Jul-2019
                27-Oct-2024 
 ******************************************
 %nprocshared=40
 Will use up to   40 processors via shared memory.
 %mem=50gb
 ------------------------------------------------------
 # PBE1PBE/aug-cc-pVDZ opt freq EmpiricalDispersion=GD3
 ------------------------------------------------------
 1/18=20,19=15,26=3,38=1/1,3;
 2/9=110,12=2,17=6,18=5,40=1/2;
 3/5=16,7=10,11=2,25=1,30=1,71=1,74=-13,124=31/1,2,3;
 4//1;
 5/5=2,38=5/2;
 6/7=2,8=2,9=2,10=2,28=1/1;
 7//1,2,3,16;
 1/18=20,19=15,26=3/3(2);
 2/9=110/2;
 99//99;
 2/9=110/2;
 3/5=16,7=10,11=2,25=1,30=1,71=1,74=-13,124=31/1,2,3;
 4/5=5,16=3,69=1/1;
 5/5=2,38=5/2;
 7//1,2,3,16;
 1/18=20,19=15,26=3/3(-5);
 2/9=110/2;
 6/7=2,8=2,9=2,10=2,19=2,28=1/1;
 99/9=1/99;
 ----
 blah
 ----
 Symbolic Z-matrix:
 Charge =  0 Multiplicity = 2
 C                     2.70511   0.62678   0.19453 
 C                     1.24762   0.91886   0.5865 
 C                     0.47452   0.25231  -0.56346 
 O                     1.04309   2.29511   0.68665 
 H                     1.00201   0.39103   1.52605 
 O                     1.20937  -0.94689  -0.8066 
 H                     0.55411   0.92411  -1.43949 
 C                    -0.96376  -0.05039  -0.3009 
 C                     2.60311  -0.67011  -0.62385 
 H                     3.34599   0.49041   1.0807 
 O                     3.19827   1.68128  -0.60554 
 C                     3.20031  -1.89964   0.03173 
 H                     3.08512  -0.49648  -1.60079 
 O                     2.56267  -2.19927   1.25778 
 H                     4.264    -1.72535   0.24622 
 H                     3.12442  -2.75288  -0.66679 
 H                     2.60295   2.42283  -0.38774 
 H                     0.06389   2.41896   0.44543 
 H                     1.61749  -2.0883    1.08748 
 C                    -1.47736  -1.30029  -0.34957 
 N                    -2.80784  -1.49157  -0.14359 
 C                    -3.71308  -0.42768   0.07338 
 N                    -3.20894   0.82411   0.12886 
 C                    -1.89316   1.05811  -0.0217 
 H                    -0.87023  -2.179    -0.56339 
 H                    -3.22312  -2.40912  -0.18729 
 O                    -4.90438  -0.7347    0.20105 
 O                    -1.42765   2.233     0.06701 
 

 GradGradGradGradGradGradGradGradGradGradGradGradGradGradGradGradGradGrad
 Berny optimization.
 Initialization pass.
                           ----------------------------
                           !    Initial Parameters    !
                           ! (Angstroms and Degrees)  !
 --------------------------                            --------------------------
 ! Name  Definition              Value          Derivative Info.                !
 --------------------------------------------------------------------------------
 ! R1    R(1,2)                  1.5373         estimate D2E/DX2                !
 ! R2    R(1,9)                  1.5369         estimate D2E/DX2                !
 ! R3    R(1,10)                 1.1021         estimate D2E/DX2                !
 ! R4    R(1,11)                 1.4125         estimate D2E/DX2                !
 ! R5    R(2,3)                  1.5377         estimate D2E/DX2                !
 ! R6    R(2,4)                  1.395          estimate D2E/DX2                !
 ! R7    R(2,5)                  1.1053         estimate D2E/DX2                !
 ! R8    R(3,6)                  1.4273         estimate D2E/DX2                !
 ! R9    R(3,7)                  1.1068         estimate D2E/DX2                !
 ! R10   R(3,8)                  1.4931         estimate D2E/DX2                !
 ! R11   R(4,18)                 1.016          estimate D2E/DX2                !
 ! R12   R(6,9)                  1.4327         estimate D2E/DX2                !
 ! R13   R(8,20)                 1.3522         estimate D2E/DX2                !
 ! R14   R(8,24)                 1.4733         estimate D2E/DX2                !
 ! R15   R(9,12)                 1.516          estimate D2E/DX2                !
 ! R16   R(9,13)                 1.1031         estimate D2E/DX2                !
 ! R17   R(11,17)                0.9756         estimate D2E/DX2                !
 ! R18   R(12,14)                1.4141         estimate D2E/DX2                !
 ! R19   R(12,15)                1.099          estimate D2E/DX2                !
 ! R20   R(12,16)                1.1053         estimate D2E/DX2                !
 ! R21   R(14,19)                0.9668         estimate D2E/DX2                !
 ! R22   R(20,21)                1.3598         estimate D2E/DX2                !
 ! R23   R(20,25)                1.0893         estimate D2E/DX2                !
 ! R24   R(21,22)                1.4137         estimate D2E/DX2                !
 ! R25   R(21,26)                1.0081         estimate D2E/DX2                !
 ! R26   R(22,23)                1.3506         estimate D2E/DX2                !
 ! R27   R(22,27)                1.2368         estimate D2E/DX2                !
 ! R28   R(23,24)                1.3449         estimate D2E/DX2                !
 ! R29   R(24,28)                1.2669         estimate D2E/DX2                !
 ! A1    A(2,1,9)              103.4843         estimate D2E/DX2                !
 ! A2    A(2,1,10)             111.7039         estimate D2E/DX2                !
 ! A3    A(2,1,11)             109.4868         estimate D2E/DX2                !
 ! A4    A(9,1,10)             111.2441         estimate D2E/DX2                !
 ! A5    A(9,1,11)             110.5798         estimate D2E/DX2                !
 ! A6    A(10,1,11)            110.1684         estimate D2E/DX2                !
 ! A7    A(1,2,3)              101.749          estimate D2E/DX2                !
 ! A8    A(1,2,4)              110.1673         estimate D2E/DX2                !
 ! A9    A(1,2,5)              109.675          estimate D2E/DX2                !
 ! A10   A(3,2,4)              114.0571         estimate D2E/DX2                !
 ! A11   A(3,2,5)              108.4805         estimate D2E/DX2                !
 ! A12   A(4,2,5)              112.1814         estimate D2E/DX2                !
 ! A13   A(2,3,6)              103.4592         estimate D2E/DX2                !
 ! A14   A(2,3,7)              107.017          estimate D2E/DX2                !
 ! A15   A(2,3,8)              116.1482         estimate D2E/DX2                !
 ! A16   A(6,3,7)              109.7616         estimate D2E/DX2                !
 ! A17   A(6,3,8)              110.8293         estimate D2E/DX2                !
 ! A18   A(7,3,8)              109.3605         estimate D2E/DX2                !
 ! A19   A(2,4,18)             104.1532         estimate D2E/DX2                !
 ! A20   A(3,6,9)              108.4704         estimate D2E/DX2                !
 ! A21   A(3,8,20)             123.1591         estimate D2E/DX2                !
 ! A22   A(3,8,24)             119.2411         estimate D2E/DX2                !
 ! A23   A(20,8,24)            117.5617         estimate D2E/DX2                !
 ! A24   A(1,9,6)              107.1883         estimate D2E/DX2                !
 ! A25   A(1,9,12)             115.339          estimate D2E/DX2                !
 ! A26   A(1,9,13)             108.045          estimate D2E/DX2                !
 ! A27   A(6,9,12)             106.362          estimate D2E/DX2                !
 ! A28   A(6,9,13)             110.0303         estimate D2E/DX2                !
 ! A29   A(12,9,13)            109.7857         estimate D2E/DX2                !
 ! A30   A(1,11,17)            103.1765         estimate D2E/DX2                !
 ! A31   A(9,12,14)            111.6644         estimate D2E/DX2                !
 ! A32   A(9,12,15)            109.6975         estimate D2E/DX2                !
 ! A33   A(9,12,16)            109.011          estimate D2E/DX2                !
 ! A34   A(14,12,15)           107.5072         estimate D2E/DX2                !
 ! A35   A(14,12,16)           110.6963         estimate D2E/DX2                !
 ! A36   A(15,12,16)           108.1924         estimate D2E/DX2                !
 ! A37   A(12,14,19)           105.2958         estimate D2E/DX2                !
 ! A38   A(8,20,21)            119.7487         estimate D2E/DX2                !
 ! A39   A(8,20,25)            122.7547         estimate D2E/DX2                !
 ! A40   A(21,20,25)           117.4908         estimate D2E/DX2                !
 ! A41   A(20,21,22)           122.9507         estimate D2E/DX2                !
 ! A42   A(20,21,26)           121.6354         estimate D2E/DX2                !
 ! A43   A(22,21,26)           115.3307         estimate D2E/DX2                !
 ! A44   A(21,22,23)           117.6965         estimate D2E/DX2                !
 ! A45   A(21,22,27)           116.4753         estimate D2E/DX2                !
 ! A46   A(23,22,27)           125.8276         estimate D2E/DX2                !
 ! A47   A(22,23,24)           121.4561         estimate D2E/DX2                !
 ! A48   A(8,24,23)            120.4973         estimate D2E/DX2                !
 ! A49   A(8,24,28)            118.6363         estimate D2E/DX2                !
 ! A50   A(23,24,28)           120.8656         estimate D2E/DX2                !
 ! D1    D(9,1,2,3)            -27.4504         estimate D2E/DX2                !
 ! D2    D(9,1,2,4)           -148.7795         estimate D2E/DX2                !
 ! D3    D(9,1,2,5)             87.271          estimate D2E/DX2                !
 ! D4    D(10,1,2,3)          -147.2183         estimate D2E/DX2                !
 ! D5    D(10,1,2,4)            91.4526         estimate D2E/DX2                !
 ! D6    D(10,1,2,5)           -32.4969         estimate D2E/DX2                !
 ! D7    D(11,1,2,3)            90.473          estimate D2E/DX2                !
 ! D8    D(11,1,2,4)           -30.8561         estimate D2E/DX2                !
 ! D9    D(11,1,2,5)          -154.8056         estimate D2E/DX2                !
 ! D10   D(2,1,9,6)              7.0331         estimate D2E/DX2                !
 ! D11   D(2,1,9,12)          -111.1793         estimate D2E/DX2                !
 ! D12   D(2,1,9,13)           125.5783         estimate D2E/DX2                !
 ! D13   D(10,1,9,6)           127.1152         estimate D2E/DX2                !
 ! D14   D(10,1,9,12)            8.9028         estimate D2E/DX2                !
 ! D15   D(10,1,9,13)         -114.3397         estimate D2E/DX2                !
 ! D16   D(11,1,9,6)          -110.1261         estimate D2E/DX2                !
 ! D17   D(11,1,9,12)          131.6615         estimate D2E/DX2                !
 ! D18   D(11,1,9,13)            8.4191         estimate D2E/DX2                !
 ! D19   D(2,1,11,17)           21.1724         estimate D2E/DX2                !
 ! D20   D(9,1,11,17)          134.5676         estimate D2E/DX2                !
 ! D21   D(10,1,11,17)        -102.0491         estimate D2E/DX2                !
 ! D22   D(1,2,3,6)             39.1313         estimate D2E/DX2                !
 ! D23   D(1,2,3,7)            -76.7699         estimate D2E/DX2                !
 ! D24   D(1,2,3,8)            160.7865         estimate D2E/DX2                !
 ! D25   D(4,2,3,6)            157.7178         estimate D2E/DX2                !
 ! D26   D(4,2,3,7)             41.8165         estimate D2E/DX2                !
 ! D27   D(4,2,3,8)            -80.6271         estimate D2E/DX2                !
 ! D28   D(5,2,3,6)            -76.4696         estimate D2E/DX2                !
 ! D29   D(5,2,3,7)            167.6292         estimate D2E/DX2                !
 ! D30   D(5,2,3,8)             45.1856         estimate D2E/DX2                !
 ! D31   D(1,2,4,18)           150.4797         estimate D2E/DX2                !
 ! D32   D(3,2,4,18)            36.8063         estimate D2E/DX2                !
 ! D33   D(5,2,4,18)           -87.0348         estimate D2E/DX2                !
 ! D34   D(2,3,6,9)            -36.4485         estimate D2E/DX2                !
 ! D35   D(7,3,6,9)             77.4886         estimate D2E/DX2                !
 ! D36   D(8,3,6,9)           -161.6095         estimate D2E/DX2                !
 ! D37   D(2,3,8,20)          -120.1586         estimate D2E/DX2                !
 ! D38   D(2,3,8,24)            62.1437         estimate D2E/DX2                !
 ! D39   D(6,3,8,20)            -2.5003         estimate D2E/DX2                !
 ! D40   D(6,3,8,24)           179.8021         estimate D2E/DX2                !
 ! D41   D(7,3,8,20)           118.6387         estimate D2E/DX2                !
 ! D42   D(7,3,8,24)           -59.059          estimate D2E/DX2                !
 ! D43   D(3,6,9,1)             18.5327         estimate D2E/DX2                !
 ! D44   D(3,6,9,12)           142.4301         estimate D2E/DX2                !
 ! D45   D(3,6,9,13)           -98.7185         estimate D2E/DX2                !
 ! D46   D(3,8,20,21)         -177.7369         estimate D2E/DX2                !
 ! D47   D(3,8,20,25)            1.3714         estimate D2E/DX2                !
 ! D48   D(24,8,20,21)          -0.003          estimate D2E/DX2                !
 ! D49   D(24,8,20,25)         179.1053         estimate D2E/DX2                !
 ! D50   D(3,8,24,23)          175.4901         estimate D2E/DX2                !
 ! D51   D(3,8,24,28)           -4.1955         estimate D2E/DX2                !
 ! D52   D(20,8,24,23)          -2.3358         estimate D2E/DX2                !
 ! D53   D(20,8,24,28)         177.9785         estimate D2E/DX2                !
 ! D54   D(1,9,12,14)           60.7078         estimate D2E/DX2                !
 ! D55   D(1,9,12,15)          -58.3713         estimate D2E/DX2                !
 ! D56   D(1,9,12,16)         -176.6714         estimate D2E/DX2                !
 ! D57   D(6,9,12,14)          -57.9644         estimate D2E/DX2                !
 ! D58   D(6,9,12,15)         -177.0435         estimate D2E/DX2                !
 ! D59   D(6,9,12,16)           64.6564         estimate D2E/DX2                !
 ! D60   D(13,9,12,14)        -176.9761         estimate D2E/DX2                !
 ! D61   D(13,9,12,15)          63.9448         estimate D2E/DX2                !
 ! D62   D(13,9,12,16)         -54.3554         estimate D2E/DX2                !
 ! D63   D(9,12,14,19)          43.3579         estimate D2E/DX2                !
 ! D64   D(15,12,14,19)        163.7283         estimate D2E/DX2                !
 ! D65   D(16,12,14,19)        -78.294          estimate D2E/DX2                !
 ! D66   D(8,20,21,22)           2.5249         estimate D2E/DX2                !
 ! D67   D(8,20,21,26)         179.0521         estimate D2E/DX2                !
 ! D68   D(25,20,21,22)       -176.6298         estimate D2E/DX2                !
 ! D69   D(25,20,21,26)         -0.1026         estimate D2E/DX2                !
 ! D70   D(20,21,22,23)         -2.7216         estimate D2E/DX2                !
 ! D71   D(20,21,22,27)        177.5518         estimate D2E/DX2                !
 ! D72   D(26,21,22,23)       -179.4506         estimate D2E/DX2                !
 ! D73   D(26,21,22,27)          0.8228         estimate D2E/DX2                !
 ! D74   D(21,22,23,24)          0.2669         estimate D2E/DX2                !
 ! D75   D(27,22,23,24)        179.9651         estimate D2E/DX2                !
 ! D76   D(22,23,24,8)           2.1738         estimate D2E/DX2                !
 ! D77   D(22,23,24,28)       -178.1477         estimate D2E/DX2                !
 --------------------------------------------------------------------------------
 Trust Radius=3.00D-01 FncErr=1.00D-07 GrdErr=1.00D-06 EigMax=2.50D+02 EigMin=1.00D-04
 Number of steps in this run=    166 maximum allowed number of steps=    168.
 GradGradGradGradGradGradGradGradGradGradGradGradGradGradGradGradGradGrad

                          Input orientation:                          
 ---------------------------------------------------------------------
 Center     Atomic      Atomic             Coordinates (Angstroms)
 Number     Number       Type             X           Y           Z
 ---------------------------------------------------------------------
      1          6           0        2.705110    0.626780    0.194526
      2          6           0        1.247615    0.918862    0.586503
      3          6           0        0.474520    0.252308   -0.563462
      4          8           0        1.043091    2.295106    0.686650
      5          1           0        1.002007    0.391025    1.526046
      6          8           0        1.209370   -0.946891   -0.806603
      7          1           0        0.554110    0.924106   -1.439485
      8          6           0       -0.963763   -0.050389   -0.300895
      9          6           0        2.603112   -0.670106   -0.623852
     10          1           0        3.345988    0.490414    1.080699
     11          8           0        3.198267    1.681276   -0.605539
     12          6           0        3.200311   -1.899641    0.031731
     13          1           0        3.085122   -0.496483   -1.600791
     14          8           0        2.562671   -2.199267    1.257781
     15          1           0        4.264000   -1.725354    0.246218
     16          1           0        3.124423   -2.752882   -0.666787
     17          1           0        2.602949    2.422832   -0.387735
     18          1           0        0.063892    2.418958    0.445431
     19          1           0        1.617485   -2.088302    1.087482
     20          6           0       -1.477362   -1.300285   -0.349565
     21          7           0       -2.807838   -1.491565   -0.143591
     22          6           0       -3.713084   -0.427675    0.073376
     23          7           0       -3.208941    0.824113    0.128864
     24          6           0       -1.893161    1.058110   -0.021701
     25          1           0       -0.870229   -2.178999   -0.563388
     26          1           0       -3.223124   -2.409120   -0.187286
     27          8           0       -4.904375   -0.734696    0.201047
     28          8           0       -1.427645    2.232996    0.067005
 ---------------------------------------------------------------------
                    Distance matrix (angstroms):
                    1          2          3          4          5
     1  C    0.000000
     2  C    1.537286   0.000000
     3  C    2.385436   1.537657   0.000000
     4  O    2.405786   1.394958   2.461519   0.000000
     5  H    2.174646   1.105295   2.159520   2.081297   0.000000
     6  O    2.390803   2.328785   1.427305   3.573234   2.697085
     7  H    2.717572   2.141402   1.106826   2.576663   3.046172
     8  C    3.763593   2.572375   1.493059   3.240996   2.719708
     9  C    1.536899   2.413949   2.320646   3.597716   2.882984
    10  H    1.102099   2.197946   3.317422   2.952206   2.387982
    11  O    1.412540   2.409830   3.076121   2.586759   3.321439
    12  C    2.579637   3.473435   3.523503   4.762186   3.508941
    13  H    2.151579   3.188085   2.907229   4.146715   3.860589
    14  O    3.022804   3.450031   3.699665   4.778567   3.035993
    15  H    2.822294   4.025699   4.350504   5.170332   4.093607
    16  H    3.512805   4.309855   4.007971   5.625470   4.381474
    17  H    1.890838   2.246775   3.045039   1.898361   3.217734
    18  H    3.201701   1.916087   2.425047   1.016050   2.481995
    19  H    3.058099   3.070964   3.083900   4.439016   2.591952
    20  C    4.637099   3.636803   2.503226   4.511459   3.539169
    21  N    5.915598   4.773876   3.740489   5.464232   4.565824
    22  C    6.505364   5.165752   4.289984   5.514603   5.001260
    23  N    5.917707   4.480993   3.791327   4.533732   4.457776
    24  C    4.623516   3.202152   2.559050   3.263969   3.350003
    25  H    4.607589   3.924826   2.778417   5.024043   3.804737
    26  H    6.671314   5.626875   4.571354   6.410468   5.350519
    27  O    7.730325   6.381991   5.521880   6.692373   6.156965
    28  O    4.435747   3.025532   2.817596   2.548010   3.380069
                    6          7          8          9         10
     6  O    0.000000
     7  H    2.080994   0.000000
     8  C    2.404571   2.133065   0.000000
     9  C    1.432663   2.721246   3.634687   0.000000
    10  H    3.192631   3.786027   4.557985   2.191841   0.000000
    11  O    3.302030   2.874080   4.518182   2.425601   2.069631
    12  C    2.361013   4.140097   4.568357   1.515979   2.614176
    13  H    2.086156   2.906908   4.275769   1.103127   2.869217
    14  O    2.767951   4.589664   4.413942   2.424977   2.807014
    15  H    3.323432   4.860506   5.516733   2.151539   2.539435
    16  H    2.636016   4.552341   4.914327   2.147455   3.690768
    17  H    3.670497   2.747744   4.341175   3.101938   2.538237
    18  H    3.769436   2.455159   2.776824   4.139242   3.859404
    19  H    2.248763   4.073197   3.569807   2.431338   3.104440
    20  C    2.748145   3.203548   1.352181   4.137950   5.340128
    21  N    4.107824   4.337914   2.345708   5.493981   6.580023
    22  C    5.027375   4.724934   2.800212   6.359185   7.189443
    23  N    4.851085   4.078023   2.447503   6.048077   6.632077
    24  C    3.776480   2.831467   1.473262   4.854461   5.383888
    25  H    2.429398   3.524989   2.146772   3.787415   5.254072
    26  H    4.708362   5.190944   3.268215   6.095883   7.291661
    27  O    6.199860   5.936163   4.030961   7.552946   8.387084
    28  O    4.222407   2.812483   2.358895   5.015206   5.181866
                   11         12         13         14         15
    11  O    0.000000
    12  C    3.637181   0.000000
    13  H    2.397074   2.155748   0.000000
    14  O    4.351386   1.414058   3.368065   0.000000
    15  H    3.669660   1.099006   2.512234   2.035282   0.000000
    16  H    4.435196   1.105308   2.442385   2.079908   1.785505
    17  H    0.975575   4.383670   3.197874   4.906439   4.513140
    18  H    3.387185   5.353370   4.670616   5.313362   5.903890
    19  H    4.424354   1.911947   3.451762   0.966794   2.800625
    20  C    5.551282   4.731304   4.798742   4.440000   5.787822
    21  N    6.808349   6.024543   6.151471   5.595271   7.086431
    22  C    7.257780   7.068483   7.001655   6.627704   8.083793
    23  N    6.505874   6.964681   6.659648   6.612623   7.896734
    24  C    5.162542   5.890212   5.449182   5.665864   6.762402
    25  H    5.608579   4.123288   4.421749   3.886112   5.217429
    26  H    7.624994   6.447329   6.741672   5.967217   7.530769
    27  O    8.493545   8.189731   8.193621   7.682345   9.221851
    28  O    4.706992   6.204668   5.531425   6.081573   6.935090
                   16         17         18         19         20
    16  H    0.000000
    17  H    5.209397   0.000000
    18  H    6.111613   2.672263   0.000000
    19  H    2.406239   4.847446   4.810538   0.000000
    20  C    4.836020   5.523766   4.103687   3.502021   0.000000
    21  N    6.087395   6.682718   4.887328   4.631967   1.359845
    22  C    7.259885   6.944803   4.744185   5.674598   2.436961
    23  N    7.317066   6.049863   3.654474   5.717998   2.782144
    24  C    6.333715   4.712903   2.429028   4.843019   2.417108
    25  H    4.036989   5.768073   4.799115   2.987025   1.089252
    26  H    6.374908   7.571728   5.874959   5.015920   2.074496
    27  O    8.323930   8.165572   5.889731   6.719574   3.516743
    28  O    6.791079   4.060605   1.549991   5.384033   3.558100
                   21         22         23         24         25
    21  N    0.000000
    22  C    1.413650   0.000000
    23  N    2.365899   1.350634   0.000000
    24  C    2.711519   2.351322   1.344880   0.000000
    25  H    2.098362   3.399181   3.868781   3.437832   0.000000
    26  H    1.008107   2.057700   3.248684   3.717244   2.393851
    27  O    2.255459   1.236825   2.304255   3.511578   4.352552
    28  O    3.977642   3.507484   2.271958   1.266859   4.491526
                   26         27         28
    26  H    0.000000
    27  O    2.404392   0.000000
    28  O    4.983739   4.573053   0.000000
 Stoichiometry    C9H11N2O6(2)
 Framework group  C1[X(C9H11N2O6)]
 Deg. of freedom    78
 Full point group                 C1      NOp   1
 Largest Abelian subgroup         C1      NOp   1
 Largest concise Abelian subgroup C1      NOp   1
                         Standard orientation:                         
 ---------------------------------------------------------------------
 Center     Atomic      Atomic             Coordinates (Angstroms)
 Number     Number       Type             X           Y           Z
 ---------------------------------------------------------------------
      1          6           0        2.705110    0.626780    0.194526
      2          6           0        1.247615    0.918862    0.586503
      3          6           0        0.474520    0.252308   -0.563462
      4          8           0        1.043091    2.295106    0.686650
      5          1           0        1.002007    0.391025    1.526046
      6          8           0        1.209370   -0.946891   -0.806603
      7          1           0        0.554110    0.924106   -1.439485
      8          6           0       -0.963763   -0.050389   -0.300895
      9          6           0        2.603112   -0.670106   -0.623852
     10          1           0        3.345988    0.490414    1.080699
     11          8           0        3.198267    1.681276   -0.605539
     12          6           0        3.200311   -1.899641    0.031731
     13          1           0        3.085122   -0.496483   -1.600791
     14          8           0        2.562671   -2.199267    1.257781
     15          1           0        4.264000   -1.725354    0.246218
     16          1           0        3.124423   -2.752882   -0.666787
     17          1           0        2.602949    2.422832   -0.387735
     18          1           0        0.063892    2.418958    0.445431
     19          1           0        1.617485   -2.088302    1.087482
     20          6           0       -1.477362   -1.300285   -0.349565
     21          7           0       -2.807838   -1.491565   -0.143591
     22          6           0       -3.713084   -0.427675    0.073376
     23          7           0       -3.208941    0.824113    0.128864
     24          6           0       -1.893161    1.058110   -0.021701
     25          1           0       -0.870229   -2.178999   -0.563388
     26          1           0       -3.223124   -2.409120   -0.187286
     27          8           0       -4.904375   -0.734696    0.201047
     28          8           0       -1.427645    2.232996    0.067005
 ---------------------------------------------------------------------
 Rotational constants (GHZ):           0.8928794           0.2995192           0.2406554
 Standard basis: Aug-CC-pVDZ (5D, 7F)
 There are   524 symmetry adapted cartesian basis functions of A   symmetry.
 There are   490 symmetry adapted basis functions of A   symmetry.
   490 basis functions,   852 primitive gaussians,   524 cartesian basis functions
    64 alpha electrons       63 beta electrons
       nuclear repulsion energy      1294.9777164000 Hartrees.
 NAtoms=   28 NActive=   28 NUniq=   28 SFac= 1.00D+00 NAtFMM=   60 NAOKFM=F Big=F
 Integral buffers will be    131072 words long.
 Raffenetti 2 integral format.
 Two-electron integral symmetry is turned on.
 Nuclear repulsion after empirical dispersion term =     1294.9586130403 Hartrees.
 One-electron integrals computed using PRISM.
 NBasis=   490 RedAO= T EigKep=  2.79D-06  NBF=   490
 NBsUse=   490 1.00D-06 EigRej= -1.00D+00 NBFU=   490
 ExpMin= 2.97D-02 ExpMax= 1.17D+04 ExpMxC= 4.01D+02 IAcc=3 IRadAn=         5 AccDes= 0.00D+00
 Harris functional with IExCor= 1009 and IRadAn=       5 diagonalized for initial guess.
 HarFok:  IExCor= 1009 AccDes= 0.00D+00 IRadAn=         5 IDoV= 1 UseB2=F ITyADJ=14
 ICtDFT=  3500011 ScaDFX=  1.000000  1.000000  1.000000  1.000000
 FoFCou: FMM=F IPFlag=           0 FMFlag=      100000 FMFlg1=           0
         NFxFlg=           0 DoJE=T BraDBF=F KetDBF=T FulRan=T
         wScrn=  0.000000 ICntrl=       500 IOpCl=  0 I1Cent=   200000004 NGrid=           0
         NMat0=    1 NMatS0=      1 NMatT0=    0 NMatD0=    1 NMtDS0=    0 NMtDT0=    0
 Petite list used in FoFCou.
 Initial guess <Sx>= 0.0000 <Sy>= 0.0000 <Sz>= 0.5000 <S**2>= 0.7500 S= 0.5000
 Requested convergence on RMS density matrix=1.00D-08 within 128 cycles.
 Requested convergence on MAX density matrix=1.00D-06.
 Requested convergence on             energy=1.00D-06.
 No special actions if energy rises.
 Restarting incremental Fock formation.
 SCF Done:  E(UPBE1PBE) =  -909.527351072     A.U. after   31 cycles
            NFock= 31  Conv=0.25D-08     -V/T= 2.0055
 <Sx>= 0.0000 <Sy>= 0.0000 <Sz>= 0.5000 <S**2>= 0.7741 S= 0.5120
 <L.S>= 0.000000000000E+00
 Annihilation of the first spin contaminant:
 S**2 before annihilation     0.7741,   after     0.7503

 **********************************************************************

            Population analysis using the SCF Density.

 **********************************************************************

 Orbital symmetries:
 Alpha Orbitals:
       Occupied  (A) (A) (A) (A) (A) (A) (A) (A) (A) (A) (A) (A)
                 (A) (A) (A) (A) (A) (A) (A) (A) (A) (A) (A) (A)
                 (A) (A) (A) (A) (A) (A) (A) (A) (A) (A) (A) (A)
                 (A) (A) (A) (A) (A) (A) (A) (A) (A) (A) (A) (A)
                 (A) (A) (A) (A) (A) (A) (A) (A) (A) (A) (A) (A)
                 (A) (A) (A) (A)
       Virtual   (A) (A) (A) (A) (A) (A) (A) (A) (A) (A) (A) (A)
                 (A) (A) (A) (A) (A) (A) (A) (A) (A) (A) (A) (A)
                 (A) (A) (A) (A) (A) (A) (A) (A) (A) (A) (A) (A)
                 (A) (A) (A) (A) (A) (A) (A) (A) (A) (A) (A) (A)
                 (A) (A) (A) (A) (A) (A) (A) (A) (A) (A) (A) (A)
                 (A) (A) (A) (A) (A) (A) (A) (A) (A) (A) (A) (A)
                 (A) (A) (A) (A) (A) (A) (A) (A) (A) (A) (A) (A)
                 (A) (A) (A) (A) (A) (A) (A) (A) (A) (A) (A) (A)
                 (A) (A) (A) (A) (A) (A) (A) (A) (A) (A) (A) (A)
                 (A) (A) (A) (A) (A) (A) (A) (A) (A) (A) (A) (A)
                 (A) (A) (A) (A) (A) (A) (A) (A) (A) (A) (A) (A)
                 (A) (A) (A) (A) (A) (A) (A) (A) (A) (A) (A) (A)
                 (A) (A) (A) (A) (A) (A) (A) (A) (A) (A) (A) (A)
                 (A) (A) (A) (A) (A) (A) (A) (A) (A) (A) (A) (A)
                 (A) (A) (A) (A) (A) (A) (A) (A) (A) (A) (A) (A)
                 (A) (A) (A) (A) (A) (A) (A) (A) (A) (A) (A) (A)
                 (A) (A) (A) (A) (A) (A) (A) (A) (A) (A) (A) (A)
                 (A) (A) (A) (A) (A) (A) (A) (A) (A) (A) (A) (A)
                 (A) (A) (A) (A) (A) (A) (A) (A) (A) (A) (A) (A)
                 (A) (A) (A) (A) (A) (A) (A) (A) (A) (A) (A) (A)
                 (A) (A) (A) (A) (A) (A) (A) (A) (A) (A) (A) (A)
                 (A) (A) (A) (A) (A) (A) (A) (A) (A) (A) (A) (A)
                 (A) (A) (A) (A) (A) (A) (A) (A) (A) (A) (A) (A)
                 (A) (A) (A) (A) (A) (A) (A) (A) (A) (A) (A) (A)
                 (A) (A) (A) (A) (A) (A) (A) (A) (A) (A) (A) (A)
                 (A) (A) (A) (A) (A) (A) (A) (A) (A) (A) (A) (A)
                 (A) (A) (A) (A) (A) (A) (A) (A) (A) (A) (A) (A)
                 (A) (A) (A) (A) (A) (A) (A) (A) (A) (A) (A) (A)
                 (A) (A) (A) (A) (A) (A) (A) (A) (A) (A) (A) (A)
                 (A) (A) (A) (A) (A) (A) (A) (A) (A) (A) (A) (A)
                 (A) (A) (A) (A) (A) (A) (A) (A) (A) (A) (A) (A)
                 (A) (A) (A) (A) (A) (A) (A) (A) (A) (A) (A) (A)
                 (A) (A) (A) (A) (A) (A) (A) (A) (A) (A) (A) (A)
                 (A) (A) (A) (A) (A) (A) (A) (A) (A) (A) (A) (A)
                 (A) (A) (A) (A) (A) (A) (A) (A) (A) (A) (A) (A)
                 (A) (A) (A) (A) (A) (A)
 Beta  Orbitals:
       Occupied  (A) (A) (A) (A) (A) (A) (A) (A) (A) (A) (A) (A)
                 (A) (A) (A) (A) (A) (A) (A) (A) (A) (A) (A) (A)
                 (A) (A) (A) (A) (A) (A) (A) (A) (A) (A) (A) (A)
                 (A) (A) (A) (A) (A) (A) (A) (A) (A) (A) (A) (A)
                 (A) (A) (A) (A) (A) (A) (A) (A) (A) (A) (A) (A)
                 (A) (A) (A)
       Virtual   (A) (A) (A) (A) (A) (A) (A) (A) (A) (A) (A) (A)
                 (A) (A) (A) (A) (A) (A) (A) (A) (A) (A) (A) (A)
                 (A) (A) (A) (A) (A) (A) (A) (A) (A) (A) (A) (A)
                 (A) (A) (A) (A) (A) (A) (A) (A) (A) (A) (A) (A)
                 (A) (A) (A) (A) (A) (A) (A) (A) (A) (A) (A) (A)
                 (A) (A) (A) (A) (A) (A) (A) (A) (A) (A) (A) (A)
                 (A) (A) (A) (A) (A) (A) (A) (A) (A) (A) (A) (A)
                 (A) (A) (A) (A) (A) (A) (A) (A) (A) (A) (A) (A)
                 (A) (A) (A) (A) (A) (A) (A) (A) (A) (A) (A) (A)
                 (A) (A) (A) (A) (A) (A) (A) (A) (A) (A) (A) (A)
                 (A) (A) (A) (A) (A) (A) (A) (A) (A) (A) (A) (A)
                 (A) (A) (A) (A) (A) (A) (A) (A) (A) (A) (A) (A)
                 (A) (A) (A) (A) (A) (A) (A) (A) (A) (A) (A) (A)
                 (A) (A) (A) (A) (A) (A) (A) (A) (A) (A) (A) (A)
                 (A) (A) (A) (A) (A) (A) (A) (A) (A) (A) (A) (A)
                 (A) (A) (A) (A) (A) (A) (A) (A) (A) (A) (A) (A)
                 (A) (A) (A) (A) (A) (A) (A) (A) (A) (A) (A) (A)
                 (A) (A) (A) (A) (A) (A) (A) (A) (A) (A) (A) (A)
                 (A) (A) (A) (A) (A) (A) (A) (A) (A) (A) (A) (A)
                 (A) (A) (A) (A) (A) (A) (A) (A) (A) (A) (A) (A)
                 (A) (A) (A) (A) (A) (A) (A) (A) (A) (A) (A) (A)
                 (A) (A) (A) (A) (A) (A) (A) (A) (A) (A) (A) (A)
                 (A) (A) (A) (A) (A) (A) (A) (A) (A) (A) (A) (A)
                 (A) (A) (A) (A) (A) (A) (A) (A) (A) (A) (A) (A)
                 (A) (A) (A) (A) (A) (A) (A) (A) (A) (A) (A) (A)
                 (A) (A) (A) (A) (A) (A) (A) (A) (A) (A) (A) (A)
                 (A) (A) (A) (A) (A) (A) (A) (A) (A) (A) (A) (A)
                 (A) (A) (A) (A) (A) (A) (A) (A) (A) (A) (A) (A)
                 (A) (A) (A) (A) (A) (A) (A) (A) (A) (A) (A) (A)
                 (A) (A) (A) (A) (A) (A) (A) (A) (A) (A) (A) (A)
                 (A) (A) (A) (A) (A) (A) (A) (A) (A) (A) (A) (A)
                 (A) (A) (A) (A) (A) (A) (A) (A) (A) (A) (A) (A)
                 (A) (A) (A) (A) (A) (A) (A) (A) (A) (A) (A) (A)
                 (A) (A) (A) (A) (A) (A) (A) (A) (A) (A) (A) (A)
                 (A) (A) (A) (A) (A) (A) (A) (A) (A) (A) (A) (A)
                 (A) (A) (A) (A) (A) (A) (A)
 The electronic state is 2-A.
 Alpha  occ. eigenvalues --  -19.28171 -19.27427 -19.24625 -19.23390 -19.23327
 Alpha  occ. eigenvalues --  -19.22001 -14.53630 -14.42468 -10.40822 -10.37288
 Alpha  occ. eigenvalues --  -10.37029 -10.34175 -10.33475 -10.31821 -10.30928
 Alpha  occ. eigenvalues --  -10.30349 -10.29866  -1.15341  -1.13373  -1.09303
 Alpha  occ. eigenvalues --   -1.08213  -1.07560  -1.06209  -1.05049  -0.96114
 Alpha  occ. eigenvalues --   -0.90207  -0.81873  -0.81381  -0.74919  -0.70881
 Alpha  occ. eigenvalues --   -0.70717  -0.66302  -0.64829  -0.63051  -0.60691
 Alpha  occ. eigenvalues --   -0.57801  -0.56547  -0.54557  -0.54205  -0.53858
 Alpha  occ. eigenvalues --   -0.53058  -0.51892  -0.50757  -0.50075  -0.47961
 Alpha  occ. eigenvalues --   -0.46900  -0.45881  -0.44906  -0.44146  -0.43233
 Alpha  occ. eigenvalues --   -0.42697  -0.41642  -0.39287  -0.37588  -0.36101
 Alpha  occ. eigenvalues --   -0.35590  -0.33629  -0.32524  -0.32055  -0.31490
 Alpha  occ. eigenvalues --   -0.31034  -0.30473  -0.30056  -0.29392
 Alpha virt. eigenvalues --   -0.08631  -0.03778  -0.03595  -0.00802  -0.00276
 Alpha virt. eigenvalues --    0.00213   0.01039   0.02049   0.02556   0.03035
 Alpha virt. eigenvalues --    0.03475   0.04344   0.04993   0.05195   0.05733
 Alpha virt. eigenvalues --    0.06022   0.06254   0.06950   0.07323   0.07806
 Alpha virt. eigenvalues --    0.07969   0.08451   0.08657   0.09273   0.09413
 Alpha virt. eigenvalues --    0.09566   0.10000   0.10200   0.10376   0.11063
 Alpha virt. eigenvalues --    0.11105   0.11575   0.11858   0.12245   0.12416
 Alpha virt. eigenvalues --    0.12521   0.12661   0.13641   0.13907   0.14436
 Alpha virt. eigenvalues --    0.15199   0.15239   0.15286   0.15921   0.16341
 Alpha virt. eigenvalues --    0.16705   0.17087   0.17450   0.17649   0.18307
 Alpha virt. eigenvalues --    0.18618   0.18769   0.19196   0.19707   0.20531
 Alpha virt. eigenvalues --    0.20635   0.20863   0.21260   0.21781   0.22096
 Alpha virt. eigenvalues --    0.22447   0.22634   0.23229   0.23524   0.23804
 Alpha virt. eigenvalues --    0.23885   0.24261   0.24560   0.24912   0.25007
 Alpha virt. eigenvalues --    0.25624   0.25665   0.26295   0.26490   0.26800
 Alpha virt. eigenvalues --    0.26972   0.27462   0.27970   0.28323   0.28537
 Alpha virt. eigenvalues --    0.28913   0.29146   0.29899   0.30264   0.30782
 Alpha virt. eigenvalues --    0.31045   0.31456   0.32038   0.32394   0.32651
 Alpha virt. eigenvalues --    0.32886   0.33365   0.33607   0.34368   0.34543
 Alpha virt. eigenvalues --    0.34859   0.35215   0.35665   0.36196   0.36510
 Alpha virt. eigenvalues --    0.37107   0.37661   0.38604   0.39006   0.39330
 Alpha virt. eigenvalues --    0.39459   0.39971   0.40236   0.40566   0.40766
 Alpha virt. eigenvalues --    0.41500   0.42130   0.42927   0.43566   0.44141
 Alpha virt. eigenvalues --    0.44891   0.44944   0.45563   0.45913   0.46739
 Alpha virt. eigenvalues --    0.47240   0.47741   0.47986   0.48875   0.49668
 Alpha virt. eigenvalues --    0.49911   0.50611   0.51071   0.52270   0.52453
 Alpha virt. eigenvalues --    0.53158   0.53477   0.53703   0.54473   0.54768
 Alpha virt. eigenvalues --    0.55323   0.55484   0.56353   0.56818   0.57501
 Alpha virt. eigenvalues --    0.58027   0.58377   0.59023   0.59339   0.59747
 Alpha virt. eigenvalues --    0.60218   0.61521   0.62032   0.62615   0.62768
 Alpha virt. eigenvalues --    0.63597   0.63798   0.64828   0.65287   0.65730
 Alpha virt. eigenvalues --    0.65863   0.66140   0.67022   0.67734   0.68207
 Alpha virt. eigenvalues --    0.68675   0.68906   0.69093   0.69420   0.70247
 Alpha virt. eigenvalues --    0.70944   0.71225   0.71943   0.72738   0.72878
 Alpha virt. eigenvalues --    0.73544   0.73902   0.74795   0.75795   0.76574
 Alpha virt. eigenvalues --    0.76668   0.77245   0.78151   0.78527   0.78785
 Alpha virt. eigenvalues --    0.79746   0.80446   0.81043   0.82345   0.83110
 Alpha virt. eigenvalues --    0.83323   0.84060   0.84711   0.85049   0.86635
 Alpha virt. eigenvalues --    0.87333   0.87815   0.88371   0.88568   0.89594
 Alpha virt. eigenvalues --    0.89941   0.91631   0.92985   0.93438   0.93938
 Alpha virt. eigenvalues --    0.94053   0.95623   0.96090   0.96644   0.96925
 Alpha virt. eigenvalues --    0.98154   0.99116   0.99818   1.01858   1.02184
 Alpha virt. eigenvalues --    1.02559   1.03182   1.04200   1.05355   1.06714
 Alpha virt. eigenvalues --    1.07883   1.08892   1.09504   1.10273   1.11173
 Alpha virt. eigenvalues --    1.12009   1.12194   1.13469   1.14447   1.15102
 Alpha virt. eigenvalues --    1.16126   1.16676   1.17580   1.17874   1.18267
 Alpha virt. eigenvalues --    1.19805   1.20191   1.21671   1.22744   1.23653
 Alpha virt. eigenvalues --    1.24310   1.25357   1.26161   1.28058   1.28603
 Alpha virt. eigenvalues --    1.30094   1.30560   1.31268   1.31397   1.32411
 Alpha virt. eigenvalues --    1.33972   1.34616   1.35994   1.37290   1.38394
 Alpha virt. eigenvalues --    1.39190   1.41393   1.41755   1.43599   1.44052
 Alpha virt. eigenvalues --    1.44936   1.45484   1.46183   1.47597   1.48425
 Alpha virt. eigenvalues --    1.49180   1.50589   1.51727   1.52321   1.52943
 Alpha virt. eigenvalues --    1.53682   1.54090   1.55255   1.56330   1.56655
 Alpha virt. eigenvalues --    1.58061   1.59104   1.59937   1.60460   1.61417
 Alpha virt. eigenvalues --    1.62023   1.62868   1.64891   1.65872   1.66376
 Alpha virt. eigenvalues --    1.67913   1.68572   1.69968   1.70618   1.71618
 Alpha virt. eigenvalues --    1.72728   1.73678   1.74129   1.75227   1.75444
 Alpha virt. eigenvalues --    1.76991   1.77661   1.79617   1.80012   1.81635
 Alpha virt. eigenvalues --    1.82095   1.83675   1.84042   1.85042   1.85571
 Alpha virt. eigenvalues --    1.87423   1.88227   1.89009   1.90227   1.91698
 Alpha virt. eigenvalues --    1.92689   1.93429   1.93891   1.95621   1.96889
 Alpha virt. eigenvalues --    1.97430   1.98625   1.99769   2.00549   2.00583
 Alpha virt. eigenvalues --    2.00855   2.04152   2.04328   2.04746   2.06661
 Alpha virt. eigenvalues --    2.07244   2.07649   2.08766   2.09155   2.11230
 Alpha virt. eigenvalues --    2.11784   2.13359   2.15701   2.16869   2.17582
 Alpha virt. eigenvalues --    2.18610   2.19326   2.21001   2.23264   2.24074
 Alpha virt. eigenvalues --    2.25450   2.26726   2.28265   2.30139   2.30392
 Alpha virt. eigenvalues --    2.34479   2.34675   2.35891   2.36906   2.38156
 Alpha virt. eigenvalues --    2.38277   2.39710   2.41630   2.42034   2.42715
 Alpha virt. eigenvalues --    2.44487   2.45169   2.46905   2.47713   2.48039
 Alpha virt. eigenvalues --    2.49379   2.51494   2.52173   2.52566   2.55282
 Alpha virt. eigenvalues --    2.57814   2.59038   2.60847   2.61604   2.63252
 Alpha virt. eigenvalues --    2.65743   2.66778   2.68314   2.69282   2.72587
 Alpha virt. eigenvalues --    2.74384   2.76928   2.80427   2.81380   2.82016
 Alpha virt. eigenvalues --    2.84413   2.87860   2.89060   2.93788   2.94188
 Alpha virt. eigenvalues --    2.96748   2.99185   2.99801   3.03470   3.09435
 Alpha virt. eigenvalues --    3.18686   3.21658   3.25000   3.27308   3.30140
 Alpha virt. eigenvalues --    3.30676   3.36213   3.37288   3.37715   3.40582
 Alpha virt. eigenvalues --    3.44158   3.44591   3.47302   3.48986   3.49572
 Alpha virt. eigenvalues --    3.50884   3.52258   3.53689   3.54413   3.55152
 Alpha virt. eigenvalues --    3.56190   3.58363   3.60669   3.61601   3.62340
 Alpha virt. eigenvalues --    3.64068   3.66460   3.70629   3.73784   3.74746
 Alpha virt. eigenvalues --    3.77049   3.79116   3.83446   3.87151   3.94469
 Alpha virt. eigenvalues --    3.97205   4.00698   4.12131   4.21023   4.41547
 Alpha virt. eigenvalues --    4.74818
  Beta  occ. eigenvalues --  -19.28164 -19.26401 -19.24623 -19.23340 -19.23289
  Beta  occ. eigenvalues --  -19.22070 -14.53128 -14.42196 -10.41030 -10.37199
  Beta  occ. eigenvalues --  -10.37109 -10.34167 -10.32998 -10.31745 -10.30927
  Beta  occ. eigenvalues --  -10.30340 -10.29867  -1.13964  -1.13286  -1.09183
  Beta  occ. eigenvalues --   -1.07998  -1.07541  -1.05191  -1.04783  -0.95500
  Beta  occ. eigenvalues --   -0.89010  -0.81788  -0.80978  -0.74638  -0.70694
  Beta  occ. eigenvalues --   -0.70461  -0.66143  -0.64541  -0.62779  -0.60438
  Beta  occ. eigenvalues --   -0.57452  -0.56381  -0.54304  -0.53954  -0.52971
  Beta  occ. eigenvalues --   -0.52081  -0.51571  -0.50288  -0.49578  -0.47838
  Beta  occ. eigenvalues --   -0.46541  -0.45650  -0.43990  -0.43076  -0.42714
  Beta  occ. eigenvalues --   -0.41719  -0.40266  -0.39078  -0.37419  -0.35857
  Beta  occ. eigenvalues --   -0.34618  -0.32730  -0.31813  -0.31275  -0.30926
  Beta  occ. eigenvalues --   -0.29817  -0.29673  -0.28610
  Beta virt. eigenvalues --   -0.22610  -0.06907  -0.03554  -0.02348  -0.00741
  Beta virt. eigenvalues --   -0.00221   0.00300   0.01068   0.02092   0.02594
  Beta virt. eigenvalues --    0.03064   0.03492   0.04378   0.05064   0.05226
  Beta virt. eigenvalues --    0.05774   0.06066   0.06304   0.06989   0.07388
  Beta virt. eigenvalues --    0.07970   0.08082   0.08622   0.09006   0.09336
  Beta virt. eigenvalues --    0.09495   0.09601   0.10127   0.10330   0.10484
  Beta virt. eigenvalues --    0.11118   0.11245   0.11615   0.11919   0.12303
  Beta virt. eigenvalues --    0.12472   0.12590   0.12703   0.13711   0.13949
  Beta virt. eigenvalues --    0.14470   0.15232   0.15296   0.15391   0.15992
  Beta virt. eigenvalues --    0.16461   0.16759   0.17233   0.17499   0.17725
  Beta virt. eigenvalues --    0.18425   0.18718   0.18826   0.19308   0.19784
  Beta virt. eigenvalues --    0.20655   0.20698   0.20982   0.21311   0.21924
  Beta virt. eigenvalues --    0.22217   0.22571   0.22752   0.23272   0.23664
  Beta virt. eigenvalues --    0.23857   0.23956   0.24359   0.24697   0.24979
  Beta virt. eigenvalues --    0.25085   0.25693   0.25733   0.26373   0.26605
  Beta virt. eigenvalues --    0.26929   0.27026   0.27567   0.27997   0.28378
  Beta virt. eigenvalues --    0.28652   0.29092   0.29233   0.29937   0.30372
  Beta virt. eigenvalues --    0.30813   0.31174   0.31531   0.32091   0.32476
  Beta virt. eigenvalues --    0.32719   0.32960   0.33456   0.33742   0.34475
  Beta virt. eigenvalues --    0.34688   0.34961   0.35267   0.35782   0.36324
  Beta virt. eigenvalues --    0.36606   0.37257   0.37776   0.38704   0.39076
  Beta virt. eigenvalues --    0.39428   0.39528   0.40056   0.40327   0.40660
  Beta virt. eigenvalues --    0.40885   0.41680   0.42222   0.43093   0.43689
  Beta virt. eigenvalues --    0.44257   0.44965   0.45041   0.45746   0.46004
  Beta virt. eigenvalues --    0.46784   0.47386   0.47818   0.48096   0.48921
  Beta virt. eigenvalues --    0.49762   0.50018   0.50745   0.51151   0.52321
  Beta virt. eigenvalues --    0.52522   0.53317   0.53592   0.53814   0.54632
  Beta virt. eigenvalues --    0.54864   0.55393   0.55643   0.56504   0.56934
  Beta virt. eigenvalues --    0.57642   0.58080   0.58504   0.59135   0.59477
  Beta virt. eigenvalues --    0.59966   0.60296   0.61688   0.62203   0.62763
  Beta virt. eigenvalues --    0.62905   0.63715   0.63902   0.64956   0.65420
  Beta virt. eigenvalues --    0.65837   0.65986   0.66221   0.67101   0.67834
  Beta virt. eigenvalues --    0.68346   0.68753   0.69008   0.69176   0.69524
  Beta virt. eigenvalues --    0.70304   0.71039   0.71396   0.72026   0.72965
  Beta virt. eigenvalues --    0.73021   0.73725   0.74109   0.74951   0.75901
  Beta virt. eigenvalues --    0.76707   0.76849   0.77353   0.78299   0.78628
  Beta virt. eigenvalues --    0.78914   0.79867   0.80718   0.81200   0.82564
  Beta virt. eigenvalues --    0.83252   0.83443   0.84120   0.84844   0.85139
  Beta virt. eigenvalues --    0.86784   0.87468   0.87887   0.88493   0.88647
  Beta virt. eigenvalues --    0.89779   0.90143   0.91811   0.93226   0.93778
  Beta virt. eigenvalues --    0.94185   0.94329   0.95735   0.96276   0.96843
  Beta virt. eigenvalues --    0.97092   0.98365   0.99353   1.00150   1.02136
  Beta virt. eigenvalues --    1.02397   1.02925   1.03448   1.04385   1.05529
  Beta virt. eigenvalues --    1.07002   1.07998   1.09117   1.09723   1.10516
  Beta virt. eigenvalues --    1.11259   1.12204   1.12456   1.13669   1.14593
  Beta virt. eigenvalues --    1.15186   1.16170   1.16767   1.17750   1.18076
  Beta virt. eigenvalues --    1.18357   1.19915   1.20329   1.21837   1.22997
  Beta virt. eigenvalues --    1.23818   1.24512   1.25506   1.26250   1.28190
  Beta virt. eigenvalues --    1.28681   1.30233   1.30933   1.31557   1.31698
  Beta virt. eigenvalues --    1.32586   1.34341   1.35033   1.36187   1.37389
  Beta virt. eigenvalues --    1.38572   1.39381   1.41543   1.41902   1.43830
  Beta virt. eigenvalues --    1.44519   1.45418   1.45623   1.46429   1.47840
  Beta virt. eigenvalues --    1.48715   1.49942   1.50726   1.51945   1.52674
  Beta virt. eigenvalues --    1.53150   1.53897   1.54338   1.55520   1.56475
  Beta virt. eigenvalues --    1.56872   1.58301   1.59211   1.60141   1.60669
  Beta virt. eigenvalues --    1.61694   1.62125   1.63054   1.65085   1.65959
  Beta virt. eigenvalues --    1.66502   1.68102   1.68805   1.70133   1.71016
  Beta virt. eigenvalues --    1.71698   1.72826   1.73814   1.74380   1.75395
  Beta virt. eigenvalues --    1.75559   1.77073   1.77786   1.79780   1.80132
  Beta virt. eigenvalues --    1.81797   1.82221   1.83834   1.84172   1.85200
  Beta virt. eigenvalues --    1.85660   1.87657   1.88344   1.89178   1.90374
  Beta virt. eigenvalues --    1.92076   1.92786   1.93668   1.94082   1.95749
  Beta virt. eigenvalues --    1.97013   1.97663   1.98790   1.99899   2.00661
  Beta virt. eigenvalues --    2.00807   2.01139   2.04264   2.04564   2.04857
  Beta virt. eigenvalues --    2.06896   2.07420   2.07832   2.08870   2.09340
  Beta virt. eigenvalues --    2.11384   2.12031   2.13585   2.15820   2.17044
  Beta virt. eigenvalues --    2.17742   2.18747   2.19438   2.21259   2.23410
  Beta virt. eigenvalues --    2.24199   2.25633   2.26829   2.28358   2.30257
  Beta virt. eigenvalues --    2.30553   2.34577   2.34835   2.35941   2.37160
  Beta virt. eigenvalues --    2.38474   2.38901   2.39947   2.41913   2.42224
  Beta virt. eigenvalues --    2.42955   2.44806   2.45471   2.47056   2.48239
  Beta virt. eigenvalues --    2.48457   2.49666   2.51598   2.52464   2.53139
  Beta virt. eigenvalues --    2.55399   2.58070   2.59163   2.60955   2.62039
  Beta virt. eigenvalues --    2.63467   2.65884   2.66920   2.68391   2.69408
  Beta virt. eigenvalues --    2.72796   2.74484   2.77031   2.80567   2.81623
  Beta virt. eigenvalues --    2.82131   2.84610   2.87996   2.89504   2.94117
  Beta virt. eigenvalues --    2.94356   2.96920   2.99592   2.99989   3.03595
  Beta virt. eigenvalues --    3.09655   3.18784   3.21902   3.25120   3.27667
  Beta virt. eigenvalues --    3.30526   3.33142   3.37511   3.38418   3.39881
  Beta virt. eigenvalues --    3.41172   3.44183   3.44500   3.47316   3.49059
  Beta virt. eigenvalues --    3.49662   3.50938   3.52303   3.53858   3.54581
  Beta virt. eigenvalues --    3.55162   3.56443   3.58450   3.60780   3.61706
  Beta virt. eigenvalues --    3.62484   3.64224   3.66499   3.70851   3.73890
  Beta virt. eigenvalues --    3.74882   3.77669   3.79363   3.83613   3.87198
  Beta virt. eigenvalues --    3.94770   3.97278   4.00705   4.12227   4.21095
  Beta virt. eigenvalues --    4.41697   4.74844
          Condensed to atoms (all electrons):
               1          2          3          4          5          6
     1  C    8.855259  -1.896637   0.628931   0.063383   0.313191  -0.145809
     2  C   -1.896637   8.224748  -1.131176  -0.412687  -0.647975   0.134295
     3  C    0.628931  -1.131176  14.578317   0.159937  -0.033593  -0.531817
     4  O    0.063383  -0.412687   0.159937   8.767148  -0.189763  -0.000068
     5  H    0.313191  -0.647975  -0.033593  -0.189763   2.158757  -0.023877
     6  O   -0.145809   0.134295  -0.531817  -0.000068  -0.023877   9.596888
     7  H   -0.045471   0.121794  -0.740590  -0.025670   0.094160  -0.085794
     8  C    0.007016  -0.037262  -2.179895   0.001013  -0.002456   0.014678
     9  C   -1.673395   0.329554  -2.895695   0.081840  -0.226584   0.032015
    10  H   -0.842871   0.537036   0.118398   0.008850  -0.125838   0.021582
    11  O   -0.563368   0.115738  -0.091863  -0.018488  -0.023879   0.029993
    12  C    0.055847  -0.146746   0.258785  -0.008697   0.043428  -0.048741
    13  H    0.272115   0.197094   0.379368  -0.005406  -0.007631  -0.243736
    14  O   -0.051184   0.011447  -0.020281   0.000228   0.002407  -0.057577
    15  H    0.046965  -0.015732   0.057340  -0.001622   0.019415   0.110742
    16  H    0.013065  -0.030651   0.034300   0.000643  -0.008289  -0.053590
    17  H    0.129544  -0.241682   0.055920   0.060236   0.035791   0.006352
    18  H    0.005975  -0.020908  -0.093987   0.313696  -0.014111   0.007365
    19  H    0.037828  -0.028510   0.077739   0.001335   0.003350   0.029520
    20  C   -0.191240   0.243121  -2.157586   0.003913   0.029427   0.154644
    21  N    0.011444  -0.013746   0.189489  -0.000596  -0.003059  -0.001541
    22  C    0.000957  -0.009708  -0.220122  -0.001192  -0.002980   0.007961
    23  N    0.014551  -0.002864   0.216781  -0.005830   0.008315  -0.008760
    24  C   -0.032361  -0.050541  -1.607643   0.005739   0.094894  -0.006095
    25  H    0.060892  -0.067649   0.326957  -0.001959   0.007856  -0.151514
    26  H   -0.002259   0.003231  -0.061560   0.000039   0.001263   0.002452
    27  O   -0.000261  -0.000916   0.009179   0.000051   0.000061   0.000390
    28  O    0.018266   0.066467  -0.000230  -0.077385   0.017205  -0.001324
               7          8          9         10         11         12
     1  C   -0.045471   0.007016  -1.673395  -0.842871  -0.563368   0.055847
     2  C    0.121794  -0.037262   0.329554   0.537036   0.115738  -0.146746
     3  C   -0.740590  -2.179895  -2.895695   0.118398  -0.091863   0.258785
     4  O   -0.025670   0.001013   0.081840   0.008850  -0.018488  -0.008697
     5  H    0.094160  -0.002456  -0.226584  -0.125838  -0.023879   0.043428
     6  O   -0.085794   0.014678   0.032015   0.021582   0.029993  -0.048741
     7  H    1.692723   0.070018  -0.003076  -0.000112   0.017553  -0.000336
     8  C    0.070018  12.119374   0.377390  -0.061598   0.010927   0.012755
     9  C   -0.003076   0.377390  10.375480  -0.124585   0.386043  -0.383898
    10  H   -0.000112  -0.061598  -0.124585   1.905965  -0.082362  -0.086434
    11  O    0.017553   0.010927   0.386043  -0.082362   8.725688  -0.038948
    12  C   -0.000336   0.012755  -0.383898  -0.086434  -0.038948   4.969834
    13  H    0.013881  -0.089149  -1.096563   0.094766  -0.060540  -0.104583
    14  O    0.000745  -0.006461   0.161815   0.030846   0.000350   0.040116
    15  H   -0.000736   0.023140  -0.397397  -0.046816   0.013354   0.284733
    16  H    0.001061  -0.025931   0.285996   0.022964  -0.004975   0.044763
    17  H    0.007109  -0.004400  -0.073733  -0.009805   0.268356   0.008658
    18  H    0.001116   0.075588   0.027183   0.001269  -0.002088  -0.000678
    19  H   -0.001511   0.003037  -0.134495  -0.007700  -0.001326  -0.018039
    20  C    0.051591  -2.527527  -0.003190   0.008836   0.008531  -0.067401
    21  N    0.000798  -0.079320   0.040402   0.000336  -0.000806  -0.002750
    22  C   -0.017880   0.367255   0.007491   0.000251   0.000002  -0.004273
    23  N    0.012755   0.267332  -0.019621   0.000371   0.000164   0.000448
    24  C    0.108039  -3.163021  -0.004315   0.008943   0.001701   0.009905
    25  H    0.026974   0.115113  -0.036193   0.000173  -0.000595   0.029371
    26  H   -0.001944   0.043054   0.002231  -0.000026   0.000014  -0.000879
    27  O    0.000338   0.036214  -0.000325  -0.000016  -0.000000   0.000049
    28  O    0.045059  -0.098143  -0.000919  -0.000685  -0.001368  -0.003154
              13         14         15         16         17         18
     1  C    0.272115  -0.051184   0.046965   0.013065   0.129544   0.005975
     2  C    0.197094   0.011447  -0.015732  -0.030651  -0.241682  -0.020908
     3  C    0.379368  -0.020281   0.057340   0.034300   0.055920  -0.093987
     4  O   -0.005406   0.000228  -0.001622   0.000643   0.060236   0.313696
     5  H   -0.007631   0.002407   0.019415  -0.008289   0.035791  -0.014111
     6  O   -0.243736  -0.057577   0.110742  -0.053590   0.006352   0.007365
     7  H    0.013881   0.000745  -0.000736   0.001061   0.007109   0.001116
     8  C   -0.089149  -0.006461   0.023140  -0.025931  -0.004400   0.075588
     9  C   -1.096563   0.161815  -0.397397   0.285996  -0.073733   0.027183
    10  H    0.094766   0.030846  -0.046816   0.022964  -0.009805   0.001269
    11  O   -0.060540   0.000350   0.013354  -0.004975   0.268356  -0.002088
    12  C   -0.104583   0.040116   0.284733   0.044763   0.008658  -0.000678
    13  H    2.246852   0.022618  -0.057203  -0.040404  -0.008465   0.000851
    14  O    0.022618   8.301667  -0.161623  -0.037113  -0.001542  -0.000392
    15  H   -0.057203  -0.161623   1.675696  -0.324359   0.005016  -0.000977
    16  H   -0.040404  -0.037113  -0.324359   1.415350  -0.001247   0.000013
    17  H   -0.008465  -0.001542   0.005016  -0.001247   0.561083  -0.005770
    18  H    0.000851  -0.000392  -0.000977   0.000013  -0.005770   0.445055
    19  H    0.009549   0.289829   0.015621  -0.035833   0.000120   0.000257
    20  C    0.008039   0.002082  -0.003849  -0.001822   0.000758   0.017906
    21  N    0.001476  -0.000833  -0.000463   0.001335  -0.000527  -0.001227
    22  C    0.000500  -0.000174  -0.000131  -0.000110   0.000293  -0.001477
    23  N   -0.001073   0.000226   0.000013  -0.000050   0.000944  -0.009239
    24  C    0.006118  -0.002222   0.000671   0.000904   0.007990  -0.057457
    25  H   -0.002559  -0.001029   0.003357  -0.000158   0.000810  -0.003954
    26  H    0.000150  -0.000111  -0.000053   0.000164   0.000011  -0.000173
    27  O   -0.000017   0.000008  -0.000002   0.000010  -0.000011   0.000444
    28  O   -0.000240   0.000074  -0.000125  -0.000123   0.001519   0.000937
              19         20         21         22         23         24
     1  C    0.037828  -0.191240   0.011444   0.000957   0.014551  -0.032361
     2  C   -0.028510   0.243121  -0.013746  -0.009708  -0.002864  -0.050541
     3  C    0.077739  -2.157586   0.189489  -0.220122   0.216781  -1.607643
     4  O    0.001335   0.003913  -0.000596  -0.001192  -0.005830   0.005739
     5  H    0.003350   0.029427  -0.003059  -0.002980   0.008315   0.094894
     6  O    0.029520   0.154644  -0.001541   0.007961  -0.008760  -0.006095
     7  H   -0.001511   0.051591   0.000798  -0.017880   0.012755   0.108039
     8  C    0.003037  -2.527527  -0.079320   0.367255   0.267332  -3.163021
     9  C   -0.134495  -0.003190   0.040402   0.007491  -0.019621  -0.004315
    10  H   -0.007700   0.008836   0.000336   0.000251   0.000371   0.008943
    11  O   -0.001326   0.008531  -0.000806   0.000002   0.000164   0.001701
    12  C   -0.018039  -0.067401  -0.002750  -0.004273   0.000448   0.009905
    13  H    0.009549   0.008039   0.001476   0.000500  -0.001073   0.006118
    14  O    0.289829   0.002082  -0.000833  -0.000174   0.000226  -0.002222
    15  H    0.015621  -0.003849  -0.000463  -0.000131   0.000013   0.000671
    16  H   -0.035833  -0.001822   0.001335  -0.000110  -0.000050   0.000904
    17  H    0.000120   0.000758  -0.000527   0.000293   0.000944   0.007990
    18  H    0.000257   0.017906  -0.001227  -0.001477  -0.009239  -0.057457
    19  H    0.595492  -0.008904   0.000968   0.000998  -0.000614   0.001318
    20  C   -0.008904  12.401496  -0.702912  -0.397140   0.016327  -1.064056
    21  N    0.000968  -0.702912   7.540125  -0.047829  -0.007085   0.186686
    22  C    0.000998  -0.397140  -0.047829   6.215739   0.058613  -0.631548
    23  N   -0.000614   0.016327  -0.007085   0.058613   8.046716  -0.808163
    24  C    0.001318  -1.064056   0.186686  -0.631548  -0.808163  12.422490
    25  H   -0.002779  -0.957909   0.145523   0.003345   0.017718   0.047173
    26  H   -0.000247  -0.179440   0.425608  -0.178688   0.001018  -0.021450
    27  O   -0.000046   0.062017  -0.145393   0.079659  -0.083171   0.029979
    28  O   -0.000087  -0.056774   0.000611   0.041211  -0.130042   0.109493
              25         26         27         28
     1  C    0.060892  -0.002259  -0.000261   0.018266
     2  C   -0.067649   0.003231  -0.000916   0.066467
     3  C    0.326957  -0.061560   0.009179  -0.000230
     4  O   -0.001959   0.000039   0.000051  -0.077385
     5  H    0.007856   0.001263   0.000061   0.017205
     6  O   -0.151514   0.002452   0.000390  -0.001324
     7  H    0.026974  -0.001944   0.000338   0.045059
     8  C    0.115113   0.043054   0.036214  -0.098143
     9  C   -0.036193   0.002231  -0.000325  -0.000919
    10  H    0.000173  -0.000026  -0.000016  -0.000685
    11  O   -0.000595   0.000014  -0.000000  -0.001368
    12  C    0.029371  -0.000879   0.000049  -0.003154
    13  H   -0.002559   0.000150  -0.000017  -0.000240
    14  O   -0.001029  -0.000111   0.000008   0.000074
    15  H    0.003357  -0.000053  -0.000002  -0.000125
    16  H   -0.000158   0.000164   0.000010  -0.000123
    17  H    0.000810   0.000011  -0.000011   0.001519
    18  H   -0.003954  -0.000173   0.000444   0.000937
    19  H   -0.002779  -0.000247  -0.000046  -0.000087
    20  C   -0.957909  -0.179440   0.062017  -0.056774
    21  N    0.145523   0.425608  -0.145393   0.000611
    22  C    0.003345  -0.178688   0.079659   0.041211
    23  N    0.017718   0.001018  -0.083171  -0.130042
    24  C    0.047173  -0.021450   0.029979   0.109493
    25  H    2.205980  -0.045658   0.000703  -0.004713
    26  H   -0.045658   1.079551  -0.003830   0.001853
    27  O    0.000703  -0.003830   8.556604  -0.003464
    28  O   -0.004713   0.001853  -0.003464   8.987378
          Atomic-Atomic Spin Densities.
               1          2          3          4          5          6
     1  C    0.067243  -0.011823  -0.111683  -0.003705  -0.004334   0.005036
     2  C   -0.011823   0.065718   0.039527  -0.003980   0.007333  -0.002166
     3  C   -0.111683   0.039527   0.388503  -0.003005  -0.016127  -0.029815
     4  O   -0.003705  -0.003980  -0.003005   0.019470   0.000245   0.000175
     5  H   -0.004334   0.007333  -0.016127   0.000245  -0.002498   0.001111
     6  O    0.005036  -0.002166  -0.029815   0.000175   0.001111   0.006549
     7  H    0.024988  -0.020112  -0.165004   0.005362  -0.000350   0.005085
     8  C    0.057996  -0.035406  -0.269774   0.003123   0.003435   0.011465
     9  C    0.007856   0.000336  -0.004125  -0.001438   0.004125   0.003405
    10  H   -0.017104  -0.000733   0.007209   0.001251   0.000519  -0.001074
    11  O   -0.010136   0.001825   0.011251  -0.000124  -0.000008  -0.000368
    12  C   -0.007101   0.000213   0.014701   0.000524  -0.001565  -0.001759
    13  H    0.001237  -0.001228  -0.006400   0.000007  -0.000072   0.000135
    14  O   -0.000073   0.000490  -0.003371   0.000053  -0.000269   0.000119
    15  H   -0.000144  -0.000053   0.000294   0.000010  -0.000025  -0.000020
    16  H   -0.001327   0.000387   0.001331   0.000031  -0.000040  -0.000261
    17  H   -0.002828   0.001594   0.002059  -0.000173  -0.000115   0.000049
    18  H    0.004288  -0.002142  -0.015048   0.000255   0.000476   0.000020
    19  H   -0.000779   0.000037  -0.001732   0.000064  -0.000026   0.000338
    20  C    0.006109   0.006945   0.055983  -0.001116   0.005700   0.007680
    21  N   -0.002171  -0.002441   0.039045  -0.000092  -0.000136  -0.002853
    22  C    0.000367   0.001497  -0.003474   0.000103  -0.000028   0.000100
    23  N   -0.000321  -0.001801   0.006819  -0.000040   0.000152  -0.000285
    24  C    0.004587  -0.000610  -0.004877   0.000287   0.001694   0.000484
    25  H    0.002738   0.001062  -0.015123  -0.000047  -0.000032   0.001487
    26  H    0.000023   0.000060  -0.000967  -0.000002  -0.000007  -0.000002
    27  O    0.000020   0.000181  -0.000399  -0.000002  -0.000048  -0.000004
    28  O   -0.002098   0.002360   0.002484  -0.000001  -0.000036  -0.000082
               7          8          9         10         11         12
     1  C    0.024988   0.057996   0.007856  -0.017104  -0.010136  -0.007101
     2  C   -0.020112  -0.035406   0.000336  -0.000733   0.001825   0.000213
     3  C   -0.165004  -0.269774  -0.004125   0.007209   0.011251   0.014701
     4  O    0.005362   0.003123  -0.001438   0.001251  -0.000124   0.000524
     5  H   -0.000350   0.003435   0.004125   0.000519  -0.000008  -0.001565
     6  O    0.005085   0.011465   0.003405  -0.001074  -0.000368  -0.001759
     7  H    0.110598   0.055651   0.001073   0.000292  -0.005202  -0.001683
     8  C    0.055651   0.449135   0.001608  -0.002334  -0.004640  -0.004889
     9  C    0.001073   0.001608  -0.015746  -0.001584   0.000756   0.003962
    10  H    0.000292  -0.002334  -0.001584   0.017555   0.000722   0.002444
    11  O   -0.005202  -0.004640   0.000756   0.000722   0.018462   0.000785
    12  C   -0.001683  -0.004889   0.003962   0.002444   0.000785  -0.002281
    13  H    0.001830   0.003659   0.002521  -0.000256  -0.000369  -0.001170
    14  O    0.000004   0.001525   0.001574   0.000108   0.000013  -0.000471
    15  H    0.000018   0.000091   0.000697  -0.000063  -0.000024  -0.000424
    16  H   -0.000107  -0.000709   0.000229   0.000173   0.000093   0.000849
    17  H   -0.000564  -0.000855   0.000275   0.000219   0.000614  -0.000047
    18  H    0.002273   0.006069  -0.000149  -0.000175  -0.000608  -0.000131
    19  H   -0.000130   0.002308   0.000284   0.000189   0.000056   0.000221
    20  C    0.007397   0.231022  -0.003265  -0.000346  -0.000368  -0.002939
    21  N   -0.001376  -0.036629  -0.000464  -0.000068   0.000061   0.000622
    22  C    0.001365  -0.006039   0.000199   0.000007  -0.000028   0.000003
    23  N    0.000609  -0.026854   0.000195  -0.000030  -0.000002   0.000053
    24  C    0.010562   0.041669  -0.001728   0.000070  -0.000214   0.000365
    25  H    0.001412   0.011196  -0.000471  -0.000073  -0.000156  -0.000243
    26  H    0.000028   0.010840   0.000065   0.000001  -0.000000  -0.000023
    27  O    0.000073   0.003337   0.000010   0.000003   0.000000  -0.000000
    28  O   -0.001752  -0.002206   0.000374  -0.000001   0.000212   0.000161
              13         14         15         16         17         18
     1  C    0.001237  -0.000073  -0.000144  -0.001327  -0.002828   0.004288
     2  C   -0.001228   0.000490  -0.000053   0.000387   0.001594  -0.002142
     3  C   -0.006400  -0.003371   0.000294   0.001331   0.002059  -0.015048
     4  O    0.000007   0.000053   0.000010   0.000031  -0.000173   0.000255
     5  H   -0.000072  -0.000269  -0.000025  -0.000040  -0.000115   0.000476
     6  O    0.000135   0.000119  -0.000020  -0.000261   0.000049   0.000020
     7  H    0.001830   0.000004   0.000018  -0.000107  -0.000564   0.002273
     8  C    0.003659   0.001525   0.000091  -0.000709  -0.000855   0.006069
     9  C    0.002521   0.001574   0.000697   0.000229   0.000275  -0.000149
    10  H   -0.000256   0.000108  -0.000063   0.000173   0.000219  -0.000175
    11  O   -0.000369   0.000013  -0.000024   0.000093   0.000614  -0.000608
    12  C   -0.001170  -0.000471  -0.000424   0.000849  -0.000047  -0.000131
    13  H    0.000153   0.000120  -0.000106  -0.000130  -0.000081   0.000080
    14  O    0.000120   0.000995  -0.000062  -0.000091  -0.000008   0.000005
    15  H   -0.000106  -0.000062  -0.000157  -0.000082  -0.000008   0.000004
    16  H   -0.000130  -0.000091  -0.000082  -0.000315   0.000001  -0.000015
    17  H   -0.000081  -0.000008  -0.000008   0.000001  -0.000591  -0.000121
    18  H    0.000080   0.000005   0.000004  -0.000015  -0.000121   0.002358
    19  H   -0.000060  -0.000386  -0.000014   0.000089   0.000004  -0.000035
    20  C    0.000095   0.000394  -0.000014  -0.000222  -0.000068   0.001211
    21  N   -0.000103  -0.000095  -0.000004   0.000113   0.000014  -0.000349
    22  C    0.000042   0.000016   0.000003   0.000004  -0.000015   0.000342
    23  N   -0.000001  -0.000007   0.000003  -0.000005   0.000005  -0.000325
    24  C    0.000110   0.000076   0.000011   0.000061  -0.000147   0.003750
    25  H    0.000269   0.000111   0.000054  -0.000103  -0.000020   0.000162
    26  H    0.000001   0.000002   0.000000  -0.000005  -0.000001   0.000012
    27  O   -0.000003   0.000001   0.000000  -0.000000   0.000000  -0.000008
    28  O   -0.000037   0.000006   0.000004   0.000009   0.000081  -0.001979
              19         20         21         22         23         24
     1  C   -0.000779   0.006109  -0.002171   0.000367  -0.000321   0.004587
     2  C    0.000037   0.006945  -0.002441   0.001497  -0.001801  -0.000610
     3  C   -0.001732   0.055983   0.039045  -0.003474   0.006819  -0.004877
     4  O    0.000064  -0.001116  -0.000092   0.000103  -0.000040   0.000287
     5  H   -0.000026   0.005700  -0.000136  -0.000028   0.000152   0.001694
     6  O    0.000338   0.007680  -0.002853   0.000100  -0.000285   0.000484
     7  H   -0.000130   0.007397  -0.001376   0.001365   0.000609   0.010562
     8  C    0.002308   0.231022  -0.036629  -0.006039  -0.026854   0.041669
     9  C    0.000284  -0.003265  -0.000464   0.000199   0.000195  -0.001728
    10  H    0.000189  -0.000346  -0.000068   0.000007  -0.000030   0.000070
    11  O    0.000056  -0.000368   0.000061  -0.000028  -0.000002  -0.000214
    12  C    0.000221  -0.002939   0.000622   0.000003   0.000053   0.000365
    13  H   -0.000060   0.000095  -0.000103   0.000042  -0.000001   0.000110
    14  O   -0.000386   0.000394  -0.000095   0.000016  -0.000007   0.000076
    15  H   -0.000014  -0.000014  -0.000004   0.000003   0.000003   0.000011
    16  H    0.000089  -0.000222   0.000113   0.000004  -0.000005   0.000061
    17  H    0.000004  -0.000068   0.000014  -0.000015   0.000005  -0.000147
    18  H   -0.000035   0.001211  -0.000349   0.000342  -0.000325   0.003750
    19  H    0.000571   0.000214  -0.000011  -0.000079   0.000052  -0.000107
    20  C    0.000214  -0.452965  -0.077041   0.024215   0.016668   0.108338
    21  N   -0.000011  -0.077041   0.330831   0.006792   0.005899  -0.008144
    22  C   -0.000079   0.024215   0.006792  -0.190115   0.019910   0.025249
    23  N    0.000052   0.016668   0.005899   0.019910   0.145468  -0.012118
    24  C   -0.000107   0.108338  -0.008144   0.025249  -0.012118  -0.230105
    25  H   -0.000018  -0.019798   0.007444   0.001192   0.001210  -0.002331
    26  H    0.000010  -0.023772   0.014589   0.006592  -0.000424   0.002643
    27  O   -0.000002  -0.001320  -0.017530  -0.016537  -0.009355  -0.005131
    28  O    0.000036   0.009929  -0.000681  -0.001128  -0.002739   0.008282
              25         26         27         28
     1  C    0.002738   0.000023   0.000020  -0.002098
     2  C    0.001062   0.000060   0.000181   0.002360
     3  C   -0.015123  -0.000967  -0.000399   0.002484
     4  O   -0.000047  -0.000002  -0.000002  -0.000001
     5  H   -0.000032  -0.000007  -0.000048  -0.000036
     6  O    0.001487  -0.000002  -0.000004  -0.000082
     7  H    0.001412   0.000028   0.000073  -0.001752
     8  C    0.011196   0.010840   0.003337  -0.002206
     9  C   -0.000471   0.000065   0.000010   0.000374
    10  H   -0.000073   0.000001   0.000003  -0.000001
    11  O   -0.000156  -0.000000   0.000000   0.000212
    12  C   -0.000243  -0.000023  -0.000000   0.000161
    13  H    0.000269   0.000001  -0.000003  -0.000037
    14  O    0.000111   0.000002   0.000001   0.000006
    15  H    0.000054   0.000000   0.000000   0.000004
    16  H   -0.000103  -0.000005  -0.000000   0.000009
    17  H   -0.000020  -0.000001   0.000000   0.000081
    18  H    0.000162   0.000012  -0.000008  -0.001979
    19  H   -0.000018   0.000010  -0.000002   0.000036
    20  C   -0.019798  -0.023772  -0.001320   0.009929
    21  N    0.007444   0.014589  -0.017530  -0.000681
    22  C    0.001192   0.006592  -0.016537  -0.001128
    23  N    0.001210  -0.000424  -0.009355  -0.002739
    24  C   -0.002331   0.002643  -0.005131   0.008282
    25  H    0.003563  -0.000975  -0.000061   0.000210
    26  H   -0.000975  -0.022786  -0.002434   0.000054
    27  O   -0.000061  -0.002434   0.435935  -0.000000
    28  O    0.000210   0.000054  -0.000000  -0.035304
 Mulliken charges and spin densities:
               1          2
     1  C    0.909627   0.006862
     2  C    0.770866   0.047069
     3  C    0.674595  -0.081717
     4  O   -0.718690   0.017234
     5  H   -0.519484  -0.000926
     6  O   -0.788636   0.004548
     7  H   -0.342594   0.032340
     8  C    0.731257   0.503790
     9  C    0.966543   0.000573
    10  H   -0.371737   0.006919
    11  O   -0.687805   0.012602
    12  C    1.156865   0.000173
    13  H   -0.535809   0.000245
    14  O   -0.523917   0.000780
    15  H   -0.244974  -0.000011
    16  H   -0.255914  -0.000041
    17  H    0.196673  -0.000727
    18  H    0.314782   0.000220
    19  H    0.173130   0.001093
    20  C    1.311064  -0.101333
    21  N   -0.536716   0.255223
    22  C    0.728973  -0.129445
    23  N   -0.585780   0.142736
    24  C    0.406829  -0.057273
    25  H   -0.715277  -0.007340
    26  H   -0.064318  -0.016477
    27  O   -0.538254   0.386727
    28  O   -0.911297  -0.023843
 Sum of Mulliken charges =  -0.00000   1.00000
 Mulliken charges and spin densities with hydrogens summed into heavy atoms:
               1          2
     1  C    0.537890   0.013781
     2  C    0.251382   0.046142
     3  C    0.332001  -0.049377
     4  O   -0.403908   0.017454
     6  O   -0.788636   0.004548
     8  C    0.731257   0.503790
     9  C    0.430734   0.000818
    11  O   -0.491133   0.011875
    12  C    0.655977   0.000121
    14  O   -0.350787   0.001873
    20  C    0.595787  -0.108673
    21  N   -0.601034   0.238746
    22  C    0.728973  -0.129445
    23  N   -0.585780   0.142736
    24  C    0.406829  -0.057273
    27  O   -0.538254   0.386727
    28  O   -0.911297  -0.023843
 Electronic spatial extent (au):  <R**2>=           4342.0812
 Charge=             -0.0000 electrons
 Dipole moment (field-independent basis, Debye):
    X=              1.1038    Y=             -6.7646    Z=             -2.0018  Tot=              7.1404
 Quadrupole moment (field-independent basis, Debye-Ang):
   XX=           -121.8400   YY=           -102.7651   ZZ=            -99.6305
   XY=             11.3914   XZ=              0.9682   YZ=              2.5864
 Traceless Quadrupole moment (field-independent basis, Debye-Ang):
   XX=            -13.7615   YY=              5.3135   ZZ=              8.4481
   XY=             11.3914   XZ=              0.9682   YZ=              2.5864
 Octapole moment (field-independent basis, Debye-Ang**2):
  XXX=            122.5674  YYY=            -35.2813  ZZZ=             -2.4271  XYY=            -18.9480
  XXY=            -46.4701  XXZ=            -14.6551  XZZ=             -9.5564  YZZ=              5.0672
  YYZ=            -16.8113  XYZ=             12.2565
 Hexadecapole moment (field-independent basis, Debye-Ang**3):
 XXXX=          -4628.6263 YYYY=          -1240.8691 ZZZZ=           -289.5067 XXXY=            -22.0708
 XXXZ=             65.1057 YYYX=            138.1883 YYYZ=             12.4339 ZZZX=            -14.0957
 ZZZY=              2.0390 XXYY=           -894.2670 XXZZ=           -718.5362 YYZZ=           -279.1369
 XXYZ=             55.5219 YYXZ=            -23.3010 ZZXY=             19.7526
 N-N= 1.294958613040D+03 E-N=-4.719013184432D+03  KE= 9.045960082958D+02
                          Isotropic Fermi Contact Couplings
        Atom                 a.u.       MegaHertz       Gauss      10(-4) cm-1
     1  C(13)             -0.00084      -0.94058      -0.33562      -0.31374
     2  C(13)              0.00882       9.91976       3.53962       3.30888
     3  C(13)             -0.01211     -13.60940      -4.85617      -4.53961
     4  O(17)              0.00417      -2.52852      -0.90224      -0.84342
     5  H(1)               0.00004       0.17261       0.06159       0.05758
     6  O(17)             -0.00022       0.13502       0.04818       0.04504
     7  H(1)               0.01288      57.57130      20.54287      19.20372
     8  C(13)              0.03871      43.51271      15.52642      14.51428
     9  C(13)              0.00090       1.01036       0.36052       0.33702
    10  H(1)               0.00254      11.34421       4.04790       3.78402
    11  O(17)              0.00339      -2.05428      -0.73302      -0.68523
    12  C(13)             -0.00014      -0.15603      -0.05568      -0.05205
    13  H(1)              -0.00003      -0.11188      -0.03992      -0.03732
    14  O(17)              0.00004      -0.02246      -0.00801      -0.00749
    15  H(1)              -0.00002      -0.07529      -0.02687      -0.02512
    16  H(1)              -0.00001      -0.05288      -0.01887      -0.01764
    17  H(1)              -0.00003      -0.14625      -0.05219      -0.04878
    18  H(1)               0.00042       1.85743       0.66278       0.61957
    19  H(1)              -0.00002      -0.11091      -0.03957      -0.03700
[...]
 003644,0.00036344,0.00004875,-0.00012982,0.00009438,0.00003292,-0.0000
 8163,0.04666141,-0.00321589,-0.05160662,-0.07129221,0.00206020,0.08214
 196,0.00038084,-0.00018380,-0.00361642,0.00034510,0.00630396,0.0072190
 1,-0.00704705,-0.00860580,-0.00772543,0.00167402,-0.00622914,0.0002984
 4,0.00018042,0.00024167,0.00014032,0.00178290,0.00106102,-0.00003430,0
 .00099219,0.00017792,0.00064444,0.03949827,0.03346076,-0.00185678,0.00
 066673,-0.00073048,-0.00039614,-0.00098847,0.00027908,0.00060585,-0.00
 088821,-0.00101366,0.00065481,0.00011138,-0.00025365,0.00011979,-0.000
 03015,0.00005893,0.00007811,-0.00010777,0.00057888,-0.00020640,0.00001
 697,-0.00003468,-0.00002171,0.00001659,0.00013697,0.00000558,0.0004765
 1,0.00028596,-0.00018251,-0.00465152,0.00117346,-0.00017569,0.00000899
 ,-0.00047191,0.00013077,-0.08066771,-0.03972368,0.01057734,0.01094876,
 -0.01487508,-0.00869939,0.67353601,-0.00031282,0.00008317,-0.00302977,
 0.00126917,0.00942957,0.00725521,-0.00891515,-0.01093476,-0.00374719,0
 .00873847,-0.00780600,-0.00129241,-0.00063682,-0.00015083,-0.00051012,
 0.00226509,-0.00014104,-0.00059986,-0.00097342,0.00236166,0.00103214,0
 .00335754,-0.00306535,-0.00157362,0.00064587,-0.00055562,-0.00040366,-
 0.00046757,0.00024708,0.00059762,-0.00010660,-0.00170489,0.00060413,0.
 00018126,0.00018333,-0.00012326,0.00002320,-0.00009813,-0.00002435,-0.
 00011667,-0.00019270,0.00005782,-0.00001140,-0.00004825,0.00002150,0.0
 0003935,-0.00003603,-0.00002515,-0.00070253,0.00056158,0.00045664,-0.0
 1454890,0.00050382,-0.00251811,0.00014691,0.00020942,0.00015429,0.0371
 0813,0.03706770,-0.00036760,-0.03468547,-0.14597488,-0.00202443,0.2759
 6091,0.59099993,-0.00029443,-0.00005084,-0.00026417,-0.00051417,0.0006
 4545,0.00018522,-0.00004063,-0.00060762,-0.00016309,0.00142037,0.00036
 491,-0.00000960,-0.00003074,-0.00010638,-0.00003243,-0.00024488,-0.000
 07058,-0.00060782,0.00013325,-0.00003117,-0.00009996,-0.00056084,-0.00
 312191,-0.00386008,0.00032083,-0.00000711,0.00006835,-0.00004354,0.000
 00562,0.00005752,0.00002445,-0.00027357,-0.00003567,-0.00005676,-0.000
 02178,0.00011400,-0.00003222,-0.00003309,-0.00002513,0.00005278,-0.000
 00696,-0.00012877,-0.00000322,0.00000887,-0.00002001,0.00000970,-0.000
 01940,-0.00001837,-0.00020040,0.00009432,0.00020470,-0.00123575,-0.000
 41752,0.00048489,-0.00002508,0.00001856,0.00008596,0.00904729,0.000771
 56,0.00044125,-0.00381801,0.00016839,-0.06710169,-0.02113202,0.0003587
 1,0.20820565,-0.00007063,0.00035097,0.00307801,-0.00008791,-0.00902154
 ,-0.00682203,0.00941046,0.01372878,0.00607614,-0.00832971,0.00817006,-
 0.00063243,0.00009632,0.00014903,0.00006763,-0.00448550,-0.00032681,0.
 00036080,0.00026159,-0.00127214,-0.00095717,-0.06045433,-0.00297649,0.
 00673903,-0.00002898,0.00087015,0.00071123,0.00069625,-0.00027128,-0.0
 0054379,0.00023688,0.00118447,-0.00043045,-0.00027146,-0.00014664,0.00
 010277,-0.00017469,0.00002867,-0.00003494,0.00008174,0.00000282,-0.000
 10510,-0.00003468,0.00008276,-0.00006073,0.00000087,-0.00002332,0.0000
 0598,0.00033513,-0.00029315,-0.00023007,0.01425730,-0.00065210,0.00323
 075,-0.00004367,-0.00001325,0.00002605,-0.00081633,0.00990570,-0.00300
 252,-0.00580437,0.01395264,0.00310186,-0.06697432,-0.09614688,0.000286
 27,0.56643936,-0.00007183,-0.00007557,0.00230482,-0.00171669,-0.009021
 01,-0.00598706,0.00573739,0.00156484,0.00197513,-0.00985578,0.00831287
 ,-0.00002786,0.00046365,0.00032478,0.00033679,0.00196177,-0.00029341,-
 0.00000946,0.00048654,-0.00154007,-0.00097663,0.01422762,0.01106800,-0
 .00237847,-0.00098072,-0.00029401,-0.00025807,0.00046011,-0.00014103,-
 0.00038003,0.00009816,0.00134789,-0.00033663,0.00011731,0.00005629,0.0
 0000890,0.00021089,0.00009769,0.00004806,0.00006488,0.00003431,0.00006
 306,0.00003862,-0.00003861,0.00004734,-0.00004356,0.00003154,-0.000001
 54,0.00054882,-0.00038207,-0.00034862,0.01566675,-0.00084611,0.0037924
 7,-0.00009558,-0.00003460,-0.00013133,-0.01628373,-0.00374239,-0.00124
 198,0.01012076,-0.05853137,-0.00378763,-0.04476729,-0.31523046,-0.0069
 2744,0.19980574,0.53267186,-0.00022193,0.00009209,0.00059007,-0.000868
 84,-0.00114508,-0.00116084,0.00087168,0.00103681,0.00000433,0.00000075
 ,0.00130185,0.00014794,0.00018559,-0.00002524,0.00007101,0.00084566,-0
 .00099317,-0.00064064,0.00016459,0.00004822,-0.00017975,0.00424562,-0.
 00326999,0.01901220,-0.00059374,-0.00006200,-0.00055248,0.00013213,-0.
 00006638,-0.00009376,0.00017946,0.00015586,-0.00007432,-0.00004870,0.0
 0010160,-0.00010548,0.00014867,-0.00000176,0.00003570,0.00002000,-0.00
 016592,0.00016918,0.00001569,0.00002032,0.00002774,-0.00001978,-0.0000
 1006,0.00000901,-0.00008895,-0.00009668,0.00003511,0.00055461,-0.00077
 933,0.00050710,0.00000600,0.00010548,-0.00012312,0.00043624,0.00256546
 ,-0.00293840,-0.00357111,-0.00513068,0.01828330,0.00696726,-0.00977060
 ,-0.06916422,-0.02364387,0.01748663,0.05783861,0.00038559,0.00002854,-
 0.00302073,-0.00066267,0.01002962,0.00716665,-0.02348738,0.01285022,-0
 .00071039,0.00429599,-0.00801124,-0.00074041,-0.00001013,0.00006472,-0
 .00013939,-0.00278014,-0.00164108,0.00048040,-0.00127001,0.00057131,0.
 00198537,-0.11644763,0.05746591,0.01499371,0.00103847,0.00041903,0.001
 06597,-0.00081665,0.00019314,0.00044407,-0.00030623,-0.00121235,0.0003
 6103,-0.00006564,-0.00018775,0.00012106,-0.00036726,0.00001114,-0.0000
 5472,-0.00002962,0.00022043,-0.00014323,-0.00000439,0.00000018,-0.0000
 5794,0.00002901,0.00003743,0.00000950,-0.00015581,0.00023145,0.0000505
 3,-0.01081040,-0.00509103,-0.00121518,0.00002638,-0.00016746,0.0000566
 0,0.03117784,-0.01803262,0.00065150,0.01339890,0.02203062,0.00278031,-
 0.10965645,-0.04564056,-0.00325378,-0.31068356,-0.03461840,0.02655071,
 0.60912846,0.00048353,0.00072838,-0.00503597,0.00194800,0.01975004,0.0
 1129264,-0.00036133,0.01072662,-0.00676873,0.02543033,-0.02007026,0.00
 177497,-0.00095690,-0.00073187,-0.00004431,-0.00858839,-0.00019093,0.0
 0113743,-0.00029827,0.00084410,0.00304988,0.04862647,-0.11653459,-0.00
 909878,0.00164960,0.00112042,0.00070029,-0.00100813,0.00030924,0.00077
 809,0.00014151,-0.00296896,0.00060462,-0.00054690,-0.00038568,0.000086
 17,-0.00067672,-0.00013689,-0.00012669,-0.00008380,0.00008178,-0.00027
 944,-0.00009945,0.00018146,-0.00015150,0.00011659,-0.00005793,0.000031
 02,-0.00117787,0.00068122,0.00065433,-0.03847849,-0.00178064,-0.009731
 33,0.00027458,-0.00013364,0.00033366,0.00489032,-0.03446571,0.00080923
 ,0.01181560,0.01132907,-0.00175704,-0.05744297,-0.03978698,0.00388814,
 -0.00025124,-0.08654696,0.00041693,0.14822699,0.75902715,0.00074158,-0
 .00024468,-0.00100600,0.00423545,0.00363271,0.00330066,0.00179325,-0.0
 0606887,0.00483133,0.00096243,-0.00510799,-0.00081555,-0.00060335,0.00
 016239,-0.00045955,-0.00065744,0.00324551,0.00290200,-0.00071195,-0.00
 051272,0.00097491,0.01911863,-0.00390341,-0.08705103,0.00115802,-0.000
 03674,0.00182529,-0.00006643,0.00014130,0.00011300,-0.00002526,0.00005
 191,0.00001519,0.00038846,-0.00005101,0.00007342,-0.00036407,-0.000073
 42,-0.00015622,-0.00006210,0.00020782,-0.00019781,-0.00001425,-0.00011
 822,0.00000486,0.00001822,-0.00000639,-0.00001357,0.00014066,0.0000156
 5,-0.00016369,-0.00404974,-0.00049641,-0.00181012,-0.00001598,-0.00012
 128,0.00016446,-0.00389621,-0.00105977,0.01203860,0.00263845,0.0003554
 9,-0.00038911,-0.00037479,0.00201519,-0.01435575,0.02039129,0.00397570
 ,-0.05271022,-0.02414874,0.06463659,0.19791033,0.00003514,-0.00025629,
 -0.00020031,0.00030620,0.00033154,0.00039841,-0.00026207,-0.00112478,-
 0.00058057,-0.00026881,0.00009603,-0.00000782,-0.00001580,0.00001489,-
 0.00010074,-0.00195987,-0.00055267,0.00098681,0.00007882,0.00051030,0.
 00009539,0.01320350,-0.00832627,-0.00114761,-0.00101271,0.00005069,-0.
 00035167,-0.00004970,0.00009226,0.00008921,-0.00005117,0.00021539,0.00
 001124,-0.00011287,-0.00008002,0.00001079,0.00023491,0.00002959,-0.000
 00305,0.00013267,0.00006369,0.00022032,0.00005228,0.00002464,0.0000503
 1,-0.00008401,0.00010478,0.00003533,0.00007497,-0.00000964,-0.00002142
 ,0.00022573,0.00004440,0.00012884,-0.00014962,-0.00002456,-0.00061651,
 -0.15312675,0.13423508,0.02283845,-0.02284339,0.02903802,0.00572481,0.
 00336088,-0.00780160,0.00141326,0.00012939,0.00124042,-0.00024468,-0.0
 0165045,-0.00165260,0.00048247,0.16686830,0.00012462,-0.00010560,0.000
 01642,0.00019060,-0.00026803,0.00009401,0.00186776,-0.00127669,-0.0003
 5217,-0.00034525,0.00038644,-0.00002277,-0.00003395,-0.00000542,-0.000
 10476,0.00099411,0.00117882,0.00001728,0.00002679,0.00012679,-0.000019
 51,0.01785657,-0.01508034,-0.00392714,-0.00086736,0.00050374,-0.000251
 41,0.00001651,0.00008137,0.00006848,0.00002316,0.00014036,-0.00000996,
 -0.00005968,0.00016937,0.00003511,0.00019665,0.00003095,-0.00000195,0.
 00006626,-0.00022721,0.00008376,0.00002962,-0.00004201,0.00000059,0.00
 002549,-0.00002834,-0.00004646,0.00002226,-0.00002761,-0.00001297,0.00
 056070,0.00001349,0.00020547,-0.00021143,0.00035905,-0.00010980,0.1388
 9040,-0.24793170,-0.02982359,-0.00723865,0.01191575,0.00064153,-0.0013
 2235,-0.00095257,-0.00054965,0.00064129,0.00087682,0.00001058,-0.00608
 685,-0.00051778,0.00125736,-0.14597829,0.25158986,-0.00005225,-0.00009
 281,-0.00008230,0.00008743,-0.00014623,0.00060407,-0.00093027,-0.00024
 038,-0.00219077,-0.00008330,-0.00030268,-0.00027109,-0.00009251,0.0000
 1800,-0.00014905,0.00045874,0.00087248,-0.00033648,0.00025644,0.000086
 77,0.00005602,0.00063051,-0.00030451,0.00825393,0.00031910,-0.00007249
 ,0.00000533,-0.00004871,-0.00000684,-0.00001763,0.00000550,0.00008019,
 -0.00005951,-0.00020193,-0.00002226,0.00049141,0.00000993,0.00003813,-
 0.00001425,0.00027164,0.00015507,-0.00032567,0.00003005,0.00000914,-0.
 00007599,0.00000918,-0.00004461,-0.00005780,0.00004255,-0.00001892,-0.
 00002744,-0.00017699,0.00006010,0.00007362,-0.00050027,-0.00011949,-0.
 00007391,0.02499916,-0.03088797,-0.04974025,0.00241987,-0.00372934,0.0
 0984374,0.00089295,0.00145617,0.00882075,-0.00017165,0.00054510,-0.001
 20951,-0.00071930,-0.00102784,0.00301364,-0.02768082,0.03300070,0.0312
 1450,0.00000311,-0.00006277,-0.00006639,-0.00020275,-0.00001149,0.0002
 2916,0.00072366,-0.00134800,-0.00017499,0.00005914,-0.00008558,0.00002
 093,0.00002316,0.00000276,-0.00000904,0.00024063,0.00022475,-0.0000211
 4,-0.00033521,-0.00012765,0.00003708,-0.00470374,0.00168611,0.00161669
 ,-0.00002438,-0.00000093,0.00000774,-0.00004052,0.00000425,0.00000867,
 -0.00000462,0.00005536,-0.00002955,-0.00003475,-0.00005175,0.00005973,
 0.00000273,0.00000702,-0.00000229,0.00004613,0.00006906,-0.00004697,0.
 00001223,0.00001024,-0.00000662,-0.00001555,0.00001391,0.00000231,0.00
 001607,-0.00000882,-0.00000542,-0.00013249,0.00003618,-0.00002341,-0.0
 0006491,-0.00007458,-0.00000973,-0.00840945,-0.03321000,-0.00042840,-0
 .12431089,-0.13396733,0.00612754,0.01975625,0.01903447,-0.00117765,-0.
 00317509,0.00586811,0.00116672,-0.00341627,-0.00114876,-0.00024827,0.0
 0028642,0.00027589,-0.00053982,0.12405918,-0.00000511,-0.00000580,0.00
 054342,-0.00049225,-0.00103994,-0.00121156,0.00131436,0.00183936,0.000
 47114,-0.00023606,0.00069772,0.00032573,0.00009749,-0.00001037,0.00011
 919,0.00028434,-0.00056978,-0.00002926,-0.00002102,-0.00032488,-0.0001
 0096,0.00128940,0.00250163,-0.00016025,-0.00029801,0.00006719,0.000013
 76,0.00011328,-0.00005481,-0.00011159,0.00022564,0.00022070,-0.0001475
 4,0.00002661,0.00012942,-0.00005094,0.00004540,0.00001067,-0.00000505,
 0.00002198,-0.00022067,0.00008647,0.00000307,-0.00001278,0.00001971,-0
 .00000696,-0.00003839,-0.00001100,-0.00007758,-0.00011725,-0.00002060,
 0.00051637,-0.00012003,-0.00002564,-0.00000203,0.00018604,-0.00005577,
 0.00092800,0.00415099,0.00002776,-0.13769796,-0.38893575,0.00217657,-0
 .01914047,-0.01557155,0.00053308,0.00457569,-0.00341139,0.00004726,0.0
 0072138,-0.00024781,-0.00006263,0.00019224,0.00114630,0.00020070,0.147
 33274,0.39598805,0.00014351,-0.00004134,-0.00036217,0.00041760,0.00043
 195,0.00094828,-0.00042228,-0.00008064,0.00015920,0.00003067,-0.000503
 88,-0.00031306,-0.00003914,0.00003661,-0.00007553,0.00001367,0.0000419
 6,0.00040259,-0.00012430,-0.00018172,0.00022685,0.00255523,0.00080576,
 0.00724588,0.00008662,0.00000027,0.00005816,-0.00006712,0.00003117,0.0
 0007051,-0.00002175,-0.00002446,0.00006186,-0.00000915,-0.00001732,0.0
 0011301,-0.00000200,0.00001732,-0.00000441,0.00005253,0.00007597,-0.00
 013342,0.00000596,-0.00001095,-0.00001028,0.00000841,-0.00000703,-0.00
 001124,0.00006192,0.00001244,-0.00000561,-0.00025748,0.00007922,0.0000
 2417,-0.00004859,-0.00005029,0.00008323,0.00130198,0.00338739,0.000269
 57,0.00596518,-0.00009179,-0.02123299,-0.00162864,-0.00151295,0.000516
 52,-0.00036004,-0.00030237,0.00467121,-0.00098062,-0.00035652,-0.00367
 806,-0.00099306,0.00044501,-0.00523402,-0.00624664,-0.00241395,0.01880
 590,-0.00007944,0.00015776,0.00126471,0.00004643,-0.00324825,-0.002746
 21,0.00324629,0.00329976,0.00292748,-0.00235880,0.00304143,-0.00044251
 ,-0.00006915,-0.00000793,-0.00007505,-0.00147102,-0.00013986,0.0000863
 8,-0.00026137,-0.00011456,-0.00039456,-0.01858049,-0.01141005,0.000716
 28,0.00007583,0.00017208,0.00022384,0.00034435,-0.00008605,-0.00020219
 ,0.00009441,0.00034772,-0.00014642,-0.00004733,-0.00001298,0.00001467,
 -0.00006478,-0.00001728,-0.00002330,0.00000019,-0.00003697,-0.00002591
 ,-0.00001979,0.00002144,-0.00001664,0.00001385,-0.00002163,-0.00000260
 ,0.00004316,-0.00004564,-0.00000685,0.00427064,-0.00034259,0.00086372,
 0.00002413,0.00004952,0.00005467,0.01938426,0.03404380,-0.00244715,-0.
 14089075,0.02856049,0.01247546,-0.50125590,-0.16161972,0.01864695,-0.0
 7183153,-0.06379267,-0.00155591,0.05369110,0.00410733,-0.00171208,-0.0
 0370644,-0.00061856,0.00039664,-0.00123787,0.00070829,-0.00015199,0.67
 607840,0.00009770,-0.00002025,0.00090765,-0.00034656,-0.00300360,-0.00
 218232,0.00293986,0.00310506,0.00126953,-0.00297210,0.00251049,0.00019
 456,0.00016459,0.00006095,0.00011915,-0.00088347,0.00020477,0.00021284
 ,0.00018512,-0.00065371,-0.00032952,-0.00371064,-0.00269050,0.00043349
 ,-0.00013872,0.00016586,0.00013984,0.00014588,-0.00006401,-0.00017212,
 -0.00001437,0.00050334,-0.00016207,-0.00006485,-0.00008466,0.00006032,
 -0.00002131,0.00002658,0.00000677,0.00003595,0.00009908,-0.00004755,0.
 00000190,0.00001796,-0.00001362,-0.00000802,0.00001906,0.00000746,0.00
 024040,-0.00014590,-0.00014160,0.00478148,-0.00014106,0.00102212,-0.00
 005214,-0.00008333,-0.00002267,0.00053730,-0.00270761,-0.00057932,0.03
 723516,0.02026472,-0.00183862,-0.13803990,-0.12869811,0.00570334,-0.07
 906936,-0.03838310,0.00273452,0.01793863,0.00150656,-0.00175845,0.0008
 3228,0.00048628,-0.00030685,-0.00489615,0.00328651,0.00043151,0.175515
 34,0.15289304,0.00008280,-0.00000163,0.00001882,0.00008331,-0.00005889
 ,-0.00001646,-0.00002024,0.00004211,-0.00028124,-0.00024985,-0.0001385
 6,0.00008891,0.00001296,0.00000879,0.00002635,0.00008948,0.00006816,0.
 00028404,-0.00003823,-0.00004566,0.00003395,0.00092888,0.00119896,-0.0
 0081970,-0.00006838,-0.00000447,-0.00001120,0.00000075,0.00000733,-0.0
 0000422,-0.00001697,0.00004650,0.00003084,0.00003802,0.00001040,-0.000
 07203,0.00000472,0.00001112,0.00000825,-0.00003774,-0.00000614,0.00008
 051,-0.00000146,-0.00000651,0.00000881,-0.00000399,0.00000990,0.000009
 55,0.00005182,-0.00001736,-0.00005859,0.00016124,0.00012879,-0.0001623
 0,0.00001762,0.00000012,-0.00004740,-0.00165200,-0.00221799,0.00203631
 ,0.01121770,-0.00219798,0.02116384,0.01795364,0.00881025,-0.07268971,0
 .00092779,-0.00126485,0.01608487,-0.00218114,-0.00095183,0.00875520,-0
 .00018140,0.00021846,-0.00201090,-0.00019691,0.00009849,-0.00271589,-0
 .02780776,-0.00432698,0.03178813,-0.00030632,0.00056714,0.00359337,-0.
 00020050,-0.01826805,-0.00854228,0.00562781,0.00213002,0.00463393,-0.0
 4001426,0.01295532,-0.01002132,0.00030279,0.00101564,-0.00004466,0.000
 33377,0.00080123,-0.00040065,0.00015433,0.00003134,-0.00180647,0.00792
 787,0.00406423,0.00281855,-0.00044140,-0.00017078,-0.00014443,0.000736
 98,-0.00031543,-0.00051606,-0.00054756,0.00189026,0.00007746,0.0000380
 9,-0.00008695,0.00008275,0.00015469,0.00013909,0.00012854,-0.00004829,
 0.00030175,-0.00006463,-0.00000252,-0.00000554,-0.00001488,-0.00001948
 ,0.00008907,-0.00001133,0.00141077,-0.00016828,-0.00120186,0.01088603,
 0.00733375,0.00599955,-0.00009305,-0.00019333,-0.00000615,-0.00388827,
 0.00683618,-0.00081173,-0.00337376,-0.00913268,-0.00128819,0.01851475,
 0.02391574,0.00130897,-0.05867850,-0.08489126,-0.01163388,-0.13055105,
 -0.13493903,-0.01511824,0.00030446,0.00095370,0.00036813,0.00087981,-0
 .00041887,0.00070953,-0.01543839,-0.01043400,0.00088531,0.20633123,-0.
 00025714,0.00014656,0.00440178,-0.00230792,-0.01491981,-0.00944746,0.0
 0156555,0.00484499,0.00572592,-0.02164154,0.01906711,-0.00214026,0.000
 67805,0.00085798,0.00017752,0.00178035,-0.00004691,-0.00000495,-0.0001
 0706,-0.00101459,-0.00151426,-0.00638849,-0.07715287,-0.01523544,-0.00
 162064,-0.00019265,0.00001831,0.00083382,-0.00032440,-0.00075909,0.000
 03770,0.00250607,-0.00063750,0.00017207,0.00009694,0.00007222,0.000295
 85,0.00015336,0.00007960,0.00011340,0.00008986,0.00008439,0.00005891,-
 0.00006710,0.00005825,-0.00008314,0.00007447,-0.00000967,0.00109648,-0
 .00073989,-0.00068154,0.03139514,-0.00888037,0.00800036,-0.00024178,-0
 .00002863,-0.00024276,0.01082841,-0.00152208,-0.00304222,-0.00254042,-
 0.00715756,0.00049535,0.01311535,0.02930089,-0.00031593,-0.06298455,-0
 .03787473,-0.00460671,-0.15035140,-0.50172938,-0.06007564,-0.00130952,
 -0.00254209,0.00080067,0.00037298,0.00045663,-0.00020137,-0.00851020,-
 0.00847442,0.00057949,0.19599975,0.60507263,-0.00000484,0.00052861,0.0
 0102304,-0.00161274,-0.00696487,-0.00361546,0.00018447,0.00214009,-0.0
 0169748,-0.01711212,0.00578174,0.00250318,0.00039750,0.00023303,0.0002
 1452,0.00096272,-0.00112430,0.00045099,-0.00088475,-0.00043809,0.00023
 034,-0.00076853,-0.01875009,0.01832803,-0.00094745,-0.00034208,-0.0003
 3269,0.00022236,-0.00009726,-0.00011216,-0.00035359,0.00062022,0.00053
 087,0.00010586,0.00003250,-0.00004887,0.00011792,0.00014783,0.00008765
 ,-0.00004575,0.00011631,0.00013710,0.00002255,-0.00002109,0.00003200,-
 0.00001970,0.00007651,0.00000374,0.00057643,0.00001609,-0.00081698,0.0
 1223620,0.00235440,-0.00484688,-0.00002628,-0.00008012,-0.00013162,0.0
 0213205,-0.00316625,-0.00101972,0.00181074,-0.00061891,-0.00138470,-0.
 00023809,0.00470341,0.00939166,-0.00811079,-0.00622401,0.01146536,-0.0
 1935187,-0.05486401,-0.07311621,-0.00035597,-0.00086262,-0.00050046,-0
 .00004332,-0.00025654,0.00011974,0.00008633,-0.00136144,-0.00152874,0.
 03102066,0.07842095,0.04463377\\0.00000220,0.00000191,-0.00000762,0.00
 000366,0.00000267,-0.00000263,-0.00001397,-0.00004336,0.00000813,-0.00
 001525,-0.00000160,-0.00000032,0.00000027,-0.00000209,0.00000056,-0.00
 001200,0.00002112,0.00000413,0.00000377,0.00001664,-0.00000289,0.00001
 447,-0.00001414,0.00000187,0.00000530,0.00000251,-0.00000299,0.0000007
 4,-0.00000299,0.00000206,-0.00000180,-0.00000269,0.00000894,-0.0000037
 3,-0.00000609,0.00000930,-0.00000241,-0.00000174,-0.00000064,0.0000071
 3,-0.00000365,-0.00000616,0.00000122,-0.00000042,-0.00000128,0.0000015
 8,-0.00000145,-0.00000256,-0.00000268,0.00000876,0.00000172,0.00000443
 ,0.00000560,-0.00000237,-0.00000468,0.00000173,-0.00000323,-0.00001239
 ,0.00000640,-0.00000518,0.00001888,0.00000514,0.00000846,-0.00000997,0
 .00002361,-0.00000617,0.00001608,-0.00001073,0.00000588,-0.00002348,-0
 .00001128,-0.00000458,0.00000268,0.00000202,-0.00000223,-0.00000434,0.
 00000110,-0.00000358,0.00000711,-0.00000645,-0.00000195,0.00001722,0.0
 0000946,0.00000533\\\@
 The archive entry for this job was punched.


 Any fool can criticize, condemn, and complain -- and most do.
 -- Dale Carnegie
 Job cpu time:       0 days 17 hours 21 minutes 53.4 seconds.
 Elapsed time:       0 days  0 hours 26 minutes 16.0 seconds.
 File lengths (MBytes):  RWF=   1167 Int=      0 D2E=      0 Chk=     28 Scr=      1
 Normal termination of Gaussian 16 at Sun Oct 27 20:12:15 2024.
