 Entering Gaussian System, Link 0=g16
 Input=PseudoUridineAnSsllgPBE0aVDZ.gjf
 Output=PseudoUridineAnSsllgPBE0aVDZ.log
 Initial command:
 /sw/contrib/chem-src/g16/c01/g16/l1.exe "/scr/Gau-99445.inp" -scrdir="/scr/"
 Entering Link 1 = /sw/contrib/chem-src/g16/c01/g16/l1.exe PID=     99446.
  
 Copyright (c) 1988-2019, Gaussian, Inc.  All Rights Reserved.
  
 This is part of the Gaussian(R) 16 program.  It is based on
 the Gaussian(R) 09 system (copyright 2009, Gaussian, Inc.),
 the Gaussian(R) 03 system (copyright 2003, Gaussian, Inc.),
 the Gaussian(R) 98 system (copyright 1998, Gaussian, Inc.),
 the Gaussian(R) 94 system (copyright 1995, Gaussian, Inc.),
 the Gaussian 92(TM) system (copyright 1992, Gaussian, Inc.),
 the Gaussian 90(TM) system (copyright 1990, Gaussian, Inc.),
 the Gaussian 88(TM) system (copyright 1988, Gaussian, Inc.),
 the Gaussian 86(TM) system (copyright 1986, Carnegie Mellon
 University), and the Gaussian 82(TM) system (copyright 1983,
 Carnegie Mellon University). Gaussian is a federally registered
 trademark of Gaussian, Inc.
  
 This software contains proprietary and confidential information,
 including trade secrets, belonging to Gaussian, Inc.
  
 This software is provided under written license and may be
 used, copied, transmitted, or stored only in accord with that
 written license.
  
 The following legend is applicable only to US Government
 contracts under FAR:
  
                    RESTRICTED RIGHTS LEGEND
  
 Use, reproduction and disclosure by the US Government is
 subject to restrictions as set forth in subparagraphs (a)
 and (c) of the Commercial Computer Software - Restricted
 Rights clause in FAR 52.227-19.
  
 Gaussian, Inc.
 340 Quinnipiac St., Bldg. 40, Wallingford CT 06492
  
  
 ---------------------------------------------------------------
 Warning -- This program may not be used in any manner that
 competes with the business of Gaussian, Inc. or will provide
 assistance to any competitor of Gaussian, Inc.  The licensee
 of this program is prohibited from giving any competitor of
 Gaussian, Inc. access to this program.  By using this program,
 the user acknowledges that Gaussian, Inc. is engaged in the
 business of creating and licensing software in the field of
 computational chemistry and represents and warrants to the
 licensee that it is not a competitor of Gaussian, Inc. and that
 it will not use this program in any manner prohibited above.
 ---------------------------------------------------------------
  

 Cite this work as:
 Gaussian 16, Revision C.01,
 M. J. Frisch, G. W. Trucks, H. B. Schlegel, G. E. Scuseria, 
 M. A. Robb, J. R. Cheeseman, G. Scalmani, V. Barone, 
 G. A. Petersson, H. Nakatsuji, X. Li, M. Caricato, A. V. Marenich, 
 J. Bloino, B. G. Janesko, R. Gomperts, B. Mennucci, H. P. Hratchian, 
 J. V. Ortiz, A. F. Izmaylov, J. L. Sonnenberg, D. Williams-Young, 
 F. Ding, F. Lipparini, F. Egidi, J. Goings, B. Peng, A. Petrone, 
 T. Henderson, D. Ranasinghe, V. G. Zakrzewski, J. Gao, N. Rega, 
 G. Zheng, W. Liang, M. Hada, M. Ehara, K. Toyota, R. Fukuda, 
 J. Hasegawa, M. Ishida, T. Nakajima, Y. Honda, O. Kitao, H. Nakai, 
 T. Vreven, K. Throssell, J. A. Montgomery, Jr., J. E. Peralta, 
 F. Ogliaro, M. J. Bearpark, J. J. Heyd, E. N. Brothers, K. N. Kudin, 
 V. N. Staroverov, T. A. Keith, R. Kobayashi, J. Normand, 
 K. Raghavachari, A. P. Rendell, J. C. Burant, S. S. Iyengar, 
 J. Tomasi, M. Cossi, J. M. Millam, M. Klene, C. Adamo, R. Cammi, 
 J. W. Ochterski, R. L. Martin, K. Morokuma, O. Farkas, 
 J. B. Foresman, and D. J. Fox, Gaussian, Inc., Wallingford CT, 2019.
 
 ******************************************
 Gaussian 16:  EM64L-G16RevC.01  3-Jul-2019
                26-Oct-2024 
 ******************************************
 %nprocshared=40
 Will use up to   40 processors via shared memory.
 %mem=50gb
 ------------------------------------------------------
 # PBE1PBE/aug-cc-pVDZ opt freq EmpiricalDispersion=GD3
 ------------------------------------------------------
 1/18=20,19=15,26=3,38=1/1,3;
 2/9=110,12=2,17=6,18=5,40=1/2;
 3/5=16,7=10,11=2,25=1,30=1,71=1,74=-13,124=31/1,2,3;
 4//1;
 5/5=2,38=5/2;
 6/7=2,8=2,9=2,10=2,28=1/1;
 7//1,2,3,16;
 1/18=20,19=15,26=3/3(2);
 2/9=110/2;
 99//99;
 2/9=110/2;
 3/5=16,7=10,11=2,25=1,30=1,71=1,74=-13,124=31/1,2,3;
 4/5=5,16=3,69=1/1;
 5/5=2,38=5/2;
 7//1,2,3,16;
 1/18=20,19=15,26=3/3(-5);
 2/9=110/2;
 6/7=2,8=2,9=2,10=2,19=2,28=1/1;
 99/9=1/99;
 ----
 blah
 ----
 Symbolic Z-matrix:
 Charge = -1 Multiplicity = 1
 C                     2.77436   0.5586    0.14642 
 C                     1.33973   0.92158   0.54774 
 C                     0.546     0.29962  -0.6155 
 O                     1.23199   2.3121    0.6719 
 H                     1.07703   0.4026    1.4853 
 O                     1.21133  -0.92224  -0.87857 
 H                     0.63248   0.98549  -1.47884 
 C                    -0.90312   0.01255  -0.35625 
 C                     2.61688  -0.77578  -0.58498 
 H                     3.4251    0.46503   1.02976 
 O                     3.28203   1.51596  -0.75677 
 C                     3.03857  -1.99829   0.20362 
 H                     3.18064  -0.72586  -1.52874 
 O                     2.34097  -2.10996   1.42854 
 H                     4.10628  -1.92324   0.44768 
 H                     2.89375  -2.89757  -0.41964 
 H                     2.89932   2.36262  -0.48278 
 H                     0.29306   2.54423   0.5419 
 H                     1.4023   -2.10121   1.21074 
 C                    -1.43596  -1.22483  -0.49378 
 N                    -2.76542  -1.47633  -0.28841 
 C                    -3.68643  -0.50652   0.05682 
 N                    -3.12155   0.74839   0.1819 
 C                    -1.78933   1.10169   0.01817 
 H                    -0.82225  -2.07393  -0.78581 
 H                    -3.14201  -2.40716  -0.39539 
 O                    -4.8653   -0.73587   0.23231 
 O                    -1.44894   2.27016   0.19528 
 

 GradGradGradGradGradGradGradGradGradGradGradGradGradGradGradGradGradGrad
 Berny optimization.
 Initialization pass.
                           ----------------------------
                           !    Initial Parameters    !
                           ! (Angstroms and Degrees)  !
 --------------------------                            --------------------------
 ! Name  Definition              Value          Derivative Info.                !
 --------------------------------------------------------------------------------
 ! R1    R(1,2)                  1.5333         estimate D2E/DX2                !
 ! R2    R(1,9)                  1.5298         estimate D2E/DX2                !
 ! R3    R(1,10)                 1.1011         estimate D2E/DX2                !
 ! R4    R(1,11)                 1.4107         estimate D2E/DX2                !
 ! R5    R(2,3)                  1.5395         estimate D2E/DX2                !
 ! R6    R(2,4)                  1.4002         estimate D2E/DX2                !
 ! R7    R(2,5)                  1.1034         estimate D2E/DX2                !
 ! R8    R(3,6)                  1.4159         estimate D2E/DX2                !
 ! R9    R(3,7)                  1.106          estimate D2E/DX2                !
 ! R10   R(3,8)                  1.4999         estimate D2E/DX2                !
 ! R11   R(4,18)                 0.9759         estimate D2E/DX2                !
 ! R12   R(6,9)                  1.4433         estimate D2E/DX2                !
 ! R13   R(8,20)                 1.3542         estimate D2E/DX2                !
 ! R14   R(8,24)                 1.4532         estimate D2E/DX2                !
 ! R15   R(9,12)                 1.5147         estimate D2E/DX2                !
 ! R16   R(9,13)                 1.1005         estimate D2E/DX2                !
 ! R17   R(11,17)                0.9687         estimate D2E/DX2                !
 ! R18   R(12,14)                1.414          estimate D2E/DX2                !
 ! R19   R(12,15)                1.0978         estimate D2E/DX2                !
 ! R20   R(12,16)                1.1037         estimate D2E/DX2                !
 ! R21   R(14,19)                0.9636         estimate D2E/DX2                !
 ! R22   R(20,21)                1.3685         estimate D2E/DX2                !
 ! R23   R(20,25)                1.0876         estimate D2E/DX2                !
 ! R24   R(21,22)                1.3813         estimate D2E/DX2                !
 ! R25   R(21,26)                1.0098         estimate D2E/DX2                !
 ! R26   R(22,23)                1.3819         estimate D2E/DX2                !
 ! R27   R(22,27)                1.2137         estimate D2E/DX2                !
 ! R28   R(23,24)                1.388          estimate D2E/DX2                !
 ! R29   R(24,28)                1.2299         estimate D2E/DX2                !
 ! A1    A(2,1,9)              103.6096         estimate D2E/DX2                !
 ! A2    A(2,1,10)             111.2903         estimate D2E/DX2                !
 ! A3    A(2,1,11)             110.0987         estimate D2E/DX2                !
 ! A4    A(9,1,10)             111.731          estimate D2E/DX2                !
 ! A5    A(9,1,11)             108.8381         estimate D2E/DX2                !
 ! A6    A(10,1,11)            111.015          estimate D2E/DX2                !
 ! A7    A(1,2,3)              100.8944         estimate D2E/DX2                !
 ! A8    A(1,2,4)              109.2869         estimate D2E/DX2                !
 ! A9    A(1,2,5)              109.5015         estimate D2E/DX2                !
 ! A10   A(3,2,4)              115.3755         estimate D2E/DX2                !
 ! A11   A(3,2,5)              109.225          estimate D2E/DX2                !
 ! A12   A(4,2,5)              111.9283         estimate D2E/DX2                !
 ! A13   A(2,3,6)              104.2859         estimate D2E/DX2                !
 ! A14   A(2,3,7)              107.3957         estimate D2E/DX2                !
 ! A15   A(2,3,8)              116.4145         estimate D2E/DX2                !
 ! A16   A(6,3,7)              110.6937         estimate D2E/DX2                !
 ! A17   A(6,3,8)              108.7202         estimate D2E/DX2                !
 ! A18   A(7,3,8)              109.2179         estimate D2E/DX2                !
 ! A19   A(2,4,18)             107.3643         estimate D2E/DX2                !
 ! A20   A(3,6,9)              109.4045         estimate D2E/DX2                !
 ! A21   A(3,8,20)             122.5123         estimate D2E/DX2                !
 ! A22   A(3,8,24)             119.3599         estimate D2E/DX2                !
 ! A23   A(20,8,24)            118.101          estimate D2E/DX2                !
 ! A24   A(1,9,6)              106.6191         estimate D2E/DX2                !
 ! A25   A(1,9,12)             115.2409         estimate D2E/DX2                !
 ! A26   A(1,9,13)             108.5248         estimate D2E/DX2                !
 ! A27   A(6,9,12)             107.1647         estimate D2E/DX2                !
 ! A28   A(6,9,13)             109.211          estimate D2E/DX2                !
 ! A29   A(12,9,13)            109.9068         estimate D2E/DX2                !
 ! A30   A(1,11,17)            105.6571         estimate D2E/DX2                !
 ! A31   A(9,12,14)            112.1725         estimate D2E/DX2                !
 ! A32   A(9,12,15)            109.3502         estimate D2E/DX2                !
 ! A33   A(9,12,16)            109.0921         estimate D2E/DX2                !
 ! A34   A(14,12,15)           107.0148         estimate D2E/DX2                !
 ! A35   A(14,12,16)           111.1064         estimate D2E/DX2                !
 ! A36   A(15,12,16)           107.9904         estimate D2E/DX2                !
 ! A37   A(12,14,19)           106.5018         estimate D2E/DX2                !
 ! A38   A(8,20,21)            122.3374         estimate D2E/DX2                !
 ! A39   A(8,20,25)            121.2375         estimate D2E/DX2                !
 ! A40   A(21,20,25)           116.4223         estimate D2E/DX2                !
 ! A41   A(20,21,22)           123.7942         estimate D2E/DX2                !
 ! A42   A(20,21,26)           121.05           estimate D2E/DX2                !
 ! A43   A(22,21,26)           115.1513         estimate D2E/DX2                !
 ! A44   A(21,22,23)           112.809          estimate D2E/DX2                !
 ! A45   A(21,22,27)           123.4418         estimate D2E/DX2                !
 ! A46   A(23,22,27)           123.7491         estimate D2E/DX2                !
 ! A47   A(22,23,24)           127.7957         estimate D2E/DX2                !
 ! A48   A(8,24,23)            115.1482         estimate D2E/DX2                !
 ! A49   A(8,24,28)            125.4779         estimate D2E/DX2                !
 ! A50   A(23,24,28)           119.3737         estimate D2E/DX2                !
 ! D1    D(9,1,2,3)            -31.7927         estimate D2E/DX2                !
 ! D2    D(9,1,2,4)           -153.779          estimate D2E/DX2                !
 ! D3    D(9,1,2,5)             83.2878         estimate D2E/DX2                !
 ! D4    D(10,1,2,3)          -152.0042         estimate D2E/DX2                !
 ! D5    D(10,1,2,4)            86.0096         estimate D2E/DX2                !
 ! D6    D(10,1,2,5)           -36.9237         estimate D2E/DX2                !
 ! D7    D(11,1,2,3)            84.4617         estimate D2E/DX2                !
 ! D8    D(11,1,2,4)           -37.5246         estimate D2E/DX2                !
 ! D9    D(11,1,2,5)          -160.4578         estimate D2E/DX2                !
 ! D10   D(2,1,9,6)             14.6117         estimate D2E/DX2                !
 ! D11   D(2,1,9,12)          -104.1526         estimate D2E/DX2                !
 ! D12   D(2,1,9,13)           132.1388         estimate D2E/DX2                !
 ! D13   D(10,1,9,6)           134.5232         estimate D2E/DX2                !
 ! D14   D(10,1,9,12)           15.7589         estimate D2E/DX2                !
 ! D15   D(10,1,9,13)         -107.9497         estimate D2E/DX2                !
 ! D16   D(11,1,9,6)          -102.5287         estimate D2E/DX2                !
 ! D17   D(11,1,9,12)          138.707          estimate D2E/DX2                !
 ! D18   D(11,1,9,13)           14.9984         estimate D2E/DX2                !
 ! D19   D(2,1,11,17)           34.7102         estimate D2E/DX2                !
 ! D20   D(9,1,11,17)          147.6389         estimate D2E/DX2                !
 ! D21   D(10,1,11,17)         -88.9842         estimate D2E/DX2                !
 ! D22   D(1,2,3,6)             39.0315         estimate D2E/DX2                !
 ! D23   D(1,2,3,7)            -78.4784         estimate D2E/DX2                !
 ! D24   D(1,2,3,8)            158.7856         estimate D2E/DX2                !
 ! D25   D(4,2,3,6)            156.6491         estimate D2E/DX2                !
 ! D26   D(4,2,3,7)             39.1392         estimate D2E/DX2                !
 ! D27   D(4,2,3,8)            -83.5968         estimate D2E/DX2                !
 ! D28   D(5,2,3,6)            -76.2557         estimate D2E/DX2                !
 ! D29   D(5,2,3,7)            166.2344         estimate D2E/DX2                !
 ! D30   D(5,2,3,8)             43.4984         estimate D2E/DX2                !
 ! D31   D(1,2,4,18)           156.0164         estimate D2E/DX2                !
 ! D32   D(3,2,4,18)            43.2112         estimate D2E/DX2                !
 ! D33   D(5,2,4,18)           -82.5076         estimate D2E/DX2                !
 ! D34   D(2,3,6,9)            -31.5689         estimate D2E/DX2                !
 ! D35   D(7,3,6,9)             83.6433         estimate D2E/DX2                !
 ! D36   D(8,3,6,9)           -156.3882         estimate D2E/DX2                !
 ! D37   D(2,3,8,20)          -122.8479         estimate D2E/DX2                !
 ! D38   D(2,3,8,24)            59.0726         estimate D2E/DX2                !
 ! D39   D(6,3,8,20)            -5.5096         estimate D2E/DX2                !
 ! D40   D(6,3,8,24)           176.4109         estimate D2E/DX2                !
 ! D41   D(7,3,8,20)           115.3714         estimate D2E/DX2                !
 ! D42   D(7,3,8,24)           -62.7081         estimate D2E/DX2                !
 ! D43   D(3,6,9,1)             10.6645         estimate D2E/DX2                !
 ! D44   D(3,6,9,12)           134.5788         estimate D2E/DX2                !
 ! D45   D(3,6,9,13)          -106.4082         estimate D2E/DX2                !
 ! D46   D(3,8,20,21)         -178.343          estimate D2E/DX2                !
 ! D47   D(3,8,20,25)            1.0305         estimate D2E/DX2                !
 ! D48   D(24,8,20,21)          -0.2405         estimate D2E/DX2                !
 ! D49   D(24,8,20,25)         179.133          estimate D2E/DX2                !
 ! D50   D(3,8,24,23)          177.3881         estimate D2E/DX2                !
 ! D51   D(3,8,24,28)           -2.7645         estimate D2E/DX2                !
 ! D52   D(20,8,24,23)          -0.776          estimate D2E/DX2                !
 ! D53   D(20,8,24,28)         179.0714         estimate D2E/DX2                !
 ! D54   D(1,9,12,14)           57.0647         estimate D2E/DX2                !
 ! D55   D(1,9,12,15)          -61.4916         estimate D2E/DX2                !
 ! D56   D(1,9,12,16)         -179.3933         estimate D2E/DX2                !
 ! D57   D(6,9,12,14)          -61.3958         estimate D2E/DX2                !
 ! D58   D(6,9,12,15)         -179.9521         estimate D2E/DX2                !
 ! D59   D(6,9,12,16)           62.1462         estimate D2E/DX2                !
 ! D60   D(13,9,12,14)        -179.9589         estimate D2E/DX2                !
 ! D61   D(13,9,12,15)          61.4849         estimate D2E/DX2                !
 ! D62   D(13,9,12,16)         -56.4168         estimate D2E/DX2                !
 ! D63   D(9,12,14,19)          55.463          estimate D2E/DX2                !
 ! D64   D(15,12,14,19)        175.3894         estimate D2E/DX2                !
 ! D65   D(16,12,14,19)        -66.9428         estimate D2E/DX2                !
 ! D66   D(8,20,21,22)           0.8826         estimate D2E/DX2                !
 ! D67   D(8,20,21,26)        -179.929          estimate D2E/DX2                !
 ! D68   D(25,20,21,22)       -178.5192         estimate D2E/DX2                !
 ! D69   D(25,20,21,26)          0.6691         estimate D2E/DX2                !
 ! D70   D(20,21,22,23)         -0.3774         estimate D2E/DX2                !
 ! D71   D(20,21,22,27)        179.6993         estimate D2E/DX2                !
 ! D72   D(26,21,22,23)       -179.6092         estimate D2E/DX2                !
 ! D73   D(26,21,22,27)          0.4675         estimate D2E/DX2                !
 ! D74   D(21,22,23,24)         -0.8025         estimate D2E/DX2                !
 ! D75   D(27,22,23,24)        179.1205         estimate D2E/DX2                !
 ! D76   D(22,23,24,8)           1.3726         estimate D2E/DX2                !
 ! D77   D(22,23,24,28)       -178.4848         estimate D2E/DX2                !
 --------------------------------------------------------------------------------
 Trust Radius=3.00D-01 FncErr=1.00D-07 GrdErr=1.00D-06 EigMax=2.50D+02 EigMin=1.00D-04
 Number of steps in this run=    166 maximum allowed number of steps=    168.
 GradGradGradGradGradGradGradGradGradGradGradGradGradGradGradGradGradGrad

                          Input orientation:                          
 ---------------------------------------------------------------------
 Center     Atomic      Atomic             Coordinates (Angstroms)
 Number     Number       Type             X           Y           Z
 ---------------------------------------------------------------------
      1          6           0        2.774360    0.558603    0.146423
      2          6           0        1.339730    0.921580    0.547737
      3          6           0        0.546004    0.299615   -0.615499
      4          8           0        1.231989    2.312095    0.671898
      5          1           0        1.077025    0.402595    1.485304
      6          8           0        1.211326   -0.922236   -0.878565
      7          1           0        0.632482    0.985487   -1.478843
      8          6           0       -0.903115    0.012549   -0.356247
      9          6           0        2.616875   -0.775779   -0.584979
     10          1           0        3.425097    0.465031    1.029764
     11          8           0        3.282027    1.515960   -0.756772
     12          6           0        3.038568   -1.998289    0.203621
     13          1           0        3.180639   -0.725858   -1.528739
     14          8           0        2.340973   -2.109960    1.428540
     15          1           0        4.106279   -1.923240    0.447684
     16          1           0        2.893751   -2.897565   -0.419641
     17          1           0        2.899316    2.362621   -0.482777
     18          1           0        0.293062    2.544233    0.541898
     19          1           0        1.402303   -2.101206    1.210744
     20          6           0       -1.435956   -1.224831   -0.493778
     21          7           0       -2.765423   -1.476332   -0.288409
     22          6           0       -3.686433   -0.506519    0.056824
     23          7           0       -3.121555    0.748388    0.181902
     24          6           0       -1.789325    1.101689    0.018167
     25          1           0       -0.822249   -2.073927   -0.785809
     26          1           0       -3.142012   -2.407162   -0.395390
     27          8           0       -4.865298   -0.735866    0.232314
     28          8           0       -1.448938    2.270165    0.195275
 ---------------------------------------------------------------------
                    Distance matrix (angstroms):
                    1          2          3          4          5
     1  C    0.000000
     2  C    1.533287   0.000000
     3  C    2.369213   1.539467   0.000000
     4  O    2.393693   1.400199   2.485567   0.000000
     5  H    2.167461   1.103355   2.169323   2.081306   0.000000
     6  O    2.384651   2.334627   1.415901   3.586817   2.713133
     7  H    2.722381   2.147396   1.106012   2.597111   3.053449
     8  C    3.751623   2.583385   1.499855   3.302070   2.732105
     9  C    1.529812   2.407316   2.333647   3.610071   2.836508
    10  H    1.101138   2.188502   3.320155   2.889539   2.392667
    11  O    1.410680   2.414032   2.997545   2.622515   3.335944
    12  C    2.571143   3.395600   3.487721   4.697065   3.354789
    13  H    2.149668   3.227189   2.971011   4.227197   3.844874
    14  O    2.992136   3.311878   3.634014   4.621355   2.813133
    15  H    2.832721   3.969484   4.329781   5.123463   3.957593
    16  H    3.504252   4.235171   3.971427   5.576152   4.221417
    17  H    1.914677   2.360268   3.132361   2.028745   3.322016
    18  H    3.202494   1.930946   2.538081   0.975895   2.468041
    19  H    3.176461   3.095275   3.135658   4.449336   2.539726
    20  C    4.617061   3.660091   2.503381   4.581111   3.588921
    21  N    5.917705   4.827153   3.771807   5.590498   4.630425
    22  C    6.548615   5.248121   4.360664   5.702085   5.055450
    23  N    5.899075   4.479609   3.779978   4.651733   4.409819
    24  C    4.597675   3.178658   2.549238   3.319757   3.295024
    25  H    4.553555   3.927539   2.744963   5.057864   3.859839
    26  H    6.640240   5.661804   4.580017   6.522452   5.406664
    27  O    7.749026   6.430318   5.574334   6.830828   6.178777
    28  O    4.557201   3.117624   2.918941   2.723288   3.395951
                    6          7          8          9         10
     6  O    0.000000
     7  H    2.082019   0.000000
     8  C    2.370127   2.136560   0.000000
     9  C    1.443333   2.799798   3.614431   0.000000
    10  H    3.235276   3.789813   4.567186   2.190942   0.000000
    11  O    3.201162   2.796941   4.464984   2.392490   2.077651
    12  C    2.380720   4.186031   4.460245   1.514677   2.626759
    13  H    2.083143   3.069902   4.312427   1.100457   2.832651
    14  O    2.830110   4.577511   4.267858   2.431135   2.822220
    15  H    3.337918   4.923359   5.430250   2.145084   2.550816
    16  H    2.634974   4.616637   4.784242   2.146153   3.700021
    17  H    3.714330   2.833228   4.471837   3.152741   2.482957
    18  H    3.857114   2.574546   2.940566   4.206238   3.790876
    19  H    2.406586   4.165834   3.498339   2.540977   3.272617
    20  C    2.692160   3.183441   1.354232   4.078652   5.367183
    21  N    4.058305   4.361587   2.385280   5.435794   6.620348
    22  C    5.003580   4.820517   2.861279   6.341617   7.243230
    23  N    4.763343   4.111822   2.398445   5.986716   6.607406
    24  C    3.728848   2.849507   1.453196   4.827346   5.349660
    25  H    2.338894   3.457825   2.131770   3.681453   5.270917
    26  H    4.624934   5.189484   3.296846   5.988500   7.308042
    27  O    6.180141   6.009717   4.074975   7.526784   8.414792
    28  O    4.292035   2.964014   2.387243   5.139787   5.264133
                   11         12         13         14         15
    11  O    0.000000
    12  C    3.651243   0.000000
    13  H    2.373175   2.154144   0.000000
    14  O    4.336873   1.414049   3.371391   0.000000
    15  H    3.736068   1.097819   2.489333   2.028114   0.000000
    16  H    4.443379   1.103687   2.455344   2.083665   1.780951
    17  H    0.968698   4.416794   3.272901   4.895800   4.548749
    18  H    3.417280   5.318528   4.828989   5.161549   5.874335
    19  H    4.526408   1.924124   3.543844   0.963646   2.815212
    20  C    5.462643   4.594123   4.757422   4.329429   5.664847
    21  N    6.763492   5.848149   6.120236   5.424452   6.925449
    22  C    7.301493   6.890034   7.051156   6.386098   7.930084
    23  N    6.517372   6.744763   6.694576   6.289950   7.710371
    24  C    5.146918   5.740454   5.516646   5.418782   6.640243
    25  H    5.452817   3.986302   4.288630   3.861426   5.082775
    26  H    7.535898   6.222986   6.639818   5.786033   7.313185
    27  O    8.510459   8.004101   8.236414   7.432996   9.052372
    28  O    4.884388   6.193342   5.777661   5.921981   6.964825
                   16         17         18         19         20
    16  H    0.000000
    17  H    5.260568   0.000000
    18  H    6.107480   2.806332   0.000000
    19  H    2.348778   5.003480   4.822642   0.000000
    20  C    4.642187   5.627123   4.274105   3.424784   0.000000
    21  N    5.836384   6.845773   5.119442   4.473015   1.368544
    22  C    7.017331   7.203834   5.037734   5.456170   2.425651
    23  N    7.059655   6.268846   3.874825   5.444630   2.681675
    24  C    6.173889   4.881009   2.586806   4.676245   2.408247
    25  H    3.823757   5.798692   4.932963   2.989247   1.087604
    26  H    6.055701   7.697799   6.098734   4.829500   2.078031
    27  O    8.080893   8.390543   6.120749   6.488783   3.539305
    28  O    6.778090   4.401774   1.797171   5.316920   3.562297
                   21         22         23         24         25
    21  N    0.000000
    22  C    1.381297   0.000000
    23  N    2.301608   1.381855   0.000000
    24  C    2.773616   2.487337   1.387972   0.000000
    25  H    2.092953   3.371995   3.766794   3.415575   0.000000
    26  H    1.009806   2.028136   3.207987   3.783230   2.375873
    27  O    2.286683   1.213721   2.290456   3.589440   4.378724
    28  O    4.000415   3.568687   2.261334   1.229865   4.497377
                   26         27         28
    26  H    0.000000
    27  O    2.481322   0.000000
    28  O    5.009269   4.550726   0.000000
 Stoichiometry    C9H11N2O6(1-)
 Framework group  C1[X(C9H11N2O6)]
 Deg. of freedom    78
 Full point group                 C1      NOp   1
 Largest Abelian subgroup         C1      NOp   1
 Largest concise Abelian subgroup C1      NOp   1
                         Standard orientation:                         
 ---------------------------------------------------------------------
 Center     Atomic      Atomic             Coordinates (Angstroms)
 Number     Number       Type             X           Y           Z
 ---------------------------------------------------------------------
      1          6           0        2.750676    0.542307    0.145724
      2          6           0        1.320637    0.918331    0.551389
      3          6           0        0.518179    0.308172   -0.612108
      4          8           0        1.227123    2.309442    0.680316
      5          1           0        1.054781    0.398935    1.487840
      6          8           0        1.170635   -0.919419   -0.880623
      7          1           0        0.609653    0.995970   -1.473403
      8          6           0       -0.933179    0.034800   -0.350589
      9          6           0        2.578218   -0.788024   -0.589670
     10          1           0        3.402364    0.439320    1.027315
     11          8           0        3.265953    1.497483   -0.755468
     12          6           0        2.989342   -2.017279    0.194010
     13          1           0        3.140398   -0.740663   -1.534506
     14          8           0        2.293332   -2.125966    1.420099
     15          1           0        4.058281   -1.953739    0.435955
     16          1           0        2.834153   -2.913009   -0.431855
     17          1           0        2.892354    2.347035   -0.477872
     18          1           0        0.290291    2.551406    0.553149
     19          1           0        1.354324   -2.107088    1.204408
     20          6           0       -1.478705   -1.196718   -0.490971
     21          7           0       -2.810178   -1.435550   -0.283483
     22          6           0       -3.720658   -0.457689    0.066942
     23          7           0       -3.142947    0.791074    0.194857
     24          6           0       -1.807600    1.131536    0.029328
     25          1           0       -0.874186   -2.050962   -0.787122
     26          1           0       -3.196319   -2.362202   -0.392662
     27          8           0       -4.901380   -0.675780    0.244290
     28          8           0       -1.455122    2.295954    0.209488
 ---------------------------------------------------------------------
 Rotational constants (GHZ):           0.8774084           0.3020890           0.2449725
 Standard basis: Aug-CC-pVDZ (5D, 7F)
 There are   524 symmetry adapted cartesian basis functions of A   symmetry.
 There are   490 symmetry adapted basis functions of A   symmetry.
   490 basis functions,   852 primitive gaussians,   524 cartesian basis functions
    64 alpha electrons       64 beta electrons
       nuclear repulsion energy      1294.9613851385 Hartrees.
 NAtoms=   28 NActive=   28 NUniq=   28 SFac= 1.00D+00 NAtFMM=   60 NAOKFM=F Big=F
 Integral buffers will be    131072 words long.
 Raffenetti 2 integral format.
 Two-electron integral symmetry is turned on.
 Nuclear repulsion after empirical dispersion term =     1294.9421248421 Hartrees.
 One-electron integrals computed using PRISM.
 NBasis=   490 RedAO= T EigKep=  2.77D-06  NBF=   490
 NBsUse=   490 1.00D-06 EigRej= -1.00D+00 NBFU=   490
 ExpMin= 2.97D-02 ExpMax= 1.17D+04 ExpMxC= 4.01D+02 IAcc=3 IRadAn=         5 AccDes= 0.00D+00
 Harris functional with IExCor= 1009 and IRadAn=       5 diagonalized for initial guess.
 HarFok:  IExCor= 1009 AccDes= 0.00D+00 IRadAn=         5 IDoV= 1 UseB2=F ITyADJ=14
 ICtDFT=  3500011 ScaDFX=  1.000000  1.000000  1.000000  1.000000
 FoFCou: FMM=F IPFlag=           0 FMFlag=      100000 FMFlg1=           0
         NFxFlg=           0 DoJE=T BraDBF=F KetDBF=T FulRan=T
         wScrn=  0.000000 ICntrl=       500 IOpCl=  0 I1Cent=   200000004 NGrid=           0
         NMat0=    1 NMatS0=      1 NMatT0=    0 NMatD0=    1 NMtDS0=    0 NMtDT0=    0
 Petite list used in FoFCou.
 Requested convergence on RMS density matrix=1.00D-08 within 128 cycles.
 Requested convergence on MAX density matrix=1.00D-06.
 Requested convergence on             energy=1.00D-06.
 No special actions if energy rises.
 SCF Done:  E(RPBE1PBE) =  -909.679207506     A.U. after   15 cycles
            NFock= 15  Conv=0.35D-08     -V/T= 2.0053

 **********************************************************************

            Population analysis using the SCF Density.

 **********************************************************************

 Orbital symmetries:
       Occupied  (A) (A) (A) (A) (A) (A) (A) (A) (A) (A) (A) (A)
                 (A) (A) (A) (A) (A) (A) (A) (A) (A) (A) (A) (A)
                 (A) (A) (A) (A) (A) (A) (A) (A) (A) (A) (A) (A)
                 (A) (A) (A) (A) (A) (A) (A) (A) (A) (A) (A) (A)
                 (A) (A) (A) (A) (A) (A) (A) (A) (A) (A) (A) (A)
                 (A) (A) (A) (A)
       Virtual   (A) (A) (A) (A) (A) (A) (A) (A) (A) (A) (A) (A)
                 (A) (A) (A) (A) (A) (A) (A) (A) (A) (A) (A) (A)
                 (A) (A) (A) (A) (A) (A) (A) (A) (A) (A) (A) (A)
                 (A) (A) (A) (A) (A) (A) (A) (A) (A) (A) (A) (A)
                 (A) (A) (A) (A) (A) (A) (A) (A) (A) (A) (A) (A)
                 (A) (A) (A) (A) (A) (A) (A) (A) (A) (A) (A) (A)
                 (A) (A) (A) (A) (A) (A) (A) (A) (A) (A) (A) (A)
                 (A) (A) (A) (A) (A) (A) (A) (A) (A) (A) (A) (A)
                 (A) (A) (A) (A) (A) (A) (A) (A) (A) (A) (A) (A)
                 (A) (A) (A) (A) (A) (A) (A) (A) (A) (A) (A) (A)
                 (A) (A) (A) (A) (A) (A) (A) (A) (A) (A) (A) (A)
                 (A) (A) (A) (A) (A) (A) (A) (A) (A) (A) (A) (A)
                 (A) (A) (A) (A) (A) (A) (A) (A) (A) (A) (A) (A)
                 (A) (A) (A) (A) (A) (A) (A) (A) (A) (A) (A) (A)
                 (A) (A) (A) (A) (A) (A) (A) (A) (A) (A) (A) (A)
                 (A) (A) (A) (A) (A) (A) (A) (A) (A) (A) (A) (A)
                 (A) (A) (A) (A) (A) (A) (A) (A) (A) (A) (A) (A)
                 (A) (A) (A) (A) (A) (A) (A) (A) (A) (A) (A) (A)
                 (A) (A) (A) (A) (A) (A) (A) (A) (A) (A) (A) (A)
                 (A) (A) (A) (A) (A) (A) (A) (A) (A) (A) (A) (A)
                 (A) (A) (A) (A) (A) (A) (A) (A) (A) (A) (A) (A)
                 (A) (A) (A) (A) (A) (A) (A) (A) (A) (A) (A) (A)
                 (A) (A) (A) (A) (A) (A) (A) (A) (A) (A) (A) (A)
                 (A) (A) (A) (A) (A) (A) (A) (A) (A) (A) (A) (A)
                 (A) (A) (A) (A) (A) (A) (A) (A) (A) (A) (A) (A)
                 (A) (A) (A) (A) (A) (A) (A) (A) (A) (A) (A) (A)
                 (A) (A) (A) (A) (A) (A) (A) (A) (A) (A) (A) (A)
                 (A) (A) (A) (A) (A) (A) (A) (A) (A) (A) (A) (A)
                 (A) (A) (A) (A) (A) (A) (A) (A) (A) (A) (A) (A)
                 (A) (A) (A) (A) (A) (A) (A) (A) (A) (A) (A) (A)
                 (A) (A) (A) (A) (A) (A) (A) (A) (A) (A) (A) (A)
                 (A) (A) (A) (A) (A) (A) (A) (A) (A) (A) (A) (A)
                 (A) (A) (A) (A) (A) (A) (A) (A) (A) (A) (A) (A)
                 (A) (A) (A) (A) (A) (A) (A) (A) (A) (A) (A) (A)
                 (A) (A) (A) (A) (A) (A) (A) (A) (A) (A) (A) (A)
                 (A) (A) (A) (A) (A) (A)
 The electronic state is 1-A.
 Alpha  occ. eigenvalues --  -19.14412 -19.14148 -19.12708 -19.11020 -19.04085
 Alpha  occ. eigenvalues --  -19.03214 -14.31388 -14.20326 -10.19803 -10.19761
 Alpha  occ. eigenvalues --  -10.19344 -10.18712 -10.17992 -10.17849 -10.17603
 Alpha  occ. eigenvalues --  -10.16466 -10.11213  -0.99944  -0.97430  -0.96261
 Alpha  occ. eigenvalues --   -0.93980  -0.93451  -0.91105  -0.85141  -0.73219
 Alpha  occ. eigenvalues --   -0.71807  -0.69476  -0.66045  -0.59980  -0.54875
 Alpha  occ. eigenvalues --   -0.52432  -0.50558  -0.49943  -0.45969  -0.44577
 Alpha  occ. eigenvalues --   -0.42789  -0.42420  -0.41609  -0.40972  -0.38259
 Alpha  occ. eigenvalues --   -0.36857  -0.35254  -0.34481  -0.33320  -0.32341
 Alpha  occ. eigenvalues --   -0.31696  -0.30838  -0.30191  -0.28610  -0.28079
 Alpha  occ. eigenvalues --   -0.27401  -0.26619  -0.25690  -0.22968  -0.22041
 Alpha  occ. eigenvalues --   -0.21130  -0.19498  -0.18793  -0.17824  -0.14835
 Alpha  occ. eigenvalues --   -0.12090  -0.11175  -0.09896  -0.09466
 Alpha virt. eigenvalues --    0.07178   0.08339   0.09002   0.09465   0.10583
 Alpha virt. eigenvalues --    0.11063   0.11286   0.11795   0.12392   0.12835
 Alpha virt. eigenvalues --    0.13898   0.15228   0.15300   0.15720   0.15882
 Alpha virt. eigenvalues --    0.16363   0.16755   0.16845   0.17370   0.17502
 Alpha virt. eigenvalues --    0.17843   0.18243   0.18739   0.18800   0.19134
 Alpha virt. eigenvalues --    0.19698   0.19944   0.20878   0.21346   0.21637
 Alpha virt. eigenvalues --    0.21815   0.22428   0.22572   0.22745   0.23345
 Alpha virt. eigenvalues --    0.23454   0.24011   0.24177   0.25036   0.25249
 Alpha virt. eigenvalues --    0.25698   0.26075   0.26743   0.27158   0.27438
 Alpha virt. eigenvalues --    0.27766   0.28300   0.29023   0.29237   0.29877
 Alpha virt. eigenvalues --    0.30119   0.30662   0.31082   0.31508   0.32013
 Alpha virt. eigenvalues --    0.32496   0.32755   0.33107   0.33302   0.33922
 Alpha virt. eigenvalues --    0.34158   0.34427   0.35021   0.35190   0.35302
 Alpha virt. eigenvalues --    0.35769   0.36015   0.36413   0.36614   0.36981
 Alpha virt. eigenvalues --    0.37274   0.37369   0.38109   0.38394   0.38796
 Alpha virt. eigenvalues --    0.39089   0.39425   0.40212   0.40320   0.40579
 Alpha virt. eigenvalues --    0.40756   0.41507   0.41778   0.42208   0.42468
 Alpha virt. eigenvalues --    0.43563   0.43707   0.44082   0.44292   0.44482
 Alpha virt. eigenvalues --    0.44907   0.45575   0.45887   0.46440   0.47220
 Alpha virt. eigenvalues --    0.47468   0.47786   0.48219   0.48778   0.49320
 Alpha virt. eigenvalues --    0.49458   0.50095   0.50184   0.50619   0.50996
 Alpha virt. eigenvalues --    0.51342   0.52500   0.53136   0.53407   0.54368
 Alpha virt. eigenvalues --    0.54800   0.55538   0.55784   0.56774   0.56942
 Alpha virt. eigenvalues --    0.57490   0.58292   0.58486   0.58776   0.58980
 Alpha virt. eigenvalues --    0.59618   0.60359   0.61233   0.61698   0.62196
 Alpha virt. eigenvalues --    0.62652   0.63013   0.63274   0.64345   0.64745
 Alpha virt. eigenvalues --    0.65031   0.66273   0.66836   0.67211   0.67664
 Alpha virt. eigenvalues --    0.68408   0.69057   0.69430   0.70986   0.71230
 Alpha virt. eigenvalues --    0.71492   0.72343   0.72647   0.73651   0.74090
 Alpha virt. eigenvalues --    0.74385   0.74683   0.75190   0.75525   0.76021
 Alpha virt. eigenvalues --    0.76620   0.76736   0.77276   0.77536   0.78370
 Alpha virt. eigenvalues --    0.78971   0.79626   0.79906   0.80715   0.80996
 Alpha virt. eigenvalues --    0.81128   0.81627   0.82326   0.82953   0.83893
 Alpha virt. eigenvalues --    0.84210   0.85092   0.85685   0.86576   0.86944
 Alpha virt. eigenvalues --    0.87357   0.88112   0.88444   0.89285   0.89825
 Alpha virt. eigenvalues --    0.90723   0.91587   0.91961   0.92510   0.92970
 Alpha virt. eigenvalues --    0.94102   0.94293   0.95235   0.95505   0.96189
 Alpha virt. eigenvalues --    0.96648   0.96873   0.98317   0.98735   0.99734
 Alpha virt. eigenvalues --    1.00681   1.01774   1.02793   1.04086   1.04259
 Alpha virt. eigenvalues --    1.04911   1.05194   1.06846   1.07225   1.07741
 Alpha virt. eigenvalues --    1.08705   1.09398   1.10072   1.10401   1.11701
 Alpha virt. eigenvalues --    1.12356   1.13527   1.14734   1.15785   1.16962
 Alpha virt. eigenvalues --    1.17225   1.18455   1.18810   1.19597   1.20607
 Alpha virt. eigenvalues --    1.21532   1.23296   1.24187   1.24507   1.24864
 Alpha virt. eigenvalues --    1.26081   1.26111   1.26353   1.27199   1.28239
 Alpha virt. eigenvalues --    1.29263   1.29825   1.30179   1.31820   1.32120
 Alpha virt. eigenvalues --    1.33746   1.34269   1.35154   1.35620   1.37540
 Alpha virt. eigenvalues --    1.39019   1.39129   1.39949   1.40890   1.43324
 Alpha virt. eigenvalues --    1.44086   1.44735   1.45436   1.45791   1.46361
 Alpha virt. eigenvalues --    1.47880   1.50018   1.50773   1.51719   1.53140
 Alpha virt. eigenvalues --    1.53772   1.55056   1.55945   1.56392   1.57129
 Alpha virt. eigenvalues --    1.57702   1.60588   1.61488   1.61926   1.63403
 Alpha virt. eigenvalues --    1.64788   1.65144   1.65695   1.66278   1.67376
 Alpha virt. eigenvalues --    1.67714   1.68420   1.70111   1.70938   1.71930
 Alpha virt. eigenvalues --    1.72584   1.73363   1.73966   1.75255   1.76066
 Alpha virt. eigenvalues --    1.77527   1.78516   1.79076   1.80809   1.81784
 Alpha virt. eigenvalues --    1.82769   1.83107   1.84404   1.86139   1.86908
 Alpha virt. eigenvalues --    1.87912   1.88471   1.89355   1.90072   1.90765
 Alpha virt. eigenvalues --    1.92662   1.93282   1.94377   1.94878   1.95801
 Alpha virt. eigenvalues --    1.97549   1.98358   1.99531   2.00006   2.01528
 Alpha virt. eigenvalues --    2.01823   2.02582   2.03400   2.04788   2.05683
 Alpha virt. eigenvalues --    2.07514   2.08249   2.09133   2.09229   2.10382
 Alpha virt. eigenvalues --    2.11470   2.12850   2.14143   2.15717   2.16619
 Alpha virt. eigenvalues --    2.17446   2.17792   2.18825   2.19993   2.21791
 Alpha virt. eigenvalues --    2.22574   2.22921   2.23989   2.25795   2.27270
 Alpha virt. eigenvalues --    2.28016   2.28872   2.29833   2.30840   2.31811
 Alpha virt. eigenvalues --    2.33844   2.35496   2.36693   2.38049   2.39615
 Alpha virt. eigenvalues --    2.40942   2.42167   2.42553   2.43621   2.45189
 Alpha virt. eigenvalues --    2.47703   2.48317   2.49636   2.51123   2.52699
 Alpha virt. eigenvalues --    2.53173   2.54497   2.57301   2.58696   2.58982
 Alpha virt. eigenvalues --    2.59443   2.60222   2.61059   2.61575   2.64073
 Alpha virt. eigenvalues --    2.64605   2.65566   2.69114   2.70248   2.71180
 Alpha virt. eigenvalues --    2.71700   2.73632   2.74564   2.75913   2.76120
 Alpha virt. eigenvalues --    2.79366   2.81419   2.82818   2.85486   2.87764
 Alpha virt. eigenvalues --    2.88127   2.90436   2.91963   2.96946   2.99214
 Alpha virt. eigenvalues --    2.99834   3.02122   3.05869   3.07347   3.08040
 Alpha virt. eigenvalues --    3.10491   3.14061   3.15598   3.19358   3.26536
 Alpha virt. eigenvalues --    3.31333   3.33798   3.39546   3.41550   3.44861
 Alpha virt. eigenvalues --    3.48918   3.53014   3.53851   3.55944   3.56966
 Alpha virt. eigenvalues --    3.59439   3.59966   3.60548   3.61170   3.61953
 Alpha virt. eigenvalues --    3.62949   3.65302   3.66053   3.67121   3.67465
 Alpha virt. eigenvalues --    3.70538   3.72721   3.73526   3.75384   3.76510
 Alpha virt. eigenvalues --    3.78828   3.81289   3.85096   3.87724   3.89328
 Alpha virt. eigenvalues --    3.91004   3.96977   3.99183   4.01668   4.09193
 Alpha virt. eigenvalues --    4.10344   4.12343   4.20192   4.32130   4.59699
 Alpha virt. eigenvalues --    4.69289
          Condensed to atoms (all electrons):
               1          2          3          4          5          6
     1  C    9.303276  -1.963170   0.681269   0.046193   0.243166  -0.077027
     2  C   -1.963170   8.594781  -1.386952  -0.528484  -0.683944   0.057090
     3  C    0.681269  -1.386952  16.209281   0.176065   0.161242  -0.560824
     4  O    0.046193  -0.528484   0.176065   8.816213  -0.200454   0.009190
     5  H    0.243166  -0.683944   0.161242  -0.200454   2.224864  -0.033262
     6  O   -0.077027   0.057090  -0.560824   0.009190  -0.033262   9.640121
     7  H   -0.111687   0.150099  -0.840532  -0.042970   0.108732  -0.118731
     8  C   -0.089977   0.037912  -2.749217   0.026929  -0.109379   0.098605
     9  C   -1.681495   0.242397  -3.404629   0.069152  -0.208903  -0.012684
    10  H   -0.974731   0.564984   0.166849   0.010305  -0.111932   0.019446
    11  O   -0.664725   0.138065  -0.053723  -0.002134  -0.020549   0.033965
    12  C   -0.022924  -0.038841   0.415886  -0.013212   0.054313  -0.058581
    13  H    0.243628   0.214303   0.401078  -0.006091  -0.005708  -0.268870
    14  O   -0.039904  -0.012940   0.014639   0.001580  -0.006643  -0.045260
    15  H    0.079540  -0.022971   0.052226  -0.001327   0.020061   0.110360
    16  H    0.025210  -0.039594   0.046788   0.000487  -0.007464  -0.042747
    17  H    0.170002  -0.248347   0.049853   0.059288   0.029380   0.004436
    18  H    0.001811   0.039992  -0.139124   0.294561  -0.026423   0.007475
    19  H    0.035031  -0.016456   0.056008   0.000991   0.001324   0.029347
    20  C   -0.146491   0.130247  -2.495141   0.018677   0.018628   0.209097
    21  N    0.009912  -0.006017   0.235419  -0.001247  -0.003897  -0.001381
    22  C   -0.001490  -0.020449  -0.264025   0.000323  -0.007812   0.007401
    23  N    0.021258   0.015709   0.287639  -0.014599   0.016773  -0.007112
    24  C   -0.154527  -0.012554  -2.109694   0.056984   0.049258  -0.042191
    25  H    0.067892  -0.067201   0.458798  -0.002116   0.013703  -0.203705
    26  H   -0.003638   0.002229  -0.082980   0.000209   0.000765   0.004284
    27  O   -0.000128  -0.000403   0.015718  -0.000026   0.000349   0.000389
    28  O    0.013592   0.077732  -0.007408  -0.085248   0.021377   0.003463
               7          8          9         10         11         12
     1  C   -0.111687  -0.089977  -1.681495  -0.974731  -0.664725  -0.022924
     2  C    0.150099   0.037912   0.242397   0.564984   0.138065  -0.038841
     3  C   -0.840532  -2.749217  -3.404629   0.166849  -0.053723   0.415886
     4  O   -0.042970   0.026929   0.069152   0.010305  -0.002134  -0.013212
     5  H    0.108732  -0.109379  -0.208903  -0.111932  -0.020549   0.054313
     6  O   -0.118731   0.098605  -0.012684   0.019446   0.033965  -0.058581
     7  H    1.784582   0.129760   0.064581   0.003016  -0.003012   0.012146
     8  C    0.129760  13.000063   0.762701  -0.070878   0.032564  -0.099046
     9  C    0.064581   0.762701  10.846792  -0.232900   0.334978  -0.518596
    10  H    0.003016  -0.070878  -0.232900   2.046671  -0.073894  -0.036120
    11  O   -0.003012   0.032564   0.334978  -0.073894   8.815712  -0.031323
    12  C    0.012146  -0.099046  -0.518596  -0.036120  -0.031323   5.011864
    13  H    0.018237  -0.146075  -1.094339   0.094355  -0.070214  -0.079872
    14  O    0.000414  -0.011558   0.112975   0.041765   0.002475   0.043659
    15  H   -0.000319   0.019579  -0.395383  -0.048565   0.011650   0.275159
    16  H    0.002877  -0.022731   0.186527   0.026643  -0.003749   0.081392
    17  H    0.008519  -0.011442  -0.060205  -0.028647   0.272722   0.006581
    18  H    0.008396   0.106883   0.025926   0.000906  -0.002847  -0.002456
    19  H   -0.002831   0.005434  -0.110441  -0.008815  -0.001354  -0.001115
    20  C    0.054084  -2.896043   0.001055   0.008099   0.003863  -0.070425
    21  N   -0.001555   0.042431   0.028799   0.000382  -0.000654  -0.002559
    22  C   -0.018078   0.527392   0.009773  -0.000099   0.000053  -0.007570
    23  N    0.016768   0.384669  -0.025182   0.000428  -0.000203   0.001512
    24  C    0.097736  -3.743225   0.107355   0.004661   0.008780   0.009622
    25  H    0.033734   0.210097  -0.036821  -0.000845  -0.001392   0.034109
    26  H   -0.002709  -0.018217   0.003356  -0.000107   0.000022  -0.001129
    27  O    0.000365   0.028350  -0.000390  -0.000009  -0.000001   0.000132
    28  O    0.035386  -0.099731   0.002445  -0.000387  -0.000966  -0.001929
              13         14         15         16         17         18
     1  C    0.243628  -0.039904   0.079540   0.025210   0.170002   0.001811
     2  C    0.214303  -0.012940  -0.022971  -0.039594  -0.248347   0.039992
     3  C    0.401078   0.014639   0.052226   0.046788   0.049853  -0.139124
     4  O   -0.006091   0.001580  -0.001327   0.000487   0.059288   0.294561
     5  H   -0.005708  -0.006643   0.020061  -0.007464   0.029380  -0.026423
     6  O   -0.268870  -0.045260   0.110360  -0.042747   0.004436   0.007475
     7  H    0.018237   0.000414  -0.000319   0.002877   0.008519   0.008396
     8  C   -0.146075  -0.011558   0.019579  -0.022731  -0.011442   0.106883
     9  C   -1.094339   0.112975  -0.395383   0.186527  -0.060205   0.025926
    10  H    0.094355   0.041765  -0.048565   0.026643  -0.028647   0.000906
    11  O   -0.070214   0.002475   0.011650  -0.003749   0.272722  -0.002847
    12  C   -0.079872   0.043659   0.275159   0.081392   0.006581  -0.002456
    13  H    2.298055   0.030140  -0.080210  -0.028035  -0.012122   0.001617
    14  O    0.030140   8.347500  -0.179430  -0.044384  -0.001098  -0.001179
    15  H   -0.080210  -0.179430   1.752830  -0.352049   0.004820  -0.000960
    16  H   -0.028035  -0.044384  -0.352049   1.487991  -0.000886  -0.000291
    17  H   -0.012122  -0.001098   0.004820  -0.000886   0.593702  -0.008969
    18  H    0.001617  -0.001179  -0.000960  -0.000291  -0.008969   0.525218
    19  H    0.007192   0.279371   0.023831  -0.045414   0.000316   0.000565
    20  C    0.008736  -0.003853  -0.003320  -0.004570   0.001062   0.023512
    21  N    0.001691   0.000349  -0.000527   0.001174  -0.000371  -0.000940
    22  C    0.000463   0.000121  -0.000162  -0.000514   0.000256  -0.000484
    23  N   -0.001218   0.000616   0.000072  -0.000070   0.001238  -0.004367
    24  C    0.005990  -0.007075   0.000731   0.002145   0.002940  -0.089196
    25  H   -0.004586  -0.003850   0.004773   0.000800   0.000908  -0.003871
    26  H    0.000287  -0.000063  -0.000045   0.000209  -0.000018  -0.000075
    27  O   -0.000031   0.000006   0.000002   0.000019  -0.000003   0.000276
    28  O   -0.000283   0.000097  -0.000054  -0.000124   0.001831   0.055807
              19         20         21         22         23         24
     1  C    0.035031  -0.146491   0.009912  -0.001490   0.021258  -0.154527
     2  C   -0.016456   0.130247  -0.006017  -0.020449   0.015709  -0.012554
     3  C    0.056008  -2.495141   0.235419  -0.264025   0.287639  -2.109694
     4  O    0.000991   0.018677  -0.001247   0.000323  -0.014599   0.056984
     5  H    0.001324   0.018628  -0.003897  -0.007812   0.016773   0.049258
     6  O    0.029347   0.209097  -0.001381   0.007401  -0.007112  -0.042191
     7  H   -0.002831   0.054084  -0.001555  -0.018078   0.016768   0.097736
     8  C    0.005434  -2.896043   0.042431   0.527392   0.384669  -3.743225
     9  C   -0.110441   0.001055   0.028799   0.009773  -0.025182   0.107355
    10  H   -0.008815   0.008099   0.000382  -0.000099   0.000428   0.004661
    11  O   -0.001354   0.003863  -0.000654   0.000053  -0.000203   0.008780
    12  C   -0.001115  -0.070425  -0.002559  -0.007570   0.001512   0.009622
    13  H    0.007192   0.008736   0.001691   0.000463  -0.001218   0.005990
    14  O    0.279371  -0.003853   0.000349   0.000121   0.000616  -0.007075
    15  H    0.023831  -0.003320  -0.000527  -0.000162   0.000072   0.000731
    16  H   -0.045414  -0.004570   0.001174  -0.000514  -0.000070   0.002145
    17  H    0.000316   0.001062  -0.000371   0.000256   0.001238   0.002940
    18  H    0.000565   0.023512  -0.000940  -0.000484  -0.004367  -0.089196
    19  H    0.574578  -0.002565   0.000127   0.002028  -0.000634  -0.000506
    20  C   -0.002565  13.884401  -0.874235  -0.637298   0.107333  -1.216539
    21  N    0.000127  -0.874235   7.513208   0.029350   0.012567   0.157248
    22  C    0.002028  -0.637298   0.029350   6.322040  -0.063622  -0.439395
    23  N   -0.000634   0.107333   0.012567  -0.063622   8.373758  -1.109087
    24  C   -0.000506  -1.216539   0.157248  -0.439395  -1.109087  13.856036
    25  H   -0.004861  -1.282169   0.148228  -0.004444   0.022959   0.014357
    26  H   -0.000398  -0.093066   0.357971  -0.208274   0.004309   0.013689
    27  O   -0.000253   0.075502  -0.126173   0.103403  -0.109532   0.022173
    28  O    0.000034  -0.074463  -0.000788   0.038145  -0.178657   0.161944
              25         26         27         28
     1  C    0.067892  -0.003638  -0.000128   0.013592
     2  C   -0.067201   0.002229  -0.000403   0.077732
     3  C    0.458798  -0.082980   0.015718  -0.007408
     4  O   -0.002116   0.000209  -0.000026  -0.085248
     5  H    0.013703   0.000765   0.000349   0.021377
     6  O   -0.203705   0.004284   0.000389   0.003463
     7  H    0.033734  -0.002709   0.000365   0.035386
     8  C    0.210097  -0.018217   0.028350  -0.099731
     9  C   -0.036821   0.003356  -0.000390   0.002445
    10  H   -0.000845  -0.000107  -0.000009  -0.000387
    11  O   -0.001392   0.000022  -0.000001  -0.000966
    12  C    0.034109  -0.001129   0.000132  -0.001929
    13  H   -0.004586   0.000287  -0.000031  -0.000283
    14  O   -0.003850  -0.000063   0.000006   0.000097
    15  H    0.004773  -0.000045   0.000002  -0.000054
    16  H    0.000800   0.000209   0.000019  -0.000124
    17  H    0.000908  -0.000018  -0.000003   0.001831
    18  H   -0.003871  -0.000075   0.000276   0.055807
    19  H   -0.004861  -0.000398  -0.000253   0.000034
    20  C   -1.282169  -0.093066   0.075502  -0.074463
    21  N    0.148228   0.357971  -0.126173  -0.000788
    22  C   -0.004444  -0.208274   0.103403   0.038145
    23  N    0.022959   0.004309  -0.109532  -0.178657
    24  C    0.014357   0.013689   0.022173   0.161944
    25  H    2.493840  -0.058067   0.001022  -0.005575
    26  H   -0.058067   1.214961  -0.006958   0.002080
    27  O    0.001022  -0.006958   8.688801  -0.005432
    28  O   -0.005575   0.002080  -0.005432   8.934633
 Mulliken charges:
               1
     1  C    0.990136
     2  C    0.782782
     3  C    0.665490
     4  O   -0.689240
     5  H   -0.537566
     6  O   -0.762295
     7  H   -0.387007
     8  C    0.654150
     9  C    0.983157
    10  H   -0.400582
    11  O   -0.724109
    12  C    1.039325
    13  H   -0.528117
    14  O   -0.518470
    15  H   -0.270312
    16  H   -0.269636
    17  H    0.164256
    18  H    0.188236
    19  H    0.179467
    20  C    1.255883
    21  N   -0.518510
    22  C    0.632971
    23  N   -0.753321
    24  C    0.352343
    25  H   -0.825716
    26  H   -0.128623
    27  O   -0.687168
    28  O   -0.887520
 Sum of Mulliken charges =  -1.00000
 Mulliken charges with hydrogens summed into heavy atoms:
               1
     1  C    0.589554
     2  C    0.245216
     3  C    0.278483
     4  O   -0.501005
     6  O   -0.762295
     8  C    0.654150
     9  C    0.455039
    11  O   -0.559852
    12  C    0.499376
    14  O   -0.339002
    20  C    0.430167
    21  N   -0.647133
    22  C    0.632971
    23  N   -0.753321
    24  C    0.352343
    27  O   -0.687168
    28  O   -0.887520
 Electronic spatial extent (au):  <R**2>=           4358.8975
 Charge=             -1.0000 electrons
 Dipole moment (field-independent basis, Debye):
    X=             10.7063    Y=             -5.8775    Z=             -2.0267  Tot=             12.3805
 Quadrupole moment (field-independent basis, Debye-Ang):
   XX=           -174.6944   YY=           -114.0509   ZZ=           -106.9389
   XY=              7.3947   XZ=              4.6644   YZ=              1.7680
 Traceless Quadrupole moment (field-independent basis, Debye-Ang):
   XX=            -42.7997   YY=             17.8438   ZZ=             24.9559
   XY=              7.3947   XZ=              4.6644   YZ=              1.7680
 Octapole moment (field-independent basis, Debye-Ang**2):
  XXX=            298.6476  YYY=            -33.0773  ZZZ=             -1.9004  XYY=              8.3463
  XXY=            -22.7762  XXZ=            -21.8897  XZZ=             -6.1953  YZZ=              6.1095
  YYZ=            -18.7158  XYZ=             11.9533
 Hexadecapole moment (field-independent basis, Debye-Ang**3):
 XXXX=          -5671.5448 YYYY=          -1322.2430 ZZZZ=           -352.7327 XXXY=           -104.1900
 XXXZ=            141.9400 YYYX=            127.9582 YYYZ=              5.6226 ZZZX=            -14.6505
 ZZZY=              4.4731 XXYY=           -966.6487 XXZZ=           -774.4807 YYZZ=           -300.0540
 XXYZ=             48.0921 YYXZ=            -17.0141 ZZXY=             18.5037
 N-N= 1.294942124842D+03 E-N=-4.739310760904D+03  KE= 9.049172165448D+02
 Calling FoFJK, ICntrl=      2127 FMM=F ISym2X=0 I1Cent= 0 IOpClX= 0 NMat=1 NMatS=1 NMatT=0.
 ***** Axes restored to original set *****
 -------------------------------------------------------------------
 Center     Atomic                   Forces (Hartrees/Bohr)
 Number     Number              X              Y              Z
 -------------------------------------------------------------------
      1        6          -0.001796771   -0.000689404    0.001348361
      2        6          -0.001053656    0.000412392   -0.002864328
      3        6          -0.009322333   -0.000415630    0.002043617
      4        8           0.011435208   -0.000629525    0.001914834
      5        1          -0.000534119   -0.000014004   -0.000266347
      6        8           0.014262146   -0.004043492    0.000015336
      7        1           0.001163061    0.000133415   -0.000106086
      8        6           0.012126093    0.000891098   -0.001392983
      9        6          -0.007306957    0.000167756   -0.001446986
     10        1           0.001319450    0.000032003    0.000299531
     11        8           0.004959191    0.001393580   -0.001434470
     12        6          -0.000514780    0.001295589    0.000661319
     13        1           0.001463759   -0.000127659   -0.000646073
     14        8           0.002130946   -0.002261078    0.000380204
     15        1           0.000786401   -0.000115256    0.000507283
     16        1          -0.000401171   -0.000426501   -0.000367482
     17        1          -0.003266639   -0.000797864    0.000820170
     18        1          -0.014617224   -0.002172945   -0.003102565
     19        1          -0.001748703    0.001916597   -0.001073123
     20        6          -0.002341303   -0.002681498    0.000325701
     21        7           0.004717462   -0.022719126   -0.004803199
     22        6           0.048420689    0.063455093    0.002567083
     23        7          -0.000419152    0.006547355    0.001711115
     24        6          -0.064244478   -0.045254286    0.002336716
     25        1          -0.000464912   -0.000910574   -0.000202167
     26        1           0.003534975   -0.002371717   -0.001087469
     27        8          -0.025664321   -0.020406218    0.000842203
     28        8           0.027377136    0.029791900    0.003019805
 -------------------------------------------------------------------
 Cartesian Forces:  Max     0.064244478 RMS     0.014177174

 GradGradGradGradGradGradGradGradGradGradGradGradGradGradGradGradGradGrad
 Berny optimization.
 FormGI is forming the generalized inverse of G from B-inverse, IUseBI=4.
 Internal  Forces:  Max     0.036316406 RMS     0.007535460
 Search for a local minimum.
 Step number   1 out of a maximum of  166
 All quantities printed in internal units (Hartrees-Bohrs-Radians)
 Mixed Optimization -- RFO/linear search
 Second derivative matrix not updated -- first step.
 ITU=  0
     Eigenvalues ---    0.00466   0.00572   0.00768   0.00891   0.01496
     Eigenvalues ---    0.01506   0.01534   0.01550   0.01689   0.01739
     Eigenvalues ---    0.01937   0.01952   0.02035   0.02279   0.02451
     Eigenvalues ---    0.03121   0.03778   0.04277   0.04775   0.05003
     Eigenvalues ---    0.05174   0.05466   0.05501   0.05920   0.06028
     Eigenvalues ---    0.06256   0.06748   0.07860   0.08562   0.09820
     Eigenvalues ---    0.11607   0.13044   0.13956   0.15766   0.15999
     Eigenvalues ---    0.15999   0.16000   0.16000   0.16000   0.16916
     Eigenvalues ---    0.18379   0.20041   0.22062   0.22444   0.24446
     Eigenvalues ---    0.24985   0.24997   0.25000   0.25000   0.26261
     Eigenvalues ---    0.28055   0.28638   0.30885   0.32393   0.33026
     Eigenvalues ---    0.33278   0.33314   0.33557   0.33632   0.33924
     Eigenvalues ---    0.35091   0.36815   0.37331   0.40785   0.43369
     Eigenvalues ---    0.43895   0.44843   0.45588   0.46005   0.46765
     Eigenvalues ---    0.48419   0.50433   0.52190   0.53124   0.53644
     Eigenvalues ---    0.54697   0.91143   0.98220
 RFO step:  Lambda=-2.62627422D-02 EMin= 4.66277524D-03
 Linear search not attempted -- first point.
 Iteration  1 RMS(Cart)=  0.12093189 RMS(Int)=  0.00465034
 Iteration  2 RMS(Cart)=  0.00798327 RMS(Int)=  0.00034434
 Iteration  3 RMS(Cart)=  0.00003819 RMS(Int)=  0.00034366
 Iteration  4 RMS(Cart)=  0.00000002 RMS(Int)=  0.00034366
 Variable       Old X    -DE/DX   Delta X   Delta X   Delta X     New X
                                 (Linear)    (Quad)   (Total)
    R1        2.89749   0.00048   0.00000  -0.00236  -0.00243   2.89506
    R2        2.89093   0.00041   0.00000   0.00448   0.00481   2.89573
    R3        2.08085   0.00102   0.00000   0.00281   0.00281   2.08366
    R4        2.66580   0.00141   0.00000   0.00302   0.00302   2.66882
    R5        2.90917  -0.00712   0.00000  -0.02385  -0.02415   2.88502
    R6        2.64599  -0.00264   0.00000  -0.00548  -0.00548   2.64051
    R7        2.08504  -0.00009   0.00000  -0.00026  -0.00026   2.08478
    R8        2.67567   0.00828   0.00000   0.01667   0.01647   2.69214
    R9        2.09006   0.00026   0.00000   0.00072   0.00072   2.09078
   R10        2.83431  -0.00358   0.00000  -0.01021  -0.01021   2.82410
   R11        1.84418   0.01396   0.00000   0.02547   0.02547   1.86964
   R12        2.72750  -0.00460   0.00000  -0.00813  -0.00790   2.71961
   R13        2.55913  -0.00622   0.00000  -0.00999  -0.01004   2.54908
   R14        2.74614   0.01265   0.00000   0.03011   0.03011   2.77625
   R15        2.86232  -0.00021   0.00000  -0.00063  -0.00063   2.86170
   R16        2.07956   0.00130   0.00000   0.00358   0.00358   2.08315
   R17        1.83057   0.00083   0.00000   0.00147   0.00147   1.83204
   R18        2.67217  -0.00077   0.00000  -0.00167  -0.00167   2.67050
   R19        2.07458   0.00087   0.00000   0.00238   0.00238   2.07696
   R20        2.08567   0.00061   0.00000   0.00170   0.00170   2.08736
   R21        1.82103   0.00196   0.00000   0.00342   0.00342   1.82445
   R22        2.58617  -0.01127   0.00000  -0.01909  -0.01914   2.56704
   R23        2.05527   0.00050   0.00000   0.00133   0.00133   2.05661
   R24        2.61027   0.02281   0.00000   0.04533   0.04533   2.65560
   R25        1.90826   0.00098   0.00000   0.00202   0.00202   1.91028
   R26        2.61133  -0.01805   0.00000  -0.03620  -0.03615   2.57517
   R27        2.29360   0.02891   0.00000   0.02866   0.02866   2.32226
   R28        2.62289  -0.02404   0.00000  -0.04975  -0.04970   2.57319
   R29        2.32411   0.03632   0.00000   0.03873   0.03873   2.36284
    A1        1.80833  -0.00048   0.00000  -0.00770  -0.00764   1.80069
    A2        1.94238   0.00053   0.00000   0.00306   0.00305   1.94544
    A3        1.92158  -0.00061   0.00000  -0.00254  -0.00254   1.91905
    A4        1.95007   0.00103   0.00000   0.00621   0.00627   1.95634
    A5        1.89958   0.00006   0.00000   0.00548   0.00537   1.90495
    A6        1.93758  -0.00054   0.00000  -0.00455  -0.00456   1.93302
    A7        1.76094   0.00215   0.00000   0.01096   0.01081   1.77175
    A8        1.90742   0.00238   0.00000   0.02980   0.03020   1.93762
    A9        1.91116   0.00058   0.00000   0.00623   0.00620   1.91736
   A10        2.01368  -0.00507   0.00000  -0.03656  -0.03662   1.97706
   A11        1.90634  -0.00006   0.00000  -0.00382  -0.00411   1.90222
   A12        1.95352   0.00041   0.00000  -0.00303  -0.00380   1.94972
   A13        1.82013  -0.00166   0.00000  -0.00218  -0.00151   1.81863
   A14        1.87441   0.00177   0.00000  -0.01123  -0.01208   1.86233
   A15        2.03182  -0.01115   0.00000  -0.05814  -0.05841   1.97341
   A16        1.93197  -0.00144   0.00000  -0.00397  -0.00447   1.92750
   A17        1.89753   0.01151   0.00000   0.08082   0.08133   1.97886
   A18        1.90621   0.00084   0.00000  -0.00509  -0.00719   1.89902
   A19        1.87386  -0.01058   0.00000  -0.05679  -0.05679   1.81707
   A20        1.90947   0.00017   0.00000  -0.00425  -0.00471   1.90476
   A21        2.13824   0.00883   0.00000   0.03131   0.03129   2.16953
   A22        2.08322  -0.01205   0.00000  -0.04430  -0.04432   2.03890
   A23        2.06125   0.00324   0.00000   0.01346   0.01338   2.07464
   A24        1.86085   0.00014   0.00000   0.00454   0.00465   1.86551
   A25        2.01133   0.00082   0.00000   0.00182   0.00192   2.01326
   A26        1.89411  -0.00015   0.00000  -0.00036  -0.00051   1.89361
   A27        1.87038  -0.00152   0.00000  -0.00999  -0.01006   1.86032
   A28        1.90609   0.00099   0.00000   0.00614   0.00609   1.91218
   A29        1.91824  -0.00024   0.00000  -0.00166  -0.00161   1.91662
   A30        1.84406  -0.00469   0.00000  -0.02517  -0.02517   1.81890
   A31        1.95778  -0.00063   0.00000  -0.00305  -0.00307   1.95471
   A32        1.90852   0.00126   0.00000   0.00940   0.00941   1.91793
   A33        1.90402  -0.00075   0.00000  -0.00654  -0.00656   1.89745
   A34        1.86776  -0.00007   0.00000   0.00143   0.00142   1.86919
   A35        1.93917   0.00023   0.00000  -0.00221  -0.00225   1.93692
   A36        1.88479   0.00003   0.00000   0.00162   0.00163   1.88642
   A37        1.85881  -0.00148   0.00000  -0.00793  -0.00793   1.85087
   A38        2.13519  -0.01234   0.00000  -0.04269  -0.04279   2.09240
   A39        2.11599   0.00710   0.00000   0.02632   0.02635   2.14234
   A40        2.03195   0.00524   0.00000   0.01632   0.01636   2.04831
   A41        2.16062  -0.00514   0.00000  -0.01360  -0.01364   2.14698
   A42        2.11272  -0.00152   0.00000  -0.01516  -0.01514   2.09758
   A43        2.00977   0.00666   0.00000   0.02874   0.02877   2.03854
   A44        1.96889   0.02146   0.00000   0.07896   0.07900   2.04789
   A45        2.15447  -0.02851   0.00000  -0.10383  -0.10386   2.05060
   A46        2.15983   0.00705   0.00000   0.02486   0.02483   2.18466
   A47        2.23046  -0.02497   0.00000  -0.09616  -0.09603   2.13443
   A48        2.00972   0.01776   0.00000   0.06008   0.06002   2.06974
   A49        2.19000  -0.02981   0.00000  -0.10582  -0.10592   2.08408
   A50        2.08346   0.01205   0.00000   0.04568   0.04554   2.12900
    D1       -0.55489  -0.00026   0.00000   0.00110   0.00136  -0.55353
    D2       -2.68395   0.00336   0.00000   0.02401   0.02409  -2.65986
    D3        1.45365   0.00093   0.00000   0.00442   0.00438   1.45803
    D4       -2.65297  -0.00147   0.00000  -0.00327  -0.00309  -2.65606
    D5        1.50115   0.00216   0.00000   0.01964   0.01964   1.52079
    D6       -0.64444  -0.00028   0.00000   0.00005  -0.00006  -0.64450
    D7        1.47413  -0.00072   0.00000   0.00222   0.00241   1.47655
    D8       -0.65493   0.00290   0.00000   0.02513   0.02515  -0.62978
    D9       -2.80052   0.00047   0.00000   0.00554   0.00544  -2.79508
   D10        0.25502  -0.00152   0.00000  -0.00610  -0.00608   0.24894
   D11       -1.81781  -0.00020   0.00000   0.00218   0.00215  -1.81565
   D12        2.30626  -0.00035   0.00000   0.00334   0.00330   2.30956
   D13        2.34787  -0.00065   0.00000  -0.00391  -0.00387   2.34400
   D14        0.27504   0.00067   0.00000   0.00437   0.00437   0.27941
   D15       -1.88408   0.00052   0.00000   0.00553   0.00552  -1.87856
   D16       -1.78946  -0.00060   0.00000  -0.00172  -0.00167  -1.79114
   D17        2.42089   0.00072   0.00000   0.00656   0.00657   2.42746
   D18        0.26177   0.00056   0.00000   0.00772   0.00772   0.26949
   D19        0.60581  -0.00103   0.00000  -0.02849  -0.02849   0.57732
   D20        2.57679  -0.00189   0.00000  -0.03601  -0.03600   2.54079
   D21       -1.55307  -0.00091   0.00000  -0.02744  -0.02745  -1.58051
   D22        0.68123  -0.00080   0.00000   0.00002  -0.00014   0.68109
   D23       -1.36971   0.00085   0.00000   0.01067   0.01100  -1.35871
   D24        2.77133   0.00605   0.00000   0.06648   0.06611   2.83744
   D25        2.73404   0.00107   0.00000   0.02574   0.02544   2.75948
   D26        0.68311   0.00272   0.00000   0.03640   0.03658   0.71969
   D27       -1.45904   0.00792   0.00000   0.09221   0.09169  -1.36735
   D28       -1.33091  -0.00245   0.00000  -0.01076  -0.01072  -1.34163
   D29        2.90134  -0.00081   0.00000  -0.00011   0.00043   2.90176
   D30        0.75919   0.00440   0.00000   0.05570   0.05554   0.81473
   D31        2.72300  -0.00071   0.00000  -0.01119  -0.01157   2.71143
   D32        0.75418  -0.00204   0.00000  -0.02341  -0.02294   0.73124
   D33       -1.44003   0.00192   0.00000   0.01513   0.01504  -1.42499
   D34       -0.55098  -0.00009   0.00000   0.00061   0.00089  -0.55009
   D35        1.45985   0.00042   0.00000  -0.01546  -0.01595   1.44391
   D36       -2.72949   0.00786   0.00000   0.02689   0.02657  -2.70291
   D37       -2.14410  -0.00243   0.00000  -0.05963  -0.05872  -2.20282
   D38        1.03101  -0.00318   0.00000  -0.07669  -0.07550   0.95551
   D39       -0.09616  -0.00322   0.00000  -0.04019  -0.04137  -0.13753
   D40        3.07895  -0.00397   0.00000  -0.05726  -0.05815   3.02080
   D41        2.01361   0.00255   0.00000   0.00109   0.00094   2.01455
   D42       -1.09446   0.00180   0.00000  -0.01597  -0.01584  -1.11030
   D43        0.18613   0.00027   0.00000   0.00107   0.00079   0.18692
   D44        2.34884   0.00047   0.00000   0.00018   0.00002   2.34886
   D45       -1.85717  -0.00014   0.00000  -0.00413  -0.00433  -1.86151
   D46       -3.11267  -0.00005   0.00000  -0.00284  -0.00299  -3.11566
   D47        0.01799  -0.00033   0.00000  -0.00920  -0.00959   0.00840
   D48       -0.00420   0.00041   0.00000   0.01296   0.01307   0.00887
   D49        3.12646   0.00013   0.00000   0.00659   0.00647   3.13293
   D50        3.09601   0.00022   0.00000   0.00613   0.00560   3.10160
   D51       -0.04825  -0.00080   0.00000  -0.02055  -0.02015  -0.06840
   D52       -0.01354  -0.00062   0.00000  -0.01059  -0.01065  -0.02420
   D53        3.12539  -0.00164   0.00000  -0.03727  -0.03640   3.08898
   D54        0.99597   0.00011   0.00000   0.00466   0.00473   1.00070
   D55       -1.07323  -0.00023   0.00000  -0.00138  -0.00131  -1.07454
   D56       -3.13100  -0.00056   0.00000  -0.00496  -0.00487  -3.13587
   D57       -1.07156   0.00051   0.00000   0.00485   0.00478  -1.06678
   D58       -3.14076   0.00016   0.00000  -0.00119  -0.00126   3.14117
   D59        1.08466  -0.00017   0.00000  -0.00477  -0.00482   1.07984
   D60       -3.14088   0.00033   0.00000   0.00421   0.00418  -3.13669
   D61        1.07311  -0.00001   0.00000  -0.00183  -0.00185   1.07126
   D62       -0.98466  -0.00034   0.00000  -0.00541  -0.00542  -0.99008
   D63        0.96801  -0.00186   0.00000  -0.03351  -0.03350   0.93451
   D64        3.06112  -0.00073   0.00000  -0.02282  -0.02282   3.03830
   D65       -1.16837  -0.00061   0.00000  -0.02124  -0.02124  -1.18961
   D66        0.01541  -0.00022   0.00000  -0.00439  -0.00488   0.01052
   D67       -3.14035  -0.00023   0.00000  -0.00570  -0.00609   3.13675
   D68       -3.11575   0.00003   0.00000   0.00160   0.00128  -3.11447
   D69        0.01168   0.00002   0.00000   0.00029   0.00008   0.01175
   D70       -0.00659  -0.00028   0.00000  -0.00753  -0.00790  -0.01448
   D71        3.13634  -0.00006   0.00000  -0.00165  -0.00179   3.13455
   D72       -3.13477  -0.00022   0.00000  -0.00599  -0.00642  -3.14119
   D73        0.00816   0.00000   0.00000  -0.00011  -0.00031   0.00785
   D74       -0.01401   0.00053   0.00000   0.01152   0.01193  -0.00208
   D75        3.12624   0.00027   0.00000   0.00550   0.00519   3.13144
   D76        0.02396  -0.00017   0.00000  -0.00303  -0.00330   0.02065
   D77       -3.11515   0.00085   0.00000   0.02215   0.02339  -3.09176
         Item               Value     Threshold  Converged?
 Maximum Force            0.036316     0.000450     NO 
 RMS     Force            0.007535     0.000300     NO 
 Maximum Displacement     0.554115     0.001800     NO 
 RMS     Displacement     0.124975     0.001200     NO 
 Predicted change in Energy=-1.473258D-02
 GradGradGradGradGradGradGradGradGradGradGradGradGradGradGradGradGradGrad

                          Input orientation:                          
 ---------------------------------------------------------------------
 Center     Atomic      Atomic             Coordinates (Angstroms)
 Number     Number       Type             X           Y           Z
 ---------------------------------------------------------------------
      1          6           0        2.737318    0.581436    0.167370
      2          6           0        1.270529    0.848241    0.520033
      3          6           0        0.550318    0.192431   -0.655546
      4          8           0        1.021665    2.219201    0.624792
      5          1           0        1.004807    0.313190    1.447505
      6          8           0        1.299483   -0.992900   -0.907101
      7          1           0        0.634064    0.890917   -1.509483
      8          6           0       -0.896457   -0.066603   -0.385129
      9          6           0        2.679922   -0.757881   -0.574958
     10          1           0        3.366352    0.527849    1.071376
     11          8           0        3.210468    1.579130   -0.713127
     12          6           0        3.144064   -1.960267    0.220078
     13          1           0        3.272461   -0.670447   -1.500396
     14          8           0        2.408701   -2.119834    1.416248
     15          1           0        4.198830   -1.836786    0.503259
     16          1           0        3.063007   -2.859089   -0.416832
     17          1           0        2.731887    2.378817   -0.446026
     18          1           0        0.052672    2.302992    0.443444
     19          1           0        1.478473   -2.131676    1.158093
     20          6           0       -1.492206   -1.268982   -0.522781
     21          7           0       -2.822823   -1.396726   -0.281043
     22          6           0       -3.638291   -0.318429    0.102509
     23          7           0       -3.040450    0.897489    0.247931
     24          6           0       -1.707923    1.082778    0.037707
     25          1           0       -0.953645   -2.159987   -0.839764
     26          1           0       -3.274675   -2.294780   -0.386878
     27          8           0       -4.831335   -0.547363    0.287989
     28          8           0       -1.155713    2.189118    0.223376
 ---------------------------------------------------------------------
                    Distance matrix (angstroms):
                    1          2          3          4          5
     1  C    0.000000
     2  C    1.532000   0.000000
     3  C    2.368857   1.526688   0.000000
     4  O    2.415568   1.397297   2.443201   0.000000
     5  H    2.170782   1.103219   2.154987   2.076058   0.000000
     6  O    2.387549   2.329667   1.424618   3.569519   2.708666
     7  H    2.707635   2.127403   1.106392   2.543561   3.035621
     8  C    3.732228   2.520335   1.494450   3.150244   2.667882
     9  C    1.532357   2.401046   2.333410   3.612788   2.836117
    10  H    1.102626   2.190686   3.320363   2.925348   2.400926
    11  O    1.412281   2.412103   3.000441   2.643969   3.337045
    12  C    2.574583   3.389369   3.482577   4.704925   3.354341
    13  H    2.152913   3.224326   2.977985   4.234687   3.847066
    14  O    2.994085   3.302742   3.618354   4.623580   2.809182
    15  H    2.845460   3.972984   4.332689   5.153657   3.964314
    16  H    3.504937   4.223150   3.960097   5.571453   4.216076
    17  H    1.899174   2.326263   3.095711   2.024101   3.291668
    18  H    3.201139   1.898774   2.431028   0.989372   2.423636
    19  H    3.150746   3.054549   3.090669   4.407177   2.507088
    20  C    4.667893   3.633566   2.515007   4.450157   3.552516
    21  N    5.918561   4.736785   3.747500   5.354956   4.534583
    22  C    6.439126   5.062801   4.287198   5.331748   4.875071
    23  N    5.786967   4.319839   3.769217   4.288325   4.259635
    24  C    4.475301   3.026355   2.524474   3.014429   3.152570
    25  H    4.706689   3.980632   2.798162   5.022356   3.896632
    26  H    6.687590   5.599995   4.570445   6.313322   5.336706
    27  O    7.653316   6.263729   5.513596   6.482664   6.012120
    28  O    4.212299   2.787939   2.769441   2.214276   3.112145
                    6          7          8          9         10
     6  O    0.000000
     7  H    2.086722   0.000000
     8  C    2.439801   2.126855   0.000000
     9  C    1.439155   2.788800   3.647518   0.000000
    10  H    3.240215   3.775983   4.543822   2.198796   0.000000
    11  O    3.210113   2.783105   4.436536   2.400456   2.077003
    12  C    2.368293   4.173814   4.503115   1.514345   2.639099
    13  H    2.085334   3.065792   4.357560   1.102353   2.838792
    14  O    2.810390   4.557835   4.287748   2.427627   2.836592
    15  H    3.332788   4.919253   5.466693   2.152596   2.570462
    16  H    2.614009   4.599586   4.845238   2.141689   3.711891
    17  H    3.692269   2.783101   4.375919   3.139777   2.476113
    18  H    3.773779   2.479092   2.683722   4.160353   3.811287
    19  H    2.365137   4.118866   3.505189   2.516795   3.262618
    20  C    2.831510   3.187440   1.348918   4.203642   5.419919
    21  N    4.189085   4.323476   2.343277   5.547496   6.621096
    22  C    5.084863   4.723775   2.796222   6.369607   7.121791
    23  N    4.872647   4.073157   2.434532   6.011660   6.470070
    24  C    3.774332   2.813452   1.469131   4.797559   5.208136
    25  H    2.538348   3.503907   2.142946   3.903694   5.435006
    26  H    4.784186   5.165960   3.258940   6.152614   7.361859
    27  O    6.262082   5.930442   4.020881   7.563596   8.304929
    28  O    4.175069   2.809169   2.350696   4.902473   4.891625
                   11         12         13         14         15
    11  O    0.000000
    12  C    3.660957   0.000000
    13  H    2.384163   2.154101   0.000000
    14  O    4.342741   1.413168   3.369512   0.000000
    15  H    3.758315   1.099078   2.496625   2.029342   0.000000
    16  H    4.450542   1.104584   2.451150   2.082017   1.783751
    17  H    0.969476   4.409222   3.271380   4.879587   4.563373
    18  H    3.439957   5.270861   4.794465   5.104764   5.859349
    19  H    4.502371   1.919231   3.524365   0.965458   2.813559
    20  C    5.501192   4.746021   4.900615   4.438565   5.810599
    21  N    6.741143   6.014353   6.258338   5.547299   7.079012
    22  C    7.153424   6.979240   7.102937   6.444927   7.992902
    23  N    6.360994   6.812911   6.735571   6.337385   7.742651
    24  C    5.000068   5.730197   5.499435   5.394783   6.605326
    25  H    5.597934   4.237259   4.529364   4.049267   5.334432
    26  H    7.561130   6.456043   6.836912   5.965117   7.540251
    27  O    8.378233   8.099870   8.299698   7.494248   9.124299
    28  O    4.506957   5.975407   5.545920   5.717959   6.705026
                   16         17         18         19         20
    16  H    0.000000
    17  H    5.248443   0.000000
    18  H    6.037324   2.824022   0.000000
    19  H    2.349525   4.948615   4.712739   0.000000
    20  C    4.825934   5.581693   4.009893   3.520584   0.000000
    21  N    6.066296   6.718389   4.741441   4.594825   1.358417
    22  C    7.185545   6.939394   4.539966   5.530225   2.429036
    23  N    7.197637   5.999649   3.403097   5.515877   2.772120
[...]
 0003818,0.00009820,0.00017055,-0.00013282,0.04037870,-0.00963650,-0.04
 586530,-0.07895019,0.04981432,0.06610309,-0.00029125,0.00002392,0.0004
 7524,0.00045307,-0.00087272,-0.00146907,-0.00357517,0.00115014,0.00101
 651,0.00268820,0.00065428,0.00078274,-0.00021221,-0.00006074,-0.000073
 21,0.00392071,-0.00112121,0.00011923,0.00122532,0.00017189,-0.00037541
 ,0.00311470,0.00615289,0.00078934,-0.00215541,-0.00020349,-0.00019578,
 0.00051453,-0.00003205,0.00009228,0.00136609,0.00050072,-0.00033614,0.
 00000662,0.00042838,0.00007477,0.00041783,0.00001910,-0.00021887,0.000
 48074,-0.00067075,0.00029921,0.00022671,-0.00006068,0.00014417,-0.0000
 8324,-0.00015499,-0.00010401,-0.00084438,-0.00027160,0.00020319,-0.003
 69583,-0.00089230,-0.00077970,-0.00053573,0.00061519,-0.00045977,-0.03
 536569,0.01727969,0.00545532,-0.13796547,0.03704909,0.01327561,0.88101
 340,-0.00021736,-0.00023874,-0.00093192,-0.00217470,0.00499985,0.00172
 618,0.00020120,-0.00461984,-0.00114668,0.00756784,-0.00392741,0.001000
 60,0.00011537,-0.00027456,0.00025680,0.00093916,-0.00105598,-0.0005454
 5,-0.00238415,-0.00029747,0.00093601,0.00247341,-0.03465524,-0.0052358
 8,0.00075243,-0.00028425,-0.00004183,-0.00031120,0.00006427,0.00009478
 ,0.00012132,-0.00110068,-0.00006316,0.00013784,0.00014257,-0.00009635,
 -0.00000048,-0.00006024,0.00000645,-0.00013705,-0.00028484,0.00004301,
 -0.00003960,-0.00002144,0.00000510,0.00002961,-0.00007441,-0.00001641,
 -0.00080478,0.00042122,0.00050293,-0.01127494,0.00042673,-0.00185324,0
 .00010521,0.00025075,0.00007028,0.06576038,0.03613958,-0.00461768,-0.0
 0830750,-0.17755387,-0.00816200,0.15694714,0.59063746,-0.00002805,-0.0
 0005576,-0.00019909,-0.00032588,0.00079395,0.00052159,0.00037987,-0.00
 064363,-0.00066583,0.00141342,-0.00063939,-0.00016795,0.00001259,-0.00
 000693,-0.00002199,-0.00037510,0.00007269,0.00006148,-0.00015896,0.000
 04767,0.00004709,-0.00040609,-0.00417539,-0.00214278,0.00032294,0.0000
 1680,0.00006892,-0.00010017,0.00002056,0.00001110,-0.00005965,-0.00019
 870,-0.00003367,-0.00000917,-0.00004285,0.00004321,-0.00005053,-0.0000
 0974,0.00000785,-0.00004610,0.00006382,-0.00011919,-0.00002288,0.00000
 295,-0.00002271,0.00001507,-0.00000129,-0.00000204,-0.00004800,0.00007
 748,0.00010700,-0.00191450,0.00007281,0.00060268,0.00006649,-0.0000460
 7,0.00012358,0.01150896,0.00027769,-0.00244080,0.00635538,-0.01243637,
 -0.06431541,-0.06183545,0.01229696,0.23191507,0.00030237,0.00033220,0.
 00037193,0.00132751,-0.00422805,-0.00000935,0.00348287,0.00543499,0.00
 049819,-0.01031092,0.00306451,-0.00232768,0.00000863,0.00047366,-0.000
 28389,-0.00449901,0.00140608,0.00036833,0.00080134,-0.00010316,-0.0003
 7739,-0.03664787,0.02252020,0.00992920,0.00096974,0.00050105,0.0002544
 7,-0.00012991,-0.00003151,-0.00015131,-0.00107330,0.00058023,0.0003068
 1,-0.00020630,-0.00044373,0.00010533,-0.00032070,0.00004691,0.00013830
 ,-0.00016750,0.00066071,-0.00034139,-0.00012750,0.00008325,-0.00013250
 ,0.00004079,0.00016116,0.00006366,0.00134885,-0.00016056,-0.00065731,0
 .01478655,0.00036693,0.00370535,0.00018994,-0.00057300,0.00035920,-0.0
 2891204,-0.01374681,0.00217709,0.04228382,-0.00002771,-0.00406929,-0.1
 3406839,-0.07167276,0.00229017,0.59886997,0.00011693,-0.00007079,0.000
 61109,0.00072536,-0.00507968,-0.00097009,0.00012451,-0.00446688,0.0000
 9400,-0.01063665,0.00422317,-0.00216872,0.00004059,0.00051717,-0.00014
 251,0.00240365,0.00100252,0.00015450,0.00076624,0.00021555,-0.00066844
 ,0.02146740,0.02777265,-0.00237386,-0.00036868,-0.00059709,-0.00027012
 ,0.00011425,0.00001904,-0.00006322,-0.00057238,0.00106795,0.00017021,0
 .00018106,-0.00004825,0.00005734,0.00013086,0.00008496,0.00004246,0.00
 002480,0.00034759,-0.00003931,0.00004677,-0.00006441,0.00003808,-0.000
 01921,0.00011591,0.00000733,0.00108643,-0.00034086,-0.00061565,0.01455
 603,-0.00053370,0.00386032,-0.00007111,-0.00027524,-0.00003335,-0.0288
 5215,-0.01158351,0.00272309,0.01992355,-0.06279057,-0.01000890,-0.0562
 2330,-0.28378975,-0.01001640,0.17863524,0.49235228,-0.00001858,-0.0000
 1684,0.00003076,0.00031621,0.00055809,-0.00007677,-0.00050324,-0.00154
 417,0.00229910,0.00087983,-0.00023225,0.00006494,0.00005570,-0.0000635
 3,-0.00003693,0.00085986,-0.00007378,-0.00009597,-0.00027628,0.0001359
 4,-0.00009366,0.00990171,-0.00263855,0.01908938,-0.00012667,-0.0000531
 4,-0.00028670,0.00003700,-0.00000553,0.00001458,0.00003599,0.00002208,
 0.00001584,0.00002288,0.00003979,-0.00008516,0.00010628,-0.00001620,0.
 00001073,-0.00000171,-0.00005050,0.00012875,0.00000620,-0.00000213,0.0
 0002313,-0.00001130,0.00000792,0.00000998,-0.00002432,-0.00003149,0.00
 000563,-0.00131865,-0.00051658,0.00043584,-0.00003488,0.00004382,-0.00
 011426,0.00048734,0.00034587,-0.00080781,-0.00038555,-0.00654008,0.017
 69759,0.00348897,-0.00973554,-0.07225910,-0.04541350,0.01900443,0.0691
 9402,-0.00034275,0.00046570,-0.00008228,-0.00215924,0.00504161,0.00021
 617,-0.02024212,0.02290350,0.00389529,0.00561680,-0.00142508,0.0001762
 5,-0.00016500,-0.00029658,-0.00012353,-0.00285216,-0.00311963,0.000086
 33,-0.00103554,0.00006953,0.00124325,-0.15410124,0.03413485,0.01473059
 ,-0.00105132,0.00107568,0.00067294,0.00018171,-0.00003787,0.00008686,0
 .00126463,-0.00063415,-0.00040449,-0.00037029,0.00015032,0.00010069,-0
 .00004504,-0.00003612,-0.00016352,0.00033262,-0.00055356,0.00013955,0.
 00010323,0.00007150,0.00000821,-0.00003125,-0.00015967,-0.00005395,-0.
 00139173,0.00011961,0.00059461,-0.01077302,-0.00893434,-0.00097011,-0.
 00034885,0.00047653,-0.00027518,0.06327459,0.01790355,-0.00623808,-0.0
 4841228,0.02083752,0.00830284,-0.03400262,-0.07355748,-0.00612188,-0.3
 3962650,-0.01986231,0.03034993,0.66862912,-0.00025614,0.00046480,-0.00
 178958,-0.00440899,0.01619795,0.00213253,0.00778100,0.01695737,-0.0020
 9223,0.03345365,-0.01240058,0.00630600,0.00001399,-0.00137023,0.000906
 19,-0.00921958,-0.00399354,0.00011281,-0.00327105,-0.00147382,0.002644
 64,0.05872808,-0.14369526,-0.01567394,0.00206635,0.00169294,0.00100509
 ,-0.00047833,-0.00013231,0.00009038,0.00137270,-0.00364477,-0.00041334
 ,-0.00040289,-0.00007882,-0.00038932,-0.00074385,-0.00020300,-0.000006
 59,-0.00047947,-0.00066786,0.00005496,-0.00029679,0.00020903,-0.000143
 58,0.00009397,-0.00029105,0.00007925,-0.00321207,0.00115480,0.00189047
 ,-0.04394205,-0.00346161,-0.01099524,0.00101671,0.00030129,0.00034941,
 -0.00815280,-0.04718676,-0.00455174,0.02238640,0.00304552,-0.00281772,
 -0.05235654,-0.01221793,0.00626582,0.00429543,-0.10520880,-0.00422673,
 0.11770516,0.74954200,-0.00011400,0.00023454,0.00004148,0.00014170,0.0
 0062319,0.00096431,0.00395015,-0.00229787,-0.00078952,-0.00001194,-0.0
 0069282,0.00058087,-0.00009239,0.00004420,-0.00007817,-0.00042230,0.00
 036923,0.00048683,-0.00053029,-0.00033491,0.00065979,0.01698077,-0.010
 40044,-0.08798178,0.00033740,-0.00032087,0.00080336,-0.00001018,-0.000
 00769,-0.00003348,0.00006167,-0.00016187,-0.00017583,0.00018754,0.0000
 3886,0.00003184,-0.00025375,-0.00004714,-0.00004016,-0.00009784,0.0000
 0679,-0.00011695,0.00000007,-0.00003377,-0.00000272,0.00001151,-0.0000
 4463,-0.00000608,-0.00013680,0.00007287,0.00009365,-0.00032336,-0.0013
 5579,-0.00211480,0.00020557,-0.00006859,0.00015968,-0.00855036,-0.0073
 1525,0.00615117,0.00770689,-0.00161427,-0.00731795,-0.00397355,0.00966
 247,-0.01825663,0.03245917,-0.00214815,-0.06541107,-0.03848302,0.05095
 992,0.22618566,-0.00004675,-0.00016912,-0.00007539,-0.00012096,0.00005
 806,-0.00003807,-0.00000293,-0.00000188,-0.00079329,-0.00020605,0.0002
 6168,0.00008227,0.00001672,0.00000508,0.00001188,-0.00203564,-0.001387
 42,0.00053637,0.00016382,0.00028602,-0.00001268,0.01273061,-0.00856078
 ,-0.00158917,-0.00067262,-0.00001076,-0.00023799,-0.00002636,0.0000378
 1,0.00003726,0.00000189,0.00016456,-0.00000130,-0.00003903,0.00000220,
 -0.00000760,0.00018855,0.00002178,-0.00003442,0.00012228,-0.00002496,0
 .00018426,0.00004173,-0.00000189,0.00004471,-0.00004636,0.00004514,0.0
 0000584,0.00003946,-0.00002598,-0.00001331,0.00030647,0.00000942,0.000
 08816,-0.00011284,0.00000969,-0.00043493,-0.13333664,0.12172955,0.0283
 5390,-0.01901199,0.03108600,0.00621830,-0.00052840,-0.00786239,0.00043
 756,0.00095324,0.00094990,-0.00044042,-0.00183125,-0.00192870,0.001771
 83,0.14549658,0.00012433,-0.00013614,0.00009692,0.00017154,-0.00035362
 ,-0.00001553,0.00242394,-0.00097024,0.00015795,-0.00063736,0.00044296,
 -0.00008023,0.00003002,0.00000698,-0.00005238,0.00057007,0.00105202,0.
 00027313,-0.00024629,0.00000103,-0.00000214,0.01771772,-0.01581081,-0.
 00553456,-0.00068952,0.00051173,-0.00012794,0.00001712,0.00005889,0.00
 005739,-0.00004001,0.00021744,-0.00001152,-0.00008274,0.00004018,0.000
 02730,0.00016656,0.00003601,-0.00001352,0.00006123,-0.00006038,0.00006
 617,0.00004253,-0.00001720,0.00000284,0.00000374,0.00000315,-0.0000186
 4,0.00010349,-0.00004008,-0.00003672,0.00097384,0.00006682,0.00028772,
 -0.00024231,0.00008166,-0.00021603,0.12601040,-0.25747727,-0.04381722,
 -0.00523268,0.00772684,0.00138838,-0.00149530,0.00119860,-0.00010106,0
 .00022496,0.00028955,0.00026933,-0.00604378,-0.00125348,-0.00034046,-0
 .13510632,0.26640860,-0.00016029,-0.00010951,-0.00028685,-0.00086695,-
 0.00016273,0.00063627,-0.00072100,0.00032328,-0.00510875,-0.00000922,0
 .00005785,-0.00011002,-0.00005016,-0.00001160,-0.00005423,0.00032252,0
 .00040767,-0.00067602,0.00086863,0.00022194,-0.00003267,0.00142524,-0.
 00173939,0.00875979,0.00011752,-0.00002354,-0.00020601,-0.00011603,0.0
 0000102,-0.00000120,-0.00000044,0.00000964,0.00000733,-0.00024307,-0.0
 0003895,0.00039135,0.00006008,0.00004621,-0.00001550,0.00032895,0.0001
 9441,-0.00026459,0.00004921,0.00002408,-0.00005914,0.00000785,-0.00003
 513,-0.00005738,-0.00000294,-0.00000152,-0.00000172,0.00003170,-0.0000
 4601,0.00010067,-0.00057912,-0.00023628,-0.00005731,0.02982471,-0.0437
 4964,-0.04823708,0.00222750,-0.00416420,0.00184611,0.00018929,0.000791
 72,0.00398210,-0.00011451,0.00026437,-0.00224881,0.00085724,-0.0004133
 9,0.01040340,-0.03346054,0.04793882,0.03531693,-0.00000937,-0.00004821
 ,-0.00006611,-0.00012658,0.00013084,0.00026163,0.00041630,-0.00149931,
 0.00010451,0.00018461,-0.00008619,-0.00002031,0.00001032,0.00000047,-0
 .00003408,0.00013219,0.00021593,-0.00007248,-0.00036328,-0.00002023,0.
 00004013,-0.00537093,0.00265134,0.00160303,0.00004028,0.00000758,0.000
 01311,-0.00003817,0.00000528,0.00000538,-0.00001851,0.00000446,-0.0000
 1521,-0.00004044,-0.00005298,0.00004382,-0.00000605,0.00000080,-0.0000
 0302,0.00004650,0.00009140,-0.00004979,0.00001008,0.00001179,-0.000006
 61,-0.00000962,0.00001275,0.00000330,-0.00000140,0.00001732,0.00001720
 ,-0.00028048,0.00002700,-0.00004474,-0.00004545,-0.00010668,0.00001641
 ,-0.00864821,-0.03181500,-0.00345036,-0.13838987,-0.15158835,0.0008680
 4,0.02034752,0.01704752,-0.00066583,-0.00272468,0.00554768,0.00114676,
 -0.00110865,-0.00049109,0.00002247,0.00034183,0.00055892,-0.00021525,0
 .13757377,0.00000916,0.00003393,0.00003174,0.00004151,-0.00022439,-0.0
 0016734,0.00005885,0.00053723,-0.00016083,-0.00000618,0.00014121,0.000
 00918,-0.00002576,-0.00000130,-0.00000162,0.00020750,-0.00014731,0.000
 03279,0.00024435,0.00006071,-0.00010280,0.00097382,0.00444118,0.000005
 77,-0.00015742,0.00000929,-0.00001024,0.00005192,-0.00000705,0.0000089
 7,0.00010924,0.00002719,-0.00000029,0.00001575,0.00006359,-0.00001356,
 0.00002609,0.00000170,-0.00001281,0.00000614,-0.00011440,0.00004043,0.
 00000910,-0.00000837,0.00001076,0.00000068,-0.00002150,-0.00001202,-0.
 00005751,-0.00002503,-0.00000020,-0.00000882,-0.00004701,0.00000176,-0
 .00001130,0.00011330,-0.00002947,0.00140476,0.00385212,0.00099732,-0.1
 5275482,-0.39073082,-0.02020314,-0.02049131,-0.02083101,0.00017099,0.0
 0386533,-0.00426479,-0.00097948,0.00460739,-0.00119616,-0.00067781,0.0
 0001189,0.00090751,0.00035660,0.16274754,0.40234956,0.00006476,0.00002
 826,0.00024127,0.00070109,-0.00021154,-0.00016785,0.00030466,-0.000078
 20,0.00273635,-0.00020283,0.00011084,-0.00009735,-0.00000061,0.0000157
 1,-0.00006167,-0.00004846,0.00001146,-0.00025404,-0.00056438,-0.000027
 20,0.00009639,0.00155672,-0.00050649,0.00344201,0.00005164,0.00001041,
 0.00005543,0.00005583,-0.00002166,-0.00002971,-0.00000229,0.00004695,-
 0.00009296,-0.00004803,0.00000013,0.00010253,0.00000878,-0.00000036,-0
 .00001697,0.00006874,0.00004494,-0.00012299,0.00000573,0.00000375,-0.0
 0001186,0.00000811,-0.00002248,-0.00001535,0.00000222,-0.00000660,0.00
 001903,0.00021002,-0.00001925,0.00001717,-0.00004661,-0.00005273,0.000
 08201,0.00080766,0.00646322,-0.00782620,-0.00005847,-0.02263022,-0.007
 62878,-0.00458569,-0.00308407,-0.00116948,0.00086151,-0.00128999,0.003
 43849,0.00050856,0.00012902,-0.00038781,-0.00040206,0.00025082,-0.0018
 3952,0.00102846,0.01976220,0.01350102,0.00020509,-0.00000045,-0.000332
 19,-0.00036602,0.00034310,0.00121983,0.00238539,-0.00106327,-0.0008515
 7,-0.00295068,-0.00020194,-0.00092269,0.00017992,0.00012690,0.00002951
 ,-0.00293528,0.00063306,-0.00010083,-0.00102855,-0.00006020,0.00021155
 ,-0.00381352,0.00427989,-0.00011026,0.00176126,-0.00001623,0.00017309,
 -0.00040099,0.00001907,-0.00008173,-0.00111934,-0.00036098,0.00027865,
 0.00003807,-0.00034134,-0.00004960,-0.00035201,-0.00000914,0.00017331,
 -0.00039215,0.00056685,-0.00026448,-0.00017672,0.00003964,-0.00011036,
 0.00006511,0.00012792,0.00008104,0.00072233,0.00020541,-0.00019827,0.0
 0409289,0.00055388,0.00116923,0.00046093,-0.00052022,0.00041606,-0.001
 66705,0.00642905,0.00125578,-0.08387444,0.02491878,0.01308928,-0.56427
 515,-0.09894418,0.04579451,-0.05140439,-0.04979271,0.00264249,0.021947
 57,0.00309453,-0.00082263,-0.00280600,-0.00014488,0.00055213,-0.002461
 87,-0.00009628,0.00011884,0.69617519,0.00008615,0.00002844,0.00017658,
 0.00047654,-0.00116440,-0.00017705,0.00043718,0.00093128,0.00014054,-0
 .00247736,0.00097409,-0.00047602,0.00000677,0.00010151,-0.00006582,-0.
 00074595,0.00047946,0.00012889,0.00036406,0.00008736,-0.00019121,-0.00
 150883,0.00843252,0.00135008,0.00007341,0.00008185,0.00003640,0.000003
 50,-0.00000775,-0.00003450,-0.00022852,0.00023445,0.00005680,-0.000045
 33,-0.00011549,0.00003318,-0.00005615,0.00001529,0.00002696,-0.0000118
 2,0.00020590,-0.00007276,-0.00001476,0.00001481,-0.00002186,0.00000059
 ,0.00004761,0.00001971,0.00032846,-0.00007415,-0.00015928,0.00352416,-
 0.00004335,0.00083852,0.00002966,-0.00018581,0.00005004,-0.01192786,-0
 .00868412,0.00059531,0.05580789,0.01283681,-0.00761212,-0.09650010,-0.
 11445552,0.00840986,-0.07316818,-0.02168197,0.00467918,0.01806763,-0.0
 0350105,-0.00337961,0.00144958,0.00001522,-0.00013581,-0.00374321,0.00
 416543,0.00116855,0.11838080,0.12681874,-0.00001021,0.00001024,0.00002
 784,-0.00002904,-0.00023266,-0.00025511,-0.00024227,0.00034718,-0.0004
 6734,-0.00009789,0.00019970,0.00016696,-0.00000939,-0.00002466,0.00004
 493,0.00027842,-0.00003996,0.00003616,0.00020383,-0.00003459,-0.000017
 66,0.00000698,0.00058706,-0.00171841,-0.00021551,-0.00000882,-0.000038
 54,0.00005075,-0.00000538,0.00001168,0.00008012,0.00005436,0.00003432,
 0.00002341,0.00003781,-0.00005638,0.00002933,0.00000355,-0.00000803,0.
 00000913,-0.00007179,0.00011649,0.00001606,-0.00000502,0.00001650,-0.0
 0001133,0.00000064,0.00000464,-0.00003554,-0.00002867,-0.00002883,0.00
 012706,-0.00003111,-0.00025822,-0.00004238,0.00005977,-0.00010431,-0.0
 0044040,-0.00155346,0.00436133,0.01619776,-0.00373343,0.01938396,0.045
 74188,0.00903872,-0.08637128,0.00121897,0.00100837,0.01742870,0.000305
 69,-0.00147725,0.00988833,0.00033656,-0.00002763,-0.00004437,-0.000477
 06,0.00075420,-0.00337626,-0.06301560,-0.00553028,0.04280829,0.0000109
 9,0.00052450,0.00163393,0.00268716,-0.01709894,-0.00147546,-0.00020210
 ,-0.00338849,0.00046145,-0.05723330,0.00834106,-0.01567738,0.00000869,
 0.00167900,-0.00072203,0.00119062,0.00302708,0.00043364,0.00156707,0.0
 0068343,-0.00120709,0.01744000,0.00975135,0.00278775,-0.00057611,-0.00
 066746,-0.00052849,0.00017067,-0.00001005,-0.00018470,-0.00206861,0.00
 284832,0.00090039,0.00008964,-0.00028805,0.00027781,0.00014128,0.00019
 236,0.00019120,0.00005327,0.00089102,-0.00028157,0.00003292,-0.0000454
 8,-0.00003239,-0.00001176,0.00031759,0.00000592,0.00359117,-0.00072604
 ,-0.00259026,0.01634803,0.01109634,0.00847666,-0.00031743,-0.00062511,
 0.00009913,-0.00842997,0.00174833,0.00187533,0.00795237,-0.01030101,-0
 .00181408,0.00182350,0.02549009,0.00357127,-0.05514661,-0.08044274,-0.
 00178205,-0.14145944,-0.12236764,-0.01001435,0.00042064,0.00076079,-0.
 00032305,0.00054016,-0.00078165,-0.00040391,-0.00800957,-0.00860831,0.
 00000065,0.21938672,-0.00005136,0.00047859,0.00159476,0.00055102,-0.01
 053778,-0.00210597,-0.00705793,-0.00211687,0.00217698,-0.02567726,0.01
 704778,-0.00503104,-0.00001339,0.00127652,-0.00070657,0.00275800,0.002
 78326,0.00067585,0.00175748,0.00085367,-0.00130160,-0.00903173,-0.0712
 8774,-0.00913234,-0.00198723,-0.00061801,-0.00047336,0.00033530,0.0000
 6259,-0.00013918,-0.00088898,0.00267312,0.00009848,0.00005782,-0.00011
 828,0.00037303,0.00037747,0.00018984,0.00002777,0.00038779,0.00063861,
 -0.00014044,0.00017785,-0.00008481,0.00004917,-0.00006623,0.00025011,-
 0.00003408,0.00242614,-0.00095776,-0.00133004,0.03548653,-0.01446161,0
 .00877545,-0.00070600,-0.00037317,-0.00022440,0.01360349,0.00262905,-0
 .00209733,-0.00454359,-0.00718283,0.00030204,0.01041464,0.02146216,-0.
 00021649,-0.05849738,-0.02721206,0.00162008,-0.12896952,-0.44758868,-0
 .03077013,-0.00104818,-0.00294597,0.00023009,0.00037262,0.00091520,-0.
 00009544,-0.00816705,-0.00555715,0.00070312,0.17799969,0.53978222,0.00
 007935,0.00027360,0.00044507,-0.00016952,-0.00586938,-0.00162156,-0.00
 104219,0.00152084,-0.00287080,-0.02053437,0.00338020,0.00322956,0.0002
 4541,0.00020572,0.00013188,0.00113874,-0.00040388,0.00113610,-0.000590
 13,-0.00015601,0.00048509,-0.00082833,-0.01289635,0.02075537,-0.000978
 66,-0.00034272,-0.00032974,0.00010680,-0.00000828,-0.00000308,-0.00080
 935,0.00111826,0.00075104,0.00010489,0.00000521,0.00003141,0.00009522,
 0.00015313,0.00006045,0.00006185,0.00016498,0.00012839,0.00004469,-0.0
 0004223,0.00003582,-0.00002075,0.00011735,0.00000144,0.00124150,-0.000
 25977,-0.00130850,0.01290861,0.00266791,-0.00892537,-0.00014244,-0.000
 08964,-0.00018748,0.00347681,-0.00045928,0.00215774,-0.00141394,-0.000
 10018,-0.00031972,0.00225891,-0.00090179,0.01069631,-0.00122957,0.0027
 7310,0.01162876,-0.00935898,-0.02793584,-0.07373741,-0.00056775,-0.000
 42119,-0.00214279,-0.00005341,0.00018891,-0.00063291,-0.00034507,0.000
 14572,-0.00158538,0.01632169,0.03717158,0.04199029\\-0.00001726,-0.000
 02038,0.00000576,0.00001159,0.00002879,-0.00000578,-0.00000917,0.00002
 415,-0.00000834,0.00000788,-0.00001221,0.00000957,-0.00000360,-0.00001
 167,0.00000012,0.00000207,-0.00001223,0.00000726,-0.00000123,-0.000003
 87,0.00000510,0.00000508,-0.00000342,-0.00000071,0.00002100,0.00000450
 ,0.00000289,-0.00000152,0.00000783,0.00000058,-0.00000204,0.00000815,-
 0.00001155,-0.00000980,0.00000154,-0.00000450,0.00000245,0.00000455,0.
 00000046,0.00000348,-0.00000661,-0.00000352,-0.00000220,0.00000170,-0.
 00000049,0.00000188,-0.00000072,-0.00000272,0.00000587,-0.00001110,0.0
 0001034,-0.00001369,0.00000091,0.00000041,0.00000250,0.00000316,-0.000
 00351,-0.00000547,0.00000975,-0.00000489,0.00000392,-0.00000316,0.0000
 1256,0.00001457,-0.00000099,-0.00000192,0.00000804,-0.00001007,-0.0000
 0005,-0.00000597,-0.00001920,0.00000147,-0.00000214,-0.00000109,-0.000
 00138,-0.00000895,0.00000382,-0.00000806,-0.00001966,-0.00000770,-0.00
 000231,0.00001236,0.00002560,0.00000321\\\@
 The archive entry for this job was punched.


 ...THE PHYSICISTS HAVE MADE THEIR UNIVERSE, AND IF YOU DO NOT LIKE
 IT, YOU MUST MAKE YOUR OWN.
                               -- E. R. HARRISON IN "COSMOLOGY" (1980)
 Job cpu time:       0 days  9 hours 37 minutes 33.6 seconds.
 Elapsed time:       0 days  0 hours 14 minutes 34.0 seconds.
 File lengths (MBytes):  RWF=    600 Int=      0 D2E=      0 Chk=     20 Scr=      1
 Normal termination of Gaussian 16 at Sun Oct 27 00:00:44 2024.
