 Entering Gaussian System, Link 0=g16
 Input=PseudoUridineSsrraPBE0aVDZ.gjf
 Output=PseudoUridineSsrraPBE0aVDZ.log
 Initial command:
 /sw/contrib/chem-src/g16/c01/g16/l1.exe "/scr/Gau-86301.inp" -scrdir="/scr/"
 Entering Link 1 = /sw/contrib/chem-src/g16/c01/g16/l1.exe PID=     86307.
  
 Copyright (c) 1988-2019, Gaussian, Inc.  All Rights Reserved.
  
 This is part of the Gaussian(R) 16 program.  It is based on
 the Gaussian(R) 09 system (copyright 2009, Gaussian, Inc.),
 the Gaussian(R) 03 system (copyright 2003, Gaussian, Inc.),
 the Gaussian(R) 98 system (copyright 1998, Gaussian, Inc.),
 the Gaussian(R) 94 system (copyright 1995, Gaussian, Inc.),
 the Gaussian 92(TM) system (copyright 1992, Gaussian, Inc.),
 the Gaussian 90(TM) system (copyright 1990, Gaussian, Inc.),
 the Gaussian 88(TM) system (copyright 1988, Gaussian, Inc.),
 the Gaussian 86(TM) system (copyright 1986, Carnegie Mellon
 University), and the Gaussian 82(TM) system (copyright 1983,
 Carnegie Mellon University). Gaussian is a federally registered
 trademark of Gaussian, Inc.
  
 This software contains proprietary and confidential information,
 including trade secrets, belonging to Gaussian, Inc.
  
 This software is provided under written license and may be
 used, copied, transmitted, or stored only in accord with that
 written license.
  
 The following legend is applicable only to US Government
 contracts under FAR:
  
                    RESTRICTED RIGHTS LEGEND
  
 Use, reproduction and disclosure by the US Government is
 subject to restrictions as set forth in subparagraphs (a)
 and (c) of the Commercial Computer Software - Restricted
 Rights clause in FAR 52.227-19.
  
 Gaussian, Inc.
 340 Quinnipiac St., Bldg. 40, Wallingford CT 06492
  
  
 ---------------------------------------------------------------
 Warning -- This program may not be used in any manner that
 competes with the business of Gaussian, Inc. or will provide
 assistance to any competitor of Gaussian, Inc.  The licensee
 of this program is prohibited from giving any competitor of
 Gaussian, Inc. access to this program.  By using this program,
 the user acknowledges that Gaussian, Inc. is engaged in the
 business of creating and licensing software in the field of
 computational chemistry and represents and warrants to the
 licensee that it is not a competitor of Gaussian, Inc. and that
 it will not use this program in any manner prohibited above.
 ---------------------------------------------------------------
  

 Cite this work as:
 Gaussian 16, Revision C.01,
 M. J. Frisch, G. W. Trucks, H. B. Schlegel, G. E. Scuseria, 
 M. A. Robb, J. R. Cheeseman, G. Scalmani, V. Barone, 
 G. A. Petersson, H. Nakatsuji, X. Li, M. Caricato, A. V. Marenich, 
 J. Bloino, B. G. Janesko, R. Gomperts, B. Mennucci, H. P. Hratchian, 
 J. V. Ortiz, A. F. Izmaylov, J. L. Sonnenberg, D. Williams-Young, 
 F. Ding, F. Lipparini, F. Egidi, J. Goings, B. Peng, A. Petrone, 
 T. Henderson, D. Ranasinghe, V. G. Zakrzewski, J. Gao, N. Rega, 
 G. Zheng, W. Liang, M. Hada, M. Ehara, K. Toyota, R. Fukuda, 
 J. Hasegawa, M. Ishida, T. Nakajima, Y. Honda, O. Kitao, H. Nakai, 
 T. Vreven, K. Throssell, J. A. Montgomery, Jr., J. E. Peralta, 
 F. Ogliaro, M. J. Bearpark, J. J. Heyd, E. N. Brothers, K. N. Kudin, 
 V. N. Staroverov, T. A. Keith, R. Kobayashi, J. Normand, 
 K. Raghavachari, A. P. Rendell, J. C. Burant, S. S. Iyengar, 
 J. Tomasi, M. Cossi, J. M. Millam, M. Klene, C. Adamo, R. Cammi, 
 J. W. Ochterski, R. L. Martin, K. Morokuma, O. Farkas, 
 J. B. Foresman, and D. J. Fox, Gaussian, Inc., Wallingford CT, 2019.
 
 ******************************************
 Gaussian 16:  EM64L-G16RevC.01  3-Jul-2019
                26-Oct-2024 
 ******************************************
 %nprocshared=40
 Will use up to   40 processors via shared memory.
 %mem=50gb
 ------------------------------------------------------
 # PBE1PBE/aug-cc-pVDZ opt freq EmpiricalDispersion=GD3
 ------------------------------------------------------
 1/18=20,19=15,26=3,38=1/1,3;
 2/9=110,12=2,17=6,18=5,40=1/2;
 3/5=16,7=10,11=2,25=1,30=1,71=1,74=-13,124=31/1,2,3;
 4//1;
 5/5=2,38=5/2;
 6/7=2,8=2,9=2,10=2,28=1/1;
 7//1,2,3,16;
 1/18=20,19=15,26=3/3(2);
 2/9=110/2;
 99//99;
 2/9=110/2;
 3/5=16,7=10,11=2,25=1,30=1,71=1,74=-13,124=31/1,2,3;
 4/5=5,16=3,69=1/1;
 5/5=2,38=5/2;
 7//1,2,3,16;
 1/18=20,19=15,26=3/3(-5);
 2/9=110/2;
 6/7=2,8=2,9=2,10=2,19=2,28=1/1;
 99/9=1/99;
 ----
 blah
 ----
 Symbolic Z-matrix:
 Charge =  0 Multiplicity = 1
 C                    -2.74081  -0.40253   0.35196 
 C                    -1.33717  -0.60052   0.92151 
 C                    -0.49511  -0.62097  -0.36362 
 O                    -1.17429  -1.72063   1.73535 
 H                    -1.07322   0.28117   1.5173 
 O                    -1.11937   0.29945  -1.24067 
 H                    -0.46508  -1.63171  -0.78954 
 C                     0.88317  -0.22223  -0.17836 
 C                    -2.48039   0.50746  -0.85546 
 H                    -3.42532   0.05175   1.08222 
 O                    -3.18308  -1.6945   -0.03815 
 C                    -2.72065   1.98098  -0.60194 
 H                    -3.12804   0.19856  -1.69213 
 O                    -2.00751   2.37331   0.56182 
 H                    -3.8055    2.14366  -0.47673 
 H                    -2.37999   2.54425  -1.48526 
 H                    -4.1098   -1.65884  -0.28772 
 H                    -1.6367   -2.45476   1.31122 
 H                    -2.13463   3.31487   0.70366 
 C                     1.16931   1.05472   0.23937 
 N                     2.42839   1.50285   0.4266 
 C                     3.5505    0.61792   0.17702 
 N                     3.16241  -0.6537   -0.2615 
 C                     1.8914   -1.13856  -0.4739 
 H                     0.2934    1.68587   0.38891 
 H                     2.63034   2.51786   0.75443 
 H                     3.90904  -1.3081   -0.46096 
 O                     4.73183   0.88833   0.30902 
 O                     1.67914  -2.26612  -0.87933 
 

 GradGradGradGradGradGradGradGradGradGradGradGradGradGradGradGradGradGrad
 Berny optimization.
 Initialization pass.
                           ----------------------------
                           !    Initial Parameters    !
                           ! (Angstroms and Degrees)  !
 --------------------------                            --------------------------
 ! Name  Definition              Value          Derivative Info.                !
 --------------------------------------------------------------------------------
 ! R1    R(1,2)                  1.5277         estimate D2E/DX2                !
 ! R2    R(1,9)                  1.5342         estimate D2E/DX2                !
 ! R3    R(1,10)                 1.0992         estimate D2E/DX2                !
 ! R4    R(1,11)                 1.4202         estimate D2E/DX2                !
 ! R5    R(2,3)                  1.5366         estimate D2E/DX2                !
 ! R6    R(2,4)                  1.3941         estimate D2E/DX2                !
 ! R7    R(2,5)                  1.0964         estimate D2E/DX2                !
 ! R8    R(3,6)                  1.4164         estimate D2E/DX2                !
 ! R9    R(3,7)                  1.0972         estimate D2E/DX2                !
 ! R10   R(3,8)                  1.4467         estimate D2E/DX2                !
 ! R11   R(4,18)                 0.9657         estimate D2E/DX2                !
 ! R12   R(6,9)                  1.4297         estimate D2E/DX2                !
 ! R13   R(8,20)                 1.3737         estimate D2E/DX2                !
 ! R14   R(8,24)                 1.3941         estimate D2E/DX2                !
 ! R15   R(9,12)                 1.5143         estimate D2E/DX2                !
 ! R16   R(9,13)                 1.1022         estimate D2E/DX2                !
 ! R17   R(11,17)                0.9604         estimate D2E/DX2                !
 ! R18   R(12,14)                1.4201         estimate D2E/DX2                !
 ! R19   R(12,15)                1.1041         estimate D2E/DX2                !
 ! R20   R(12,16)                1.1016         estimate D2E/DX2                !
 ! R21   R(14,19)                0.9606         estimate D2E/DX2                !
 ! R22   R(20,21)                1.3495         estimate D2E/DX2                !
 ! R23   R(20,25)                1.0899         estimate D2E/DX2                !
 ! R24   R(21,22)                1.4507         estimate D2E/DX2                !
 ! R25   R(21,26)                1.0856         estimate D2E/DX2                !
 ! R26   R(22,23)                1.4            estimate D2E/DX2                !
 ! R27   R(22,28)                1.219          estimate D2E/DX2                !
 ! R28   R(23,24)                1.3768         estimate D2E/DX2                !
 ! R29   R(23,27)                1.0127         estimate D2E/DX2                !
 ! R30   R(24,29)                1.2169         estimate D2E/DX2                !
 ! A1    A(2,1,9)              102.3757         estimate D2E/DX2                !
 ! A2    A(2,1,10)             112.213          estimate D2E/DX2                !
 ! A3    A(2,1,11)             105.7019         estimate D2E/DX2                !
 ! A4    A(9,1,10)             112.5468         estimate D2E/DX2                !
 ! A5    A(9,1,11)             112.1023         estimate D2E/DX2                !
 ! A6    A(10,1,11)            111.379          estimate D2E/DX2                !
 ! A7    A(1,2,3)              101.153          estimate D2E/DX2                !
 ! A8    A(1,2,4)              115.4119         estimate D2E/DX2                !
 ! A9    A(1,2,5)              108.6372         estimate D2E/DX2                !
 ! A10   A(3,2,4)              114.4265         estimate D2E/DX2                !
 ! A11   A(3,2,5)              109.4674         estimate D2E/DX2                !
 ! A12   A(4,2,5)              107.5046         estimate D2E/DX2                !
 ! A13   A(2,3,6)              105.5279         estimate D2E/DX2                !
 ! A14   A(2,3,7)              110.6047         estimate D2E/DX2                !
 ! A15   A(2,3,8)              114.2879         estimate D2E/DX2                !
 ! A16   A(6,3,7)              111.7349         estimate D2E/DX2                !
 ! A17   A(6,3,8)              108.6681         estimate D2E/DX2                !
 ! A18   A(7,3,8)              106.1132         estimate D2E/DX2                !
 ! A19   A(2,4,18)             107.3649         estimate D2E/DX2                !
 ! A20   A(3,6,9)              110.3217         estimate D2E/DX2                !
 ! A21   A(3,8,20)             119.5782         estimate D2E/DX2                !
 ! A22   A(3,8,24)             118.7305         estimate D2E/DX2                !
 ! A23   A(20,8,24)            121.6564         estimate D2E/DX2                !
 ! A24   A(1,9,6)              106.6987         estimate D2E/DX2                !
 ! A25   A(1,9,12)             114.7372         estimate D2E/DX2                !
 ! A26   A(1,9,13)             109.3553         estimate D2E/DX2                !
 ! A27   A(6,9,12)             109.7376         estimate D2E/DX2                !
 ! A28   A(6,9,13)             108.3045         estimate D2E/DX2                !
 ! A29   A(12,9,13)            107.8518         estimate D2E/DX2                !
 ! A30   A(1,11,17)            109.7606         estimate D2E/DX2                !
 ! A31   A(9,12,14)            109.0459         estimate D2E/DX2                !
 ! A32   A(9,12,15)            108.5569         estimate D2E/DX2                !
 ! A33   A(9,12,16)            108.3142         estimate D2E/DX2                !
 ! A34   A(14,12,15)           111.0857         estimate D2E/DX2                !
 ! A35   A(14,12,16)           111.133          estimate D2E/DX2                !
 ! A36   A(15,12,16)           108.6288         estimate D2E/DX2                !
 ! A37   A(12,14,19)           108.9854         estimate D2E/DX2                !
 ! A38   A(8,20,21)            123.0403         estimate D2E/DX2                !
 ! A39   A(8,20,25)            114.3695         estimate D2E/DX2                !
 ! A40   A(21,20,25)           122.5794         estimate D2E/DX2                !
 ! A41   A(20,21,22)           119.6855         estimate D2E/DX2                !
 ! A42   A(20,21,26)           121.7318         estimate D2E/DX2                !
 ! A43   A(22,21,26)           118.5811         estimate D2E/DX2                !
 ! A44   A(21,22,23)           113.1747         estimate D2E/DX2                !
 ! A45   A(21,22,28)           126.5574         estimate D2E/DX2                !
 ! A46   A(23,22,28)           120.2673         estimate D2E/DX2                !
 ! A47   A(22,23,24)           128.616          estimate D2E/DX2                !
 ! A48   A(22,23,27)           116.3772         estimate D2E/DX2                !
 ! A49   A(24,23,27)           115.0033         estimate D2E/DX2                !
 ! A50   A(8,24,23)            113.7941         estimate D2E/DX2                !
 ! A51   A(8,24,29)            123.6086         estimate D2E/DX2                !
 ! A52   A(23,24,29)           122.5971         estimate D2E/DX2                !
 ! D1    D(9,1,2,3)            -35.0209         estimate D2E/DX2                !
 ! D2    D(9,1,2,4)           -159.0975         estimate D2E/DX2                !
 ! D3    D(9,1,2,5)             80.1282         estimate D2E/DX2                !
 ! D4    D(10,1,2,3)          -155.9269         estimate D2E/DX2                !
 ! D5    D(10,1,2,4)            79.9966         estimate D2E/DX2                !
 ! D6    D(10,1,2,5)           -40.7778         estimate D2E/DX2                !
 ! D7    D(11,1,2,3)            82.4843         estimate D2E/DX2                !
 ! D8    D(11,1,2,4)           -41.5923         estimate D2E/DX2                !
 ! D9    D(11,1,2,5)          -162.3666         estimate D2E/DX2                !
 ! D10   D(2,1,9,6)             24.0039         estimate D2E/DX2                !
 ! D11   D(2,1,9,12)           -97.76           estimate D2E/DX2                !
 ! D12   D(2,1,9,13)           140.9349         estimate D2E/DX2                !
 ! D13   D(10,1,9,6)           144.6793         estimate D2E/DX2                !
 ! D14   D(10,1,9,12)           22.9153         estimate D2E/DX2                !
 ! D15   D(10,1,9,13)          -98.3897         estimate D2E/DX2                !
 ! D16   D(11,1,9,6)           -88.8357         estimate D2E/DX2                !
 ! D17   D(11,1,9,12)          149.4003         estimate D2E/DX2                !
 ! D18   D(11,1,9,13)           28.0953         estimate D2E/DX2                !
 ! D19   D(2,1,11,17)          171.8221         estimate D2E/DX2                !
 ! D20   D(9,1,11,17)          -77.418          estimate D2E/DX2                !
 ! D21   D(10,1,11,17)          49.6965         estimate D2E/DX2                !
 ! D22   D(1,2,3,6)             35.2651         estimate D2E/DX2                !
 ! D23   D(1,2,3,7)            -85.7371         estimate D2E/DX2                !
 ! D24   D(1,2,3,8)            154.596          estimate D2E/DX2                !
 ! D25   D(4,2,3,6)            160.0099         estimate D2E/DX2                !
 ! D26   D(4,2,3,7)             39.0078         estimate D2E/DX2                !
 ! D27   D(4,2,3,8)            -80.6591         estimate D2E/DX2                !
 ! D28   D(5,2,3,6)            -79.2647         estimate D2E/DX2                !
 ! D29   D(5,2,3,7)            159.7332         estimate D2E/DX2                !
 ! D30   D(5,2,3,8)             40.0662         estimate D2E/DX2                !
 ! D31   D(1,2,4,18)            42.7327         estimate D2E/DX2                !
 ! D32   D(3,2,4,18)           -74.0737         estimate D2E/DX2                !
 ! D33   D(5,2,4,18)           164.1201         estimate D2E/DX2                !
 ! D34   D(2,3,6,9)            -21.277          estimate D2E/DX2                !
 ! D35   D(7,3,6,9)             98.986          estimate D2E/DX2                !
 ! D36   D(8,3,6,9)           -144.2665         estimate D2E/DX2                !
 ! D37   D(2,3,8,20)           -63.3477         estimate D2E/DX2                !
 ! D38   D(2,3,8,24)           118.7681         estimate D2E/DX2                !
 ! D39   D(6,3,8,20)            54.1994         estimate D2E/DX2                !
 ! D40   D(6,3,8,24)          -123.6848         estimate D2E/DX2                !
 ! D41   D(7,3,8,20)           174.4952         estimate D2E/DX2                !
 ! D42   D(7,3,8,24)            -3.389          estimate D2E/DX2                !
 ! D43   D(3,6,9,1)             -1.8307         estimate D2E/DX2                !
 ! D44   D(3,6,9,12)           123.0441         estimate D2E/DX2                !
 ! D45   D(3,6,9,13)          -119.4566         estimate D2E/DX2                !
 ! D46   D(3,8,20,21)         -179.5832         estimate D2E/DX2                !
 ! D47   D(3,8,20,25)           -0.7514         estimate D2E/DX2                !
 ! D48   D(24,8,20,21)          -1.7629         estimate D2E/DX2                !
 ! D49   D(24,8,20,25)         177.0689         estimate D2E/DX2                !
 ! D50   D(3,8,24,23)          179.9898         estimate D2E/DX2                !
 ! D51   D(3,8,24,29)           -0.1886         estimate D2E/DX2                !
 ! D52   D(20,8,24,23)           2.1515         estimate D2E/DX2                !
 ! D53   D(20,8,24,29)        -178.0268         estimate D2E/DX2                !
 ! D54   D(1,9,12,14)           51.6757         estimate D2E/DX2                !
 ! D55   D(1,9,12,15)          -69.4799         estimate D2E/DX2                !
 ! D56   D(1,9,12,16)          172.742          estimate D2E/DX2                !
 ! D57   D(6,9,12,14)          -68.4187         estimate D2E/DX2                !
 ! D58   D(6,9,12,15)          170.4257         estimate D2E/DX2                !
 ! D59   D(6,9,12,16)           52.6476         estimate D2E/DX2                !
 ! D60   D(13,9,12,14)         173.7997         estimate D2E/DX2                !
 ! D61   D(13,9,12,15)          52.6441         estimate D2E/DX2                !
 ! D62   D(13,9,12,16)         -65.1339         estimate D2E/DX2                !
 ! D63   D(9,12,14,19)         177.96           estimate D2E/DX2                !
 ! D64   D(15,12,14,19)        -62.4395         estimate D2E/DX2                !
 ! D65   D(16,12,14,19)         58.6304         estimate D2E/DX2                !
 ! D66   D(8,20,21,22)           0.2771         estimate D2E/DX2                !
 ! D67   D(8,20,21,26)         179.8037         estimate D2E/DX2                !
 ! D68   D(25,20,21,22)       -178.46           estimate D2E/DX2                !
 ! D69   D(25,20,21,26)          1.0666         estimate D2E/DX2                !
 ! D70   D(20,21,22,23)          0.5614         estimate D2E/DX2                !
 ! D71   D(20,21,22,28)       -179.7227         estimate D2E/DX2                !
 ! D72   D(26,21,22,23)       -178.9801         estimate D2E/DX2                !
 ! D73   D(26,21,22,28)          0.7358         estimate D2E/DX2                !
 ! D74   D(21,22,23,24)          0.0183         estimate D2E/DX2                !
 ! D75   D(21,22,23,27)        179.3067         estimate D2E/DX2                !
 ! D76   D(28,22,23,24)       -179.7175         estimate D2E/DX2                !
 ! D77   D(28,22,23,27)         -0.4291         estimate D2E/DX2                !
 ! D78   D(22,23,24,8)          -1.3367         estimate D2E/DX2                !
 ! D79   D(22,23,24,29)        178.8396         estimate D2E/DX2                !
 ! D80   D(27,23,24,8)         179.3667         estimate D2E/DX2                !
 ! D81   D(27,23,24,29)         -0.457          estimate D2E/DX2                !
 --------------------------------------------------------------------------------
 Trust Radius=3.00D-01 FncErr=1.00D-07 GrdErr=1.00D-06 EigMax=2.50D+02 EigMin=1.00D-04
 Number of steps in this run=    173 maximum allowed number of steps=    174.
 GradGradGradGradGradGradGradGradGradGradGradGradGradGradGradGradGradGrad

                          Input orientation:                          
 ---------------------------------------------------------------------
 Center     Atomic      Atomic             Coordinates (Angstroms)
 Number     Number       Type             X           Y           Z
 ---------------------------------------------------------------------
      1          6           0       -2.740813   -0.402525    0.351959
      2          6           0       -1.337169   -0.600518    0.921513
      3          6           0       -0.495108   -0.620972   -0.363617
      4          8           0       -1.174293   -1.720631    1.735353
      5          1           0       -1.073223    0.281167    1.517297
      6          8           0       -1.119374    0.299450   -1.240666
      7          1           0       -0.465084   -1.631706   -0.789538
      8          6           0        0.883165   -0.222227   -0.178359
      9          6           0       -2.480388    0.507462   -0.855462
     10          1           0       -3.425318    0.051748    1.082220
     11          8           0       -3.183077   -1.694499   -0.038152
     12          6           0       -2.720649    1.980980   -0.601941
     13          1           0       -3.128037    0.198557   -1.692129
     14          8           0       -2.007510    2.373306    0.561816
     15          1           0       -3.805495    2.143662   -0.476728
     16          1           0       -2.379990    2.544254   -1.485259
     17          1           0       -4.109803   -1.658841   -0.287715
     18          1           0       -1.636700   -2.454764    1.311224
     19          1           0       -2.134625    3.314871    0.703663
     20          6           0        1.169310    1.054719    0.239372
     21          7           0        2.428387    1.502848    0.426604
     22          6           0        3.550501    0.617924    0.177021
     23          7           0        3.162407   -0.653699   -0.261500
     24          6           0        1.891399   -1.138558   -0.473904
     25          1           0        0.293396    1.685872    0.388905
     26          1           0        2.630338    2.517858    0.754431
     27          1           0        3.909038   -1.308099   -0.460964
     28          8           0        4.731829    0.888331    0.309021
     29          8           0        1.679135   -2.266116   -0.879332
 ---------------------------------------------------------------------
                    Distance matrix (angstroms):
                    1          2          3          4          5
     1  C    0.000000
     2  C    1.527681   0.000000
     3  C    2.367057   1.536569   0.000000
     4  O    2.470864   1.394101   2.464998   0.000000
     5  H    2.146230   1.096355   2.164696   2.016174   0.000000
     6  O    2.378716   2.352104   1.416368   3.597281   2.758410
     7  H    2.827162   2.179811   1.097221   2.624111   3.057843
     8  C    3.667010   2.506533   1.446705   3.184437   2.637444
     9  C    1.534198   2.385835   2.335939   3.658224   2.767907
    10  H    1.099178   2.193546   3.336035   2.938541   2.402972
    11  O    1.420205   2.350559   2.912656   2.679779   3.282402
    12  C    2.567378   3.301373   3.432198   4.642853   3.177192
    13  H    2.165534   3.267545   3.060864   4.387258   3.811758
    14  O    2.878717   3.069588   3.479869   4.339558   2.482515
    15  H    2.881551   3.946927   4.314471   5.171971   3.861390
    16  H    3.491285   4.095072   3.850911   5.478621   3.980521
    17  H    1.965107   3.204650   3.761509   3.565647   4.030201
    18  H    2.520107   1.918286   2.733335   0.965742   2.800945
    19  H    3.782882   4.001708   4.395220   5.229044   3.315409
    20  C    4.174362   3.080189   2.437586   3.928486   2.694518
    21  N    5.509687   4.341485   3.698903   5.008288   3.865668
    22  C    6.375935   5.091973   4.265455   5.497355   4.825823
    23  N    5.940322   4.652798   3.659087   4.892109   4.688140
    24  C    4.762476   3.558135   2.444478   3.823361   3.843109
    25  H    3.683638   2.858320   2.551383   3.946048   2.261440
    26  H    6.126980   5.049089   4.568446   5.779465   4.393303
    27  H    6.760283   5.471252   4.458489   5.552859   5.591262
    28  O    7.583438   6.278898   5.481907   6.612366   5.960470
    29  O    4.952271   3.887846   2.774850   3.908476   4.450613
                    6          7          8          9         10
     6  O    0.000000
     7  H    2.088295   0.000000
     8  C    2.326114   2.044002   0.000000
     9  C    1.429689   2.939700   3.507763   0.000000
    10  H    3.282458   3.885934   4.497460   2.203447   0.000000
    11  O    3.111389   2.820640   4.326843   2.451612   2.088850
    12  C    2.408235   4.263129   4.245117   1.514349   2.656105
    13  H    2.061244   3.354974   4.307935   1.102217   2.794090
    14  O    2.887664   4.499484   3.954826   2.390327   2.769590
    15  H    3.346635   5.050703   5.260227   2.139275   2.636467
    16  H    2.586141   4.646454   4.473207   2.134302   3.727901
    17  H    3.699417   3.679204   5.196686   2.769512   2.295943
    18  H    3.790180   2.542304   3.681413   3.765783   3.087750
    19  H    3.728795   5.430068   4.732450   3.229856   3.529471
    20  C    2.828254   3.308592   1.373670   3.849474   4.777756
    21  N    4.100557   4.435832   2.393653   5.170160   6.066415
    22  C    4.890705   4.703190   2.819012   6.119628   7.057053
    23  N    4.494542   3.793944   2.321212   5.791565   6.760278
    24  C    3.423528   2.428133   1.394111   4.686949   5.666201
    25  H    2.563901   3.601436   2.076164   3.260518   4.120665
    26  H    4.791877   5.402255   3.380943   5.723021   6.546764
    27  H    5.336392   4.398366   3.227211   6.654071   7.617308
    28  O    6.081520   5.879228   4.035231   7.315542   8.236307
    29  O    3.813705   2.237904   2.302697   4.999494   5.939328
                   11         12         13         14         15
    11  O    0.000000
    12  C    3.747111   0.000000
    13  H    2.514424   2.128734   0.000000
    14  O    4.276559   1.420147   3.326467   0.000000
    15  H    3.912957   1.104099   2.391565   2.089033   0.000000
    16  H    4.550395   1.101625   2.470762   2.087697   1.791556
    17  H    0.960403   3.908553   2.527087   4.625965   3.819340
    18  H    2.188630   4.950856   4.276018   4.899936   5.389431
    19  H    5.171395   1.956346   4.054393   0.960637   2.357299
    20  C    5.155433   4.086263   4.788622   3.454682   5.142692
    21  N    6.475149   5.272484   6.088025   4.522517   6.331503
    22  C    7.122828   6.464675   6.947839   5.841311   7.540951
    23  N    6.434152   6.455059   6.507129   6.047202   7.511538
    24  C    5.123403   5.569461   5.335418   5.348588   6.574768
    25  H    4.867766   3.186429   4.271886   2.407620   4.214238
    26  H    7.222737   5.546264   6.672608   4.644096   6.563210
    27  H    7.115207   7.402072   7.301110   7.043036   8.451563
    28  O    8.332903   7.587039   8.139895   6.905631   8.664823
    29  O    4.967438   6.121509   5.462980   6.098565   7.049071
                   16         17         18         19         20
    16  H    0.000000
    17  H    4.700252   0.000000
    18  H    5.776069   3.050629   0.000000
    19  H    2.333545   5.442607   5.822864   0.000000
    20  C    4.217890   5.959049   4.619419   4.029868   0.000000
    21  N    5.278280   7.297565   5.741966   4.917445   1.349500
    22  C    6.453266   8.004992   6.134728   6.314391   2.421724
    23  N    6.514803   7.341392   5.361784   6.688769   2.672452
    24  C    5.729809   6.026590   4.167321   6.117889   2.416741
    25  H    3.375841   5.570734   4.660559   2.940748   1.089926
    26  H    5.488196   7.997524   6.576063   4.831426   2.130883
    27  H    7.445917   8.028378   5.933861   7.697667   3.685036
    28  O    7.519275   9.220555   7.262152   7.293287   3.567083
    29  O    6.323235   5.850692   3.978553   6.942482   3.541097
                   21         22         23         24         25
    21  N    0.000000
    22  C    1.450697   0.000000
    23  N    2.379699   1.399980   0.000000
    24  C    2.841883   2.502309   1.376832   0.000000
    25  H    2.143153   3.434260   3.758702   3.357895   0.000000
    26  H    1.085587   2.188573   3.372534   3.927368   2.507411
    27  H    3.298716   2.060373   1.012661   2.024791   4.770640
    28  O    2.386902   1.219049   2.272980   3.576212   4.510226
    29  O    4.058563   3.596607   2.276335   1.216887   4.375718
                   26         27         28         29
    26  H    0.000000
    27  H    4.213099   0.000000
    28  O    2.696296   2.468637   0.000000
    29  O    5.143965   2.462782   4.547709   0.000000
 Stoichiometry    C9H12N2O6
 Framework group  C1[X(C9H12N2O6)]
 Deg. of freedom    81
 Full point group                 C1      NOp   1
 Largest Abelian subgroup         C1      NOp   1
 Largest concise Abelian subgroup C1      NOp   1
                         Standard orientation:                         
 ---------------------------------------------------------------------
 Center     Atomic      Atomic             Coordinates (Angstroms)
 Number     Number       Type             X           Y           Z
 ---------------------------------------------------------------------
      1          6           0       -2.755205   -0.395115    0.353175
      2          6           0       -1.352061   -0.601252    0.921068
      3          6           0       -0.512324   -0.632027   -0.365376
      4          8           0       -1.195839   -1.719779    1.738387
      5          1           0       -1.080814    0.280504    1.513457
      6          8           0       -1.131458    0.289908   -1.244471
      7          1           0       -0.490248   -1.644367   -0.787957
      8          6           0        0.869076   -0.242546   -0.183734
      9          6           0       -2.490300    0.508946   -0.857717
     10          1           0       -3.435216    0.066484    1.083040
     11          8           0       -3.207356   -1.685185   -0.031873
     12          6           0       -2.719586    1.984985   -0.608739
     13          1           0       -3.141546    0.201895   -1.692273
     14          8           0       -2.001707    2.376078    0.552517
     15          1           0       -3.803028    2.155849   -0.482278
     16          1           0       -2.376387    2.542853   -1.494501
     17          1           0       -4.134221   -1.643725   -0.280021
     18          1           0       -1.664198   -2.451994    1.317485
     19          1           0       -2.121843    3.318998    0.691417
     20          6           0        1.165051    1.033706    0.229242
     21          7           0        2.427615    1.473429    0.412890
     22          6           0        3.542948    0.579664    0.164419
     23          7           0        3.145029   -0.690604   -0.269196
     24          6           0        1.870230   -1.167056   -0.477873
     25          1           0        0.293928    1.671611    0.378107
     26          1           0        2.637373    2.488056    0.736979
     27          1           0        3.886623   -1.350997   -0.467700
     28          8           0        4.726400    0.842043    0.293559
     29          8           0        1.649223   -2.294412   -0.879169
 ---------------------------------------------------------------------
 Rotational constants (GHZ):           0.8487707           0.3121226           0.2608292
 Standard basis: Aug-CC-pVDZ (5D, 7F)
 There are   533 symmetry adapted cartesian basis functions of A   symmetry.
 There are   499 symmetry adapted basis functions of A   symmetry.
   499 basis functions,   863 primitive gaussians,   533 cartesian basis functions
    64 alpha electrons       64 beta electrons
       nuclear repulsion energy      1321.0234799246 Hartrees.
 NAtoms=   29 NActive=   29 NUniq=   29 SFac= 1.00D+00 NAtFMM=   60 NAOKFM=F Big=F
 Integral buffers will be    131072 words long.
 Raffenetti 2 integral format.
 Two-electron integral symmetry is turned on.
 Nuclear repulsion after empirical dispersion term =     1321.0033525236 Hartrees.
 One-electron integrals computed using PRISM.
 NBasis=   499 RedAO= T EigKep=  2.65D-06  NBF=   499
 NBsUse=   499 1.00D-06 EigRej= -1.00D+00 NBFU=   499
 ExpMin= 2.97D-02 ExpMax= 1.17D+04 ExpMxC= 4.01D+02 IAcc=3 IRadAn=         5 AccDes= 0.00D+00
 Harris functional with IExCor= 1009 and IRadAn=       5 diagonalized for initial guess.
 HarFok:  IExCor= 1009 AccDes= 0.00D+00 IRadAn=         5 IDoV= 1 UseB2=F ITyADJ=14
 ICtDFT=  3500011 ScaDFX=  1.000000  1.000000  1.000000  1.000000
 FoFCou: FMM=F IPFlag=           0 FMFlag=      100000 FMFlg1=           0
         NFxFlg=           0 DoJE=T BraDBF=F KetDBF=T FulRan=T
         wScrn=  0.000000 ICntrl=       500 IOpCl=  0 I1Cent=   200000004 NGrid=           0
         NMat0=    1 NMatS0=      1 NMatT0=    0 NMatD0=    1 NMtDS0=    0 NMtDT0=    0
 Petite list used in FoFCou.
 Requested convergence on RMS density matrix=1.00D-08 within 128 cycles.
 Requested convergence on MAX density matrix=1.00D-06.
 Requested convergence on             energy=1.00D-06.
 No special actions if energy rises.
 SCF Done:  E(RPBE1PBE) =  -910.200574734     A.U. after   14 cycles
            NFock= 14  Conv=0.96D-08     -V/T= 2.0053

 **********************************************************************

            Population analysis using the SCF Density.

 **********************************************************************

 Orbital symmetries:
       Occupied  (A) (A) (A) (A) (A) (A) (A) (A) (A) (A) (A) (A)
                 (A) (A) (A) (A) (A) (A) (A) (A) (A) (A) (A) (A)
                 (A) (A) (A) (A) (A) (A) (A) (A) (A) (A) (A) (A)
                 (A) (A) (A) (A) (A) (A) (A) (A) (A) (A) (A) (A)
                 (A) (A) (A) (A) (A) (A) (A) (A) (A) (A) (A) (A)
                 (A) (A) (A) (A)
       Virtual   (A) (A) (A) (A) (A) (A) (A) (A) (A) (A) (A) (A)
                 (A) (A) (A) (A) (A) (A) (A) (A) (A) (A) (A) (A)
                 (A) (A) (A) (A) (A) (A) (A) (A) (A) (A) (A) (A)
                 (A) (A) (A) (A) (A) (A) (A) (A) (A) (A) (A) (A)
                 (A) (A) (A) (A) (A) (A) (A) (A) (A) (A) (A) (A)
                 (A) (A) (A) (A) (A) (A) (A) (A) (A) (A) (A) (A)
                 (A) (A) (A) (A) (A) (A) (A) (A) (A) (A) (A) (A)
                 (A) (A) (A) (A) (A) (A) (A) (A) (A) (A) (A) (A)
                 (A) (A) (A) (A) (A) (A) (A) (A) (A) (A) (A) (A)
                 (A) (A) (A) (A) (A) (A) (A) (A) (A) (A) (A) (A)
                 (A) (A) (A) (A) (A) (A) (A) (A) (A) (A) (A) (A)
                 (A) (A) (A) (A) (A) (A) (A) (A) (A) (A) (A) (A)
                 (A) (A) (A) (A) (A) (A) (A) (A) (A) (A) (A) (A)
                 (A) (A) (A) (A) (A) (A) (A) (A) (A) (A) (A) (A)
                 (A) (A) (A) (A) (A) (A) (A) (A) (A) (A) (A) (A)
                 (A) (A) (A) (A) (A) (A) (A) (A) (A) (A) (A) (A)
                 (A) (A) (A) (A) (A) (A) (A) (A) (A) (A) (A) (A)
                 (A) (A) (A) (A) (A) (A) (A) (A) (A) (A) (A) (A)
                 (A) (A) (A) (A) (A) (A) (A) (A) (A) (A) (A) (A)
                 (A) (A) (A) (A) (A) (A) (A) (A) (A) (A) (A) (A)
                 (A) (A) (A) (A) (A) (A) (A) (A) (A) (A) (A) (A)
                 (A) (A) (A) (A) (A) (A) (A) (A) (A) (A) (A) (A)
                 (A) (A) (A) (A) (A) (A) (A) (A) (A) (A) (A) (A)
                 (A) (A) (A) (A) (A) (A) (A) (A) (A) (A) (A) (A)
                 (A) (A) (A) (A) (A) (A) (A) (A) (A) (A) (A) (A)
                 (A) (A) (A) (A) (A) (A) (A) (A) (A) (A) (A) (A)
                 (A) (A) (A) (A) (A) (A) (A) (A) (A) (A) (A) (A)
                 (A) (A) (A) (A) (A) (A) (A) (A) (A) (A) (A) (A)
                 (A) (A) (A) (A) (A) (A) (A) (A) (A) (A) (A) (A)
                 (A) (A) (A) (A) (A) (A) (A) (A) (A) (A) (A) (A)
                 (A) (A) (A) (A) (A) (A) (A) (A) (A) (A) (A) (A)
                 (A) (A) (A) (A) (A) (A) (A) (A) (A) (A) (A) (A)
                 (A) (A) (A) (A) (A) (A) (A) (A) (A) (A) (A) (A)
                 (A) (A) (A) (A) (A) (A) (A) (A) (A) (A) (A) (A)
                 (A) (A) (A) (A) (A) (A) (A) (A) (A) (A) (A) (A)
                 (A) (A) (A) (A) (A) (A) (A) (A) (A) (A) (A) (A)
                 (A) (A) (A)
 The electronic state is 1-A.
 Alpha  occ. eigenvalues --  -19.25802 -19.24996 -19.23505 -19.22593 -19.21726
 Alpha  occ. eigenvalues --  -19.19008 -14.48444 -14.45200 -10.39853 -10.33396
 Alpha  occ. eigenvalues --  -10.30690 -10.30209 -10.29809 -10.29733 -10.28495
 Alpha  occ. eigenvalues --  -10.27407 -10.23432  -1.11155  -1.10398  -1.08669
 Alpha  occ. eigenvalues --   -1.07690  -1.07068  -1.05649  -1.01055  -0.95719
 Alpha  occ. eigenvalues --   -0.84958  -0.81286  -0.77893  -0.72180  -0.70122
 Alpha  occ. eigenvalues --   -0.68230  -0.64200  -0.62606  -0.59731  -0.58294
 Alpha  occ. eigenvalues --   -0.57729  -0.56648  -0.53887  -0.52637  -0.50544
 Alpha  occ. eigenvalues --   -0.49806  -0.48633  -0.48299  -0.47413  -0.46151
 Alpha  occ. eigenvalues --   -0.45816  -0.44711  -0.43556  -0.42437  -0.41909
 Alpha  occ. eigenvalues --   -0.40942  -0.38935  -0.38659  -0.38251  -0.37083
 Alpha  occ. eigenvalues --   -0.34390  -0.32615  -0.31666  -0.31174  -0.30101
 Alpha  occ. eigenvalues --   -0.29176  -0.28649  -0.27039  -0.24128
 Alpha virt. eigenvalues --   -0.04310  -0.02629  -0.01527  -0.00617   0.00282
 Alpha virt. eigenvalues --    0.00544   0.01899   0.01930   0.02992   0.03214
 Alpha virt. eigenvalues --    0.03443   0.04328   0.05121   0.05287   0.06188
 Alpha virt. eigenvalues --    0.06411   0.06520   0.07254   0.07858   0.08088
 Alpha virt. eigenvalues --    0.08238   0.08646   0.08920   0.09448   0.10239
 Alpha virt. eigenvalues --    0.10466   0.10699   0.10904   0.11192   0.11376
 Alpha virt. eigenvalues --    0.11596   0.11861   0.12331   0.12959   0.13008
 Alpha virt. eigenvalues --    0.13423   0.13941   0.13999   0.14162   0.14801
 Alpha virt. eigenvalues --    0.15179   0.15309   0.15337   0.15727   0.16240
 Alpha virt. eigenvalues --    0.17174   0.17386   0.17665   0.18325   0.18862
 Alpha virt. eigenvalues --    0.19098   0.19288   0.19776   0.20226   0.20439
 Alpha virt. eigenvalues --    0.20827   0.21192   0.21685   0.22084   0.22247
 Alpha virt. eigenvalues --    0.23167   0.23260   0.23537   0.23888   0.24584
 Alpha virt. eigenvalues --    0.24956   0.25260   0.25537   0.25820   0.26292
 Alpha virt. eigenvalues --    0.26510   0.26955   0.27206   0.27579   0.27669
 Alpha virt. eigenvalues --    0.27999   0.28464   0.28658   0.28811   0.29735
 Alpha virt. eigenvalues --    0.30007   0.30233   0.30787   0.30990   0.31157
 Alpha virt. eigenvalues --    0.31299   0.31962   0.32556   0.32694   0.33072
 Alpha virt. eigenvalues --    0.33185   0.33793   0.34182   0.34745   0.35227
 Alpha virt. eigenvalues --    0.35664   0.36067   0.36437   0.36717   0.37127
 Alpha virt. eigenvalues --    0.37606   0.38026   0.38742   0.38860   0.39228
 Alpha virt. eigenvalues --    0.39914   0.40250   0.40699   0.40901   0.41384
 Alpha virt. eigenvalues --    0.41828   0.42401   0.42979   0.43340   0.44075
 Alpha virt. eigenvalues --    0.44720   0.45283   0.45732   0.45991   0.46680
 Alpha virt. eigenvalues --    0.46958   0.47476   0.47783   0.48819   0.49334
 Alpha virt. eigenvalues --    0.49917   0.50486   0.51078   0.51689   0.51937
 Alpha virt. eigenvalues --    0.52700   0.53031   0.53631   0.53775   0.54413
 Alpha virt. eigenvalues --    0.55257   0.56190   0.56656   0.57092   0.57296
 Alpha virt. eigenvalues --    0.58177   0.58526   0.59011   0.59409   0.59637
 Alpha virt. eigenvalues --    0.60632   0.60720   0.61231   0.61832   0.62512
 Alpha virt. eigenvalues --    0.63602   0.63650   0.64021   0.64720   0.65171
 Alpha virt. eigenvalues --    0.65744   0.65958   0.66826   0.67342   0.67614
 Alpha virt. eigenvalues --    0.68065   0.68556   0.68819   0.69216   0.69992
 Alpha virt. eigenvalues --    0.70382   0.70516   0.71697   0.72177   0.72785
 Alpha virt. eigenvalues --    0.73077   0.73117   0.73872   0.74418   0.74972
 Alpha virt. eigenvalues --    0.75160   0.75870   0.76735   0.77449   0.78021
 Alpha virt. eigenvalues --    0.78463   0.79372   0.80056   0.80392   0.80702
 Alpha virt. eigenvalues --    0.81943   0.82891   0.83271   0.84454   0.85021
 Alpha virt. eigenvalues --    0.85404   0.85867   0.87531   0.87976   0.88217
 Alpha virt. eigenvalues --    0.89063   0.90105   0.90789   0.91970   0.92797
 Alpha virt. eigenvalues --    0.93370   0.93652   0.94660   0.95022   0.96058
 Alpha virt. eigenvalues --    0.96738   0.97208   0.97351   0.98023   0.98724
 Alpha virt. eigenvalues --    1.00596   1.01356   1.03108   1.03151   1.04421
 Alpha virt. eigenvalues --    1.04943   1.05989   1.06740   1.07701   1.08035
 Alpha virt. eigenvalues --    1.08544   1.09838   1.11051   1.11418   1.12018
 Alpha virt. eigenvalues --    1.12626   1.13743   1.15023   1.15507   1.16921
 Alpha virt. eigenvalues --    1.17753   1.18651   1.19015   1.19477   1.20940
 Alpha virt. eigenvalues --    1.21660   1.22346   1.23918   1.24553   1.25422
 Alpha virt. eigenvalues --    1.25683   1.27047   1.28040   1.29580   1.30230
 Alpha virt. eigenvalues --    1.30655   1.31784   1.33161   1.34568   1.34972
 Alpha virt. eigenvalues --    1.35368   1.36537   1.37441   1.39603   1.40487
 Alpha virt. eigenvalues --    1.41058   1.42049   1.43046   1.43618   1.44170
 Alpha virt. eigenvalues --    1.46322   1.46786   1.47474   1.49251   1.49980
 Alpha virt. eigenvalues --    1.51290   1.52075   1.52764   1.54284   1.55072
 Alpha virt. eigenvalues --    1.56471   1.57005   1.57743   1.58175   1.58800
 Alpha virt. eigenvalues --    1.59613   1.61435   1.61657   1.63466   1.64141
 Alpha virt. eigenvalues --    1.64873   1.66522   1.67386   1.69312   1.70126
 Alpha virt. eigenvalues --    1.71481   1.72480   1.74139   1.74331   1.74681
 Alpha virt. eigenvalues --    1.75768   1.76922   1.77688   1.79113   1.79539
 Alpha virt. eigenvalues --    1.80978   1.81189   1.82411   1.83014   1.84514
 Alpha virt. eigenvalues --    1.86356   1.86432   1.87134   1.87566   1.88412
 Alpha virt. eigenvalues --    1.90276   1.91103   1.92391   1.93732   1.94631
 Alpha virt. eigenvalues --    1.95987   1.96222   1.96655   1.98090   1.98846
 Alpha virt. eigenvalues --    1.99188   1.99823   2.01438   2.02786   2.03427
 Alpha virt. eigenvalues --    2.03833   2.05798   2.06456   2.07130   2.09862
 Alpha virt. eigenvalues --    2.10091   2.10665   2.11266   2.12858   2.14099
 Alpha virt. eigenvalues --    2.14688   2.15167   2.16064   2.17849   2.18112
 Alpha virt. eigenvalues --    2.19614   2.20627   2.22465   2.23140   2.24529
 Alpha virt. eigenvalues --    2.26464   2.26798   2.27655   2.28941   2.30701
 Alpha virt. eigenvalues --    2.31131   2.32514   2.32941   2.34597   2.37210
 Alpha virt. eigenvalues --    2.38937   2.40147   2.41827   2.42830   2.43154
 Alpha virt. eigenvalues --    2.44137   2.44516   2.46283   2.47575   2.49333
 Alpha virt. eigenvalues --    2.50215   2.50486   2.51678   2.52150   2.55236
 Alpha virt. eigenvalues --    2.56336   2.57264   2.58443   2.59663   2.60462
 Alpha virt. eigenvalues --    2.62730   2.65235   2.66688   2.69748   2.71739
 Alpha virt. eigenvalues --    2.73903   2.74741   2.75827   2.81341   2.81768
 Alpha virt. eigenvalues --    2.84248   2.84807   2.86583   2.88717   2.91615
 Alpha virt. eigenvalues --    2.92279   2.94467   2.95420   2.97706   3.00700
 Alpha virt. eigenvalues --    3.05371   3.14139   3.15354   3.18330   3.21122
 Alpha virt. eigenvalues --    3.25465   3.28753   3.32064   3.36329   3.39680
 Alpha virt. eigenvalues --    3.41963   3.42756   3.45126   3.45481   3.46864
 Alpha virt. eigenvalues --    3.47649   3.48579   3.49434   3.50559   3.51324
 Alpha virt. eigenvalues --    3.53075   3.55313   3.56369   3.57023   3.59534
 Alpha virt. eigenvalues --    3.60077   3.62580   3.64185   3.64629   3.69311
 Alpha virt. eigenvalues --    3.69593   3.70734   3.72544   3.77292   3.77962
 Alpha virt. eigenvalues --    3.82546   3.85272   3.90344   3.93975   4.00597
 Alpha virt. eigenvalues --    4.04211   4.11878   4.14979   4.44893   4.59714
          Condensed to atoms (all electrons):
               1          2          3          4          5          6
     1  C    9.179452  -2.053116  -0.437911   0.074729   0.014655   0.229024
     2  C   -2.053116   9.107262  -0.971703  -0.367425  -0.212658  -0.284649
     3  C   -0.437911  -0.971703  21.604319   0.175237  -0.589689  -0.702171
     4  O    0.074729  -0.367425   0.175237   8.568991  -0.172759  -0.000688
     5  H    0.014655  -0.212658  -0.589689  -0.172759   2.152472   0.035383
     6  O    0.229024  -0.284649  -0.702171  -0.000688   0.035383   9.490259
     7  H   -0.112260   0.371674  -2.422252  -0.010492   0.119994   0.025640
     8  C    0.630815  -0.350609  -5.651187  -0.005235   0.225465   0.183083
     9  C   -1.552092   0.734336  -2.842838  -0.017321  -0.015017   0.163659
    10  H   -1.071598   0.386101   0.195118   0.026247  -0.120261  -0.006197
    11  O   -0.435638  -0.024170   0.086597  -0.025427   0.038986   0.019463
    12  C   -0.143429   0.055402   0.485339  -0.025481   0.070844  -0.078453
    13  H   -0.034602   0.151188   0.697174   0.002627  -0.009950  -0.334092
    14  O    0.027959  -0.067106  -0.004820   0.008522  -0.007307  -0.007408
    15  H    0.010526   0.002467  -0.003713  -0.001779   0.013543   0.084816
    16  H    0.043829   0.008953   0.000261  -0.000979  -0.001995  -0.012236
    17  H    0.045190  -0.031022  -0.019550   0.004923   0.002729   0.004055
    18  H    0.036350  -0.134556   0.009322   0.319357   0.044748   0.006623
    19  H   -0.014370   0.010750   0.004662  -0.000652   0.000893  -0.010299
    20  C    0.131719  -0.716863  -2.846947   0.074176  -0.215530  -0.040296
    21  N   -0.029265   0.067060   0.520153  -0.005810   0.011815   0.014335
    22  C    0.009476  -0.070960  -0.678801   0.007308  -0.004969   0.004041
    23  N    0.014191  -0.072309  -0.038354   0.000903  -0.010517  -0.014489
    24  C    0.043445  -0.028706  -1.431774   0.005175   0.071548  -0.009476
    25  H    0.117081  -0.054192  -0.197329   0.001871   0.012383   0.062915
    26  H    0.000719  -0.003752  -0.020086  -0.000020  -0.001740  -0.002700
    27  H   -0.002758   0.006815  -0.006674  -0.000152   0.001627   0.001204
    28  O   -0.001220   0.002459   0.019807  -0.000103   0.000705   0.000378
    29  O    0.016366  -0.034464   0.103038   0.004165  -0.005877   0.006890
               7          8          9         10         11         12
     1  C   -0.112260   0.630815  -1.552092  -1.071598  -0.435638  -0.143429
     2  C    0.371674  -0.350609   0.734336   0.386101  -0.024170   0.055402
     3  C   -2.422252  -5.651187  -2.842838   0.195118   0.086597   0.485339
     4  O   -0.010492  -0.005235  -0.017321   0.026247  -0.025427  -0.025481
     5  H    0.119994   0.225465  -0.015017  -0.120261   0.038986   0.070844
     6  O    0.025640   0.183083   0.163659  -0.006197   0.019463  -0.078453
     7  H    2.925260   0.822415   0.068709  -0.011169  -0.008877  -0.014043
     8  C    0.822415  16.224977   0.405693  -0.120171  -0.034760  -0.239371
     9  C    0.068709   0.405693   9.593096   0.179769   0.133201  -0.249557
    10  H   -0.011169  -0.120171   0.179769   2.087256  -0.075654  -0.160376
    11  O   -0.008877  -0.034760   0.133201  -0.075654   8.683624  -0.001941
    12  C   -0.014043  -0.239371  -0.249557  -0.160376  -0.001941   5.280025
    13  H   -0.000123  -0.246509  -0.951658   0.096274  -0.001980  -0.024325
    14  O    0.004018   0.039966  -0.198369   0.034201   0.005896   0.179505
    15  H   -0.002075   0.028583  -0.067699  -0.043844   0.001778   0.239804
    16  H    0.001280  -0.016072   0.085968   0.021253   0.000170  -0.049732
    17  H    0.007292   0.027163  -0.041585  -0.084526   0.379404  -0.003827
    18  H   -0.012363  -0.011766  -0.001916  -0.003082   0.019321   0.004223
    19  H   -0.000520   0.003108   0.061975  -0.007805  -0.000206  -0.055531
    20  C    0.053943  -2.799029  -0.240880   0.021977   0.002082  -0.170556
    21  N   -0.018494  -0.123531   0.036635  -0.000606  -0.000097   0.002503
    22  C    0.014007   0.197183   0.009175   0.000733   0.000097  -0.027051
    23  N   -0.014014   0.039651  -0.021468   0.000387   0.000498   0.000207
    24  C    0.072315  -4.140799  -0.063047   0.006848  -0.001892   0.004793
    25  H    0.022148  -0.212010  -0.064637   0.004006   0.001384  -0.002491
    26  H   -0.000976   0.026664  -0.000792   0.000039   0.000016  -0.001697
    27  H    0.001740   0.124756   0.000946  -0.000005   0.000057  -0.000284
    28  O    0.000593   0.019408   0.000321  -0.000083  -0.000000   0.000681
    29  O   -0.075554  -0.162414  -0.014466   0.000618  -0.000347  -0.001548
              13         14         15         16         17         18
     1  C   -0.034602   0.027959   0.010526   0.043829   0.045190   0.036350
     2  C    0.151188  -0.067106   0.002467   0.008953  -0.031022  -0.134556
     3  C    0.697174  -0.004820  -0.003713   0.000261  -0.019550   0.009322
     4  O    0.002627   0.008522  -0.001779  -0.000979   0.004923   0.319357
     5  H   -0.009950  -0.007307   0.013543  -0.001995   0.002729   0.044748
     6  O   -0.334092  -0.007408   0.084816  -0.012236   0.004055   0.006623
     7  H   -0.000123   0.004018  -0.002075   0.001280   0.007292  -0.012363
     8  C   -0.246509   0.039966   0.028583  -0.016072   0.027163  -0.011766
     9  C   -0.951658  -0.198369  -0.067699   0.085968  -0.041585  -0.001916
    10  H    0.096274   0.034201  -0.043844   0.021253  -0.084526  -0.003082
    11  O   -0.001980   0.005896   0.001778   0.000170   0.379404   0.019321
    12  C   -0.024325   0.179505   0.239804  -0.049732  -0.003827   0.004223
    13  H    2.284593   0.055745  -0.142932  -0.003200  -0.025400  -0.001597
    14  O    0.055745   8.351302  -0.175695  -0.036254  -0.000578  -0.001229
    15  H   -0.142932  -0.175695   1.577433  -0.264271   0.006220   0.000330
    16  H   -0.003200  -0.036254  -0.264271   1.460527  -0.001408   0.000116
    17  H   -0.025400  -0.000578   0.006220  -0.001408   0.609117  -0.003602
    18  H   -0.001597  -0.001229   0.000330   0.000116  -0.003602   0.644600
    19  H    0.004797   0.369355  -0.006128  -0.049015  -0.000025   0.000045
    20  C   -0.010624   0.009203  -0.031930   0.057373   0.001553  -0.008069
    21  N    0.001354  -0.006998   0.000406  -0.003050  -0.000319   0.000862
    22  C   -0.001030  -0.003543  -0.001303  -0.000096   0.000241  -0.000566
    23  N   -0.001091   0.000512   0.000022   0.000045   0.000037   0.000294
    24  C    0.012446  -0.000978  -0.001575  -0.002888   0.000334  -0.004700
    25  H   -0.012929   0.001383   0.004652   0.014360   0.000711  -0.001472
    26  H   -0.000035   0.000445  -0.000216  -0.000088   0.000009  -0.000029
    27  H    0.000118  -0.000062  -0.000027   0.000034  -0.000018   0.000034
    28  O    0.000030   0.000167   0.000037   0.000065  -0.000007   0.000036
    29  O   -0.000464   0.000166  -0.000173   0.000015  -0.000100  -0.001470
              19         20         21         22         23         24
     1  C   -0.014370   0.131719  -0.029265   0.009476   0.014191   0.043445
     2  C    0.010750  -0.716863   0.067060  -0.070960  -0.072309  -0.028706
     3  C    0.004662  -2.846947   0.520153  -0.678801  -0.038354  -1.431774
     4  O   -0.000652   0.074176  -0.005810   0.007308   0.000903   0.005175
     5  H    0.000893  -0.215530   0.011815  -0.004969  -0.010517   0.071548
     6  O   -0.010299  -0.040296   0.014335   0.004041  -0.014489  -0.009476
     7  H   -0.000520   0.053943  -0.018494   0.014007  -0.014014   0.072315
     8  C    0.003108  -2.799029  -0.123531   0.197183   0.039651  -4.140799
     9  C    0.061975  -0.240880   0.036635   0.009175  -0.021468  -0.063047
    10  H   -0.007805   0.021977  -0.000606   0.000733   0.000387   0.006848
    11  O   -0.000206   0.002082  -0.000097   0.000097   0.000498  -0.001892
    12  C   -0.055531  -0.170556   0.002503  -0.027051   0.000207   0.004793
    13  H    0.004797  -0.010624   0.001354  -0.001030  -0.001091   0.012446
    14  O    0.369355   0.009203  -0.006998  -0.003543   0.000512  -0.000978
    15  H   -0.006128  -0.031930   0.000406  -0.001303   0.000022  -0.001575
    16  H   -0.049015   0.057373  -0.003050  -0.000096   0.000045  -0.002888
    17  H   -0.000025   0.001553  -0.000319   0.000241   0.000037   0.000334
    18  H    0.000045  -0.008069   0.000862  -0.000566   0.000294  -0.004700
    19  H    0.580060  -0.029247   0.001838  -0.002052  -0.000102   0.001135
    20  C   -0.029247  15.125416  -0.950579  -0.166030   0.522608  -2.251330
    21  N    0.001838  -0.950579   8.028744  -0.054074  -0.048510  -0.036322
    22  C   -0.002052  -0.166030  -0.054074   6.643923  -0.134084  -0.198927
    23  N   -0.000102   0.522608  -0.048510  -0.134084   7.346025  -0.402145
    24  C    0.001135  -2.251330  -0.036322  -0.198927  -0.402145  13.716753
    25  H   -0.013349  -0.378765  -0.021359  -0.085058  -0.003749   0.139721
    26  H   -0.000109  -0.165932   0.414728  -0.108999   0.010604  -0.045074
    27  H   -0.000025  -0.095251   0.031944  -0.189176   0.381229  -0.209488
    28  O    0.000024   0.152667  -0.119457   0.019332  -0.101044   0.001884
    29  O   -0.000017  -0.031042   0.011962   0.002066  -0.097909   0.222049
              25         26         27         28         29
     1  C    0.117081   0.000719  -0.002758  -0.001220   0.016366
     2  C   -0.054192  -0.003752   0.006815   0.002459  -0.034464
     3  C   -0.197329  -0.020086  -0.006674   0.019807   0.103038
     4  O    0.001871  -0.000020  -0.000152  -0.000103   0.004165
     5  H    0.012383  -0.001740   0.001627   0.000705  -0.005877
     6  O    0.062915  -0.002700   0.001204   0.000378   0.006890
     7  H    0.022148  -0.000976   0.001740   0.000593  -0.075554
     8  C   -0.212010   0.026664   0.124756   0.019408  -0.162414
     9  C   -0.064637  -0.000792   0.000946   0.000321  -0.014466
    10  H    0.004006   0.000039  -0.000005  -0.000083   0.000618
    11  O    0.001384   0.000016   0.000057  -0.000000  -0.000347
    12  C   -0.002491  -0.001697  -0.000284   0.000681  -0.001548
    13  H   -0.012929  -0.000035   0.000118   0.000030  -0.000464
    14  O    0.001383   0.000445  -0.000062   0.000167   0.000166
    15  H    0.004652  -0.000216  -0.000027   0.000037  -0.000173
    16  H    0.014360  -0.000088   0.000034   0.000065   0.000015
    17  H    0.000711   0.000009  -0.000018  -0.000007  -0.000100
    18  H   -0.001472  -0.000029   0.000034   0.000036  -0.001470
    19  H   -0.013349  -0.000109  -0.000025   0.000024  -0.000017
    20  C   -0.378765  -0.165932  -0.095251   0.152667  -0.031042
    21  N   -0.021359   0.414728   0.031944  -0.119457   0.011962
    22  C   -0.085058  -0.108999  -0.189176   0.019332   0.002066
    23  N   -0.003749   0.010604   0.381229  -0.101044  -0.097909
    24  C    0.139721  -0.045074  -0.209488   0.001884   0.222049
    25  H    2.277874   0.014383  -0.004658   0.000363  -0.004716
    26  H    0.014383   0.856926  -0.004190   0.004851   0.002280
    27  H   -0.004658  -0.004190   1.043287  -0.003034  -0.034462
    28  O    0.000363   0.004851  -0.003034   8.569326   0.000134
    29  O   -0.004716   0.002280  -0.034462   0.000134   8.833466
 Mulliken charges:
               1
     1  C    1.262732
     2  C    0.573793
     3  C    0.964771
     4  O   -0.639908
     5  H   -0.449522
     6  O   -0.828613
     7  H   -0.807816
     8  C    1.114534
     9  C    0.869860
    10  H   -0.355450
    11  O   -0.761583
    12  C    0.926365
    13  H   -0.503805
    14  O   -0.578000
    15  H   -0.227258
    16  H   -0.252965
    17  H    0.122990
    18  H    0.100156
    19  H    0.150810
    20  C    0.996181
    21  N   -0.725866
    22  C    0.819137
    23  N   -0.357428
    24  C    0.530674
    25  H   -0.618522
    26  H    0.024770
    27  H   -0.043526
    28  O   -0.568319
    29  O   -0.738192
 Sum of Mulliken charges =  -0.00000
 Mulliken charges with hydrogens summed into heavy atoms:
               1
     1  C    0.907282
     2  C    0.124271
     3  C    0.156955
     4  O   -0.539752
     6  O   -0.828613
     8  C    1.114534
     9  C    0.366055
    11  O   -0.638593
    12  C    0.446142
    14  O   -0.427190
    20  C    0.377659
    21  N   -0.701096
    22  C    0.819137
    23  N   -0.400953
    24  C    0.530674
    28  O   -0.568319
    29  O   -0.738192
 Electronic spatial extent (au):  <R**2>=           4184.6119
 Charge=             -0.0000 electrons
 Dipole moment (field-independent basis, Debye):
    X=             -5.9057    Y=              5.7404    Z=              0.2075  Tot=              8.2384
 Quadrupole moment (field-independent basis, Debye-Ang):
   XX=            -94.1641   YY=            -90.3841   ZZ=           -104.8963
   XY=             -3.2204   XZ=              2.9433   YZ=              1.7863
 Traceless Quadrupole moment (field-independent basis, Debye-Ang):
   XX=              2.3174   YY=              6.0974   ZZ=             -8.4148
   XY=             -3.2204   XZ=              2.9433   YZ=              1.7863
 Octapole moment (field-independent basis, Debye-Ang**2):
  XXX=           -192.2655  YYY=             69.1982  ZZZ=             -4.2690  XYY=            -24.7146
  XXY=            -25.1404  XXZ=            -20.8665  XZZ=             -0.4050  YZZ=             11.1221
  YYZ=             16.9012  XYZ=             -1.7103
 Hexadecapole moment (field-independent basis, Debye-Ang**3):
 XXXX=          -3867.7118 YYYY=          -1006.3759 ZZZZ=           -458.6077 XXXY=           -155.9627
 XXXZ=            -34.7509 YYYX=             15.9989 YYYZ=              9.0610 ZZZX=              9.7742
 ZZZY=             18.2897 XXYY=           -711.9109 XXZZ=           -675.4517 YYZZ=           -274.9177
 XXYZ=             11.0110 YYXZ=             18.5750 ZZXY=              2.5399
 N-N= 1.321003352524D+03 E-N=-4.775102461590D+03  KE= 9.054328507019D+02
 Calling FoFJK, ICntrl=      2127 FMM=F ISym2X=0 I1Cent= 0 IOpClX= 0 NMat=1 NMatS=1 NMatT=0.
 ***** Axes restored to original set *****
 -------------------------------------------------------------------
 Center     Atomic                   Forces (Hartrees/Bohr)
 Number     Number              X              Y              Z
 -------------------------------------------------------------------
      1        6          -0.000871913    0.000313494    0.000059528
      2        6          -0.002740751   -0.001333701   -0.003089577
      3        6          -0.017081697   -0.008211013    0.000874478
      4        8          -0.000982005   -0.000724606    0.002059415
      5        1          -0.000223919   -0.000449144    0.000315214
      6        8          -0.012348170    0.007038437   -0.003124347
      7        1          -0.007038943   -0.002423238   -0.000666857
      8        6           0.000447734    0.051561753    0.018494625
      9        6           0.001390441   -0.002332361   -0.001663604
     10        1          -0.000715972   -0.000033428    0.000196240
     11        8          -0.001005413   -0.000496208    0.000006095
     12        6          -0.000876714   -0.001010348   -0.000955846
     13        1          -0.001258060    0.000160885   -0.000057307
     14        8           0.001156968    0.001335839    0.000962648
     15        1           0.000005130    0.000364984    0.000299420
     16        1           0.000135920    0.000046219    0.000014101
     17        1           0.000258889    0.000226754   -0.000042081
     18        1           0.000332718    0.000494555   -0.000489988
     19        1          -0.000489874   -0.000205099   -0.000147537
     20        6          -0.017091656   -0.026744870   -0.009046718
     21        7           0.046325920    0.025252383    0.008842269
     22        6          -0.007638013   -0.001450478   -0.001274080
     23        7           0.012917926    0.015426618    0.005242747
     24        6           0.009288091   -0.013219705   -0.001981454
     25        1           0.006925259    0.010872486    0.003514039
     26        1          -0.005943152   -0.052417241   -0.016865875
     27        1           0.003997860    0.003614402    0.001303191
     28        8          -0.017945674    0.010769126    0.003039575
     29        8           0.011069072   -0.016426494   -0.005818314
 -------------------------------------------------------------------
 Cartesian Forces:  Max     0.052417241 RMS     0.012004065

 GradGradGradGradGradGradGradGradGradGradGradGradGradGradGradGradGradGrad
 Berny optimization.
 FormGI is forming the generalized inverse of G from B-inverse, IUseBI=4.
 Internal  Forces:  Max     0.055207989 RMS     0.009134791
 Search for a local minimum.
 Step number   1 out of a maximum of  173
 All quantities printed in internal units (Hartrees-Bohrs-Radians)
 Mixed Optimization -- RFO/linear search
 Second derivative matrix not updated -- first step.
 ITU=  0
     Eigenvalues ---    0.00523   0.00576   0.00854   0.01296   0.01425
     Eigenvalues ---    0.01425   0.01471   0.01561   0.01740   0.01770
     Eigenvalues ---    0.01842   0.01959   0.02038   0.02086   0.02321
     Eigenvalues ---    0.02397   0.03110   0.03713   0.04368   0.04982
     Eigenvalues ---    0.05148   0.05362   0.05388   0.05654   0.05926
     Eigenvalues ---    0.06185   0.06219   0.07059   0.07747   0.08441
     Eigenvalues ---    0.09903   0.11066   0.13259   0.13690   0.15997
     Eigenvalues ---    0.15999   0.16000   0.16000   0.16000   0.16000
     Eigenvalues ---    0.16100   0.16855   0.18457   0.20128   0.22044
     Eigenvalues ---    0.22359   0.23425   0.24587   0.24983   0.25000
     Eigenvalues ---    0.25000   0.26198   0.28448   0.28549   0.30917
     Eigenvalues ---    0.33233   0.33438   0.33503   0.33773   0.33991
     Eigenvalues ---    0.34088   0.34821   0.35328   0.37099   0.38680
     Eigenvalues ---    0.39059   0.40910   0.42430   0.42438   0.43135
     Eigenvalues ---    0.45254   0.45530   0.46612   0.47807   0.49644
     Eigenvalues ---    0.53926   0.54257   0.55337   0.55387   0.95806
     Eigenvalues ---    0.96776
 RFO step:  Lambda=-3.56112280D-02 EMin= 5.22805697D-03
 Linear search not attempted -- first point.
 Maximum step size (   0.300) exceeded in Quadratic search.
    -- Step size scaled by   0.959
 Iteration  1 RMS(Cart)=  0.06914087 RMS(Int)=  0.00121595
 Iteration  2 RMS(Cart)=  0.00157900 RMS(Int)=  0.00020141
 Iteration  3 RMS(Cart)=  0.00000129 RMS(Int)=  0.00020141
 Iteration  4 RMS(Cart)=  0.00000000 RMS(Int)=  0.00020141
 Variable       Old X    -DE/DX   Delta X   Delta X   Delta X     New X
                                 (Linear)    (Quad)   (Total)
    R1        2.88690   0.00199   0.00000   0.00497   0.00495   2.89185
    R2        2.89921  -0.00051   0.00000  -0.00454  -0.00471   2.89451
    R3        2.07715   0.00056   0.00000   0.00144   0.00144   2.07859
    R4        2.68380   0.00049   0.00000   0.00102   0.00102   2.68481
    R5        2.90369   0.00312   0.00000   0.01043   0.01058   2.91428
    R6        2.63447   0.00102   0.00000   0.00196   0.00196   2.63643
    R7        2.07181  -0.00024   0.00000  -0.00062  -0.00062   2.07119
    R8        2.67655   0.01208   0.00000   0.02690   0.02701   2.70355
    R9        2.07345   0.00230   0.00000   0.00587   0.00587   2.07931
   R10        2.73388   0.04304   0.00000   0.09767   0.09767   2.83155
   R11        1.82499  -0.00032   0.00000  -0.00053  -0.00053   1.82446
   R12        2.70172  -0.00112   0.00000  -0.00243  -0.00251   2.69921
   R13        2.59586  -0.01506   0.00000  -0.02499  -0.02459   2.57127
   R14        2.63449   0.04983   0.00000   0.09982   0.09982   2.73431
   R15        2.86171   0.00056   0.00000   0.00155   0.00155   2.86325
   R16        2.08289   0.00074   0.00000   0.00191   0.00191   2.08480
   R17        1.81490  -0.00023   0.00000  -0.00037  -0.00037   1.81452
   R18        2.68369   0.00131   0.00000   0.00274   0.00274   2.68643
   R19        2.08644   0.00008   0.00000   0.00021   0.00021   2.08666
   R20        2.08177   0.00005   0.00000   0.00014   0.00014   2.08191
   R21        1.81534  -0.00016   0.00000  -0.00026  -0.00026   1.81508
   R22        2.55019   0.01170   0.00000   0.01699   0.01739   2.56758
   R23        2.05966   0.00121   0.00000   0.00303   0.00303   2.06269
   R24        2.74142  -0.04040   0.00000  -0.09844  -0.09840   2.64303
   R25        2.05146  -0.05521   0.00000  -0.13607  -0.13607   1.91539
   R26        2.64558  -0.01838   0.00000  -0.03750  -0.03791   2.60767
   R27        2.30367  -0.01467   0.00000  -0.01415  -0.01415   2.28952
   R28        2.60183   0.01814   0.00000   0.03490   0.03448   2.63631
   R29        1.91365   0.00036   0.00000   0.00069   0.00069   1.91435
   R30        2.29958   0.01523   0.00000   0.01455   0.01455   2.31413
    A1        1.78679   0.00106   0.00000   0.00197   0.00184   1.78863
    A2        1.95849  -0.00003   0.00000   0.00239   0.00243   1.96092
    A3        1.84485  -0.00015   0.00000   0.00149   0.00153   1.84638
    A4        1.96431  -0.00044   0.00000   0.00049   0.00048   1.96480
    A5        1.95655  -0.00022   0.00000  -0.00209  -0.00203   1.95452
    A6        1.94393  -0.00011   0.00000  -0.00362  -0.00365   1.94028
    A7        1.76545   0.00262   0.00000   0.01247   0.01263   1.77809
    A8        2.01432  -0.00185   0.00000  -0.01036  -0.01045   2.00387
    A9        1.89608  -0.00034   0.00000   0.00095   0.00087   1.89695
   A10        1.99712  -0.00021   0.00000   0.00252   0.00247   1.99959
   A11        1.91057  -0.00044   0.00000  -0.00118  -0.00121   1.90936
   A12        1.87631   0.00027   0.00000  -0.00362  -0.00361   1.87270
   A13        1.84181  -0.00507   0.00000  -0.01869  -0.01899   1.82282
   A14        1.93042  -0.00300   0.00000  -0.03131  -0.03178   1.89864
   A15        1.99470   0.00271   0.00000   0.01630   0.01634   2.01104
   A16        1.95014  -0.00070   0.00000  -0.01470  -0.01575   1.93439
   A17        1.89662   0.00485   0.00000   0.02824   0.02817   1.92479
   A18        1.85203   0.00136   0.00000   0.02026   0.02054   1.87256
   A19        1.87387  -0.00105   0.00000  -0.00515  -0.00515   1.86872
   A20        1.92548   0.00207   0.00000   0.01193   0.01209   1.93757
   A21        2.08703   0.00642   0.00000   0.01619   0.01599   2.10302
   A22        2.07224   0.01327   0.00000   0.03921   0.03902   2.11125
   A23        2.12330  -0.01968   0.00000  -0.05531  -0.05492   2.06839
   A24        1.86224   0.00045   0.00000   0.00017   0.00008   1.86233
   A25        2.00254   0.00065   0.00000   0.00242   0.00242   2.00496
   A26        1.90861  -0.00057   0.00000  -0.00284  -0.00280   1.90581
   A27        1.91528  -0.00080   0.00000  -0.00150  -0.00146   1.91382
   A28        1.89027   0.00069   0.00000   0.00647   0.00649   1.89676
   A29        1.88237  -0.00039   0.00000  -0.00426  -0.00428   1.87808
   A30        1.91568  -0.00038   0.00000  -0.00186  -0.00186   1.91382
   A31        1.90321   0.00175   0.00000   0.00678   0.00678   1.90999
   A32        1.89468  -0.00007   0.00000   0.00104   0.00104   1.89571
   A33        1.89044  -0.00039   0.00000  -0.00129  -0.00129   1.88915
   A34        1.93881  -0.00070   0.00000  -0.00260  -0.00261   1.93620
   A35        1.93964  -0.00072   0.00000  -0.00352  -0.00352   1.93611
   A36        1.89593   0.00014   0.00000  -0.00031  -0.00032   1.89561
   A37        1.90215  -0.00071   0.00000  -0.00350  -0.00350   1.89865
   A38        2.14746   0.00075   0.00000   0.00045   0.00123   2.14869
   A39        1.99612   0.01332   0.00000   0.06688   0.06648   2.06260
   A40        2.13941  -0.01408   0.00000  -0.06742  -0.06781   2.07160
   A41        2.08891   0.01875   0.00000   0.05477   0.05518   2.14409
   A42        2.12462  -0.00486   0.00000  -0.00525  -0.00546   2.11916
   A43        2.06963  -0.01389   0.00000  -0.04952  -0.04972   2.01991
   A44        1.97527   0.00130   0.00000  -0.00889  -0.00928   1.96599
   A45        2.20884  -0.01819   0.00000  -0.05443  -0.05423   2.15461
   A46        2.09906   0.01689   0.00000   0.06332   0.06352   2.16258
   A47        2.24477   0.00025   0.00000   0.00124   0.00048   2.24526
   A48        2.03117  -0.00542   0.00000  -0.02657  -0.02619   2.00498
   A49        2.00719   0.00517   0.00000   0.02532   0.02570   2.03289
   A50        1.98608  -0.00136   0.00000   0.00793   0.00749   1.99357
   A51        2.15738   0.01670   0.00000   0.04982   0.05002   2.20740
   A52        2.13972  -0.01534   0.00000  -0.05773  -0.05752   2.08220
    D1       -0.61123  -0.00013   0.00000   0.00462   0.00453  -0.60670
    D2       -2.77677  -0.00069   0.00000  -0.00152  -0.00155  -2.77832
    D3        1.39850   0.00046   0.00000   0.00946   0.00944   1.40794
    D4       -2.72144  -0.00023   0.00000   0.00165   0.00160  -2.71984
    D5        1.39620  -0.00079   0.00000  -0.00449  -0.00447   1.39173
    D6       -0.71171   0.00036   0.00000   0.00649   0.00651  -0.70519
    D7        1.43962   0.00002   0.00000   0.00373   0.00367   1.44329
    D8       -0.72592  -0.00054   0.00000  -0.00241  -0.00241  -0.72833
    D9       -2.83383   0.00061   0.00000   0.00857   0.00858  -2.82525
   D10        0.41895  -0.00056   0.00000  -0.00631  -0.00631   0.41264
   D11       -1.70623  -0.00029   0.00000  -0.00607  -0.00606  -1.71229
   D12        2.45978   0.00020   0.00000  -0.00006  -0.00006   2.45972
   D13        2.52513  -0.00017   0.00000  -0.00201  -0.00203   2.52310
   D14        0.39995   0.00010   0.00000  -0.00176  -0.00178   0.39817
   D15       -1.71722   0.00058   0.00000   0.00425   0.00422  -1.71300
   D16       -1.55048  -0.00086   0.00000  -0.00823  -0.00822  -1.55870
   D17        2.60753  -0.00059   0.00000  -0.00798  -0.00797   2.59956
   D18        0.49036  -0.00010   0.00000  -0.00197  -0.00197   0.48839
   D19        2.99886  -0.00033   0.00000   0.00155   0.00160   3.00046
   D20       -1.35120   0.00073   0.00000   0.00371   0.00366  -1.34754
   D21        0.86737  -0.00013   0.00000  -0.00023  -0.00023   0.86714
   D22        0.61549  -0.00270   0.00000  -0.01348  -0.01319   0.60230
   D23       -1.49639   0.00285   0.00000   0.03273   0.03240  -1.46399
   D24        2.69821   0.00142   0.00000   0.01819   0.01821   2.71642
   D25        2.79270  -0.00329   0.00000  -0.01623  -0.01592   2.77678
   D26        0.68081   0.00227   0.00000   0.02997   0.02967   0.71048
   D27       -1.40777   0.00084   0.00000   0.01544   0.01548  -1.39229
   D28       -1.38343  -0.00341   0.00000  -0.02007  -0.01979  -1.40322
   D29        2.78787   0.00215   0.00000   0.02613   0.02579   2.81366
   D30        0.69929   0.00072   0.00000   0.01160   0.01160   0.71089
   D31        0.74583   0.00137   0.00000   0.01058   0.01061   0.75644
   D32       -1.29283  -0.00059   0.00000  -0.00024  -0.00029  -1.29312
   D33        2.86444  -0.00008   0.00000   0.00227   0.00228   2.86672
   D34       -0.37135   0.00199   0.00000   0.00929   0.00906  -0.36229
   D35        1.72763  -0.00519   0.00000  -0.04842  -0.04816   1.67947
   D36       -2.51793  -0.00094   0.00000  -0.01476  -0.01476  -2.53268
   D37       -1.10563  -0.00087   0.00000  -0.02246  -0.02263  -1.12825
   D38        2.07289  -0.00068   0.00000  -0.02418  -0.02437   2.04853
   D39        0.94596  -0.00226   0.00000  -0.01659  -0.01644   0.92952
   D40       -2.15871  -0.00207   0.00000  -0.01831  -0.01818  -2.17688
   D41        3.04552   0.00026   0.00000  -0.00760  -0.00755   3.03796
   D42       -0.05915   0.00045   0.00000  -0.00932  -0.00929  -0.06844
   D43       -0.03195  -0.00039   0.00000  -0.00008  -0.00001  -0.03196
   D44        2.14752   0.00021   0.00000   0.00207   0.00211   2.14964
   D45       -2.08491  -0.00031   0.00000  -0.00016  -0.00011  -2.08502
   D46       -3.13432   0.00006   0.00000   0.00366   0.00380  -3.13052
   D47       -0.01311  -0.00032   0.00000  -0.00202  -0.00214  -0.01526
   D48       -0.03077   0.00060   0.00000   0.00754   0.00751  -0.02326
   D49        3.09044   0.00023   0.00000   0.00187   0.00156   3.09200
   D50        3.14141  -0.00026   0.00000  -0.00393  -0.00408   3.13733
   D51       -0.00329   0.00020   0.00000   0.00314   0.00328  -0.00001
   D52        0.03755  -0.00066   0.00000  -0.00732  -0.00731   0.03024
   D53       -3.10715  -0.00020   0.00000  -0.00025   0.00005  -3.10710
   D54        0.90191   0.00053   0.00000   0.00557   0.00554   0.90745
   D55       -1.21265   0.00038   0.00000   0.00404   0.00399  -1.20866
   D56        3.01492   0.00047   0.00000   0.00455   0.00451   3.01943
   D57       -1.19413   0.00010   0.00000   0.00482   0.00486  -1.18927
   D58        2.97449  -0.00006   0.00000   0.00328   0.00332   2.97781
   D59        0.91887   0.00003   0.00000   0.00380   0.00384   0.92271
   D60        3.03338  -0.00006   0.00000   0.00036   0.00036   3.03374
   D61        0.91881  -0.00021   0.00000  -0.00118  -0.00118   0.91763
   D62       -1.13680  -0.00012   0.00000  -0.00067  -0.00067  -1.13747
   D63        3.10599   0.00007   0.00000   0.00272   0.00272   3.10871
   D64       -1.08977   0.00066   0.00000   0.00674   0.00673  -1.08304
   D65        1.02329  -0.00013   0.00000   0.00216   0.00217   1.02546
   D66        0.00484  -0.00001   0.00000  -0.00245  -0.00259   0.00225
   D67        3.13817   0.00003   0.00000  -0.00270  -0.00278   3.13539
   D68       -3.11472   0.00006   0.00000   0.00208   0.00183  -3.11289
   D69        0.01862   0.00010   0.00000   0.00183   0.00164   0.02026
   D70        0.00980   0.00015   0.00000  -0.00043  -0.00058   0.00922
   D71       -3.13675   0.00020   0.00000   0.00117   0.00114  -3.13561
   D72       -3.12379   0.00007   0.00000  -0.00038  -0.00058  -3.12437
   D73        0.01284   0.00013   0.00000   0.00123   0.00114   0.01398
   D74        0.00032   0.00006   0.00000   0.00061   0.00073   0.00104
   D75        3.12949  -0.00004   0.00000  -0.00006   0.00015   3.12964
   D76       -3.13666   0.00011   0.00000  -0.00053  -0.00063  -3.13729
   D77       -0.00749   0.00001   0.00000  -0.00119  -0.00121  -0.00869
   D78       -0.02333   0.00013   0.00000   0.00279   0.00285  -0.02048
   D79        3.12134  -0.00039   0.00000  -0.00442  -0.00414   3.11720
   D80        3.13054   0.00029   0.00000   0.00375   0.00375   3.13429
   D81       -0.00798  -0.00023   0.00000  -0.00345  -0.00325  -0.01122
         Item               Value     Threshold  Converged?
 Maximum Force            0.055208     0.000450     NO 
 RMS     Force            0.009135     0.000300     NO 
 Maximum Displacement     0.322037     0.001800     NO 
 RMS     Displacement     0.068987     0.001200     NO 
 Predicted change in Energy=-1.953972D-02
 GradGradGradGradGradGradGradGradGradGradGradGradGradGradGradGradGradGrad

                          Input orientation:                          
 ---------------------------------------------------------------------
 Center     Atomic      Atomic             Coordinates (Angstroms)
 Number     Number       Type             X           Y           Z
 ---------------------------------------------------------------------
      1          6           0       -2.789540   -0.400735    0.352907
      2          6           0       -1.380669   -0.600505    0.915924
      3          6           0       -0.524616   -0.609658   -0.366798
      4          8           0       -1.227344   -1.727635    1.723684
      5          1           0       -1.117811    0.273524    1.522764
      6          8           0       -1.178529    0.317123   -1.238727
      7          1           0       -0.536686   -1.623768   -0.793588
      8          6           0        0.910689   -0.222424   -0.179385
      9          6           0       -2.538762    0.513948   -0.849837
     10          1           0       -3.474293    0.046804    1.088226
     11          8           0       -3.233989   -1.690669   -0.043382
     12          6           0       -2.787573    1.986418   -0.593594
     13          1           0       -3.192631    0.205075   -1.683004
     14          8           0       -2.070980    2.392590    0.565051
     15          1           0       -3.872638    2.142790   -0.461431
     16          1           0       -2.456255    2.551402   -1.479462
     17          1           0       -4.161345   -1.651311   -0.289259
     18          1           0       -1.688230   -2.454554    1.286320
     19          1           0       -2.211397    3.332887    0.701753
     20          6           0        1.239689    1.034880    0.223528
     21          7           0        2.522752    1.446442    0.398006
     22          6           0        3.623668    0.612882    0.175916
     23          7           0        3.257958   -0.649412   -0.244855
     24          6           0        1.977347   -1.158150   -0.462710
     25          1           0        0.432501    1.750478    0.390267
     26          1           0        2.738899    2.391412    0.694079
     27          1           0        4.030818   -1.278643   -0.426465
     28          8           0        4.771671    0.966496    0.333784
     29          8           0        1.849550   -2.307836   -0.864579
 ---------------------------------------------------------------------
                    Distance matrix (angstroms):
                    1          2          3          4          5
     1  C    0.000000
     2  C    1.530299   0.000000
     3  C    2.385688   1.542169   0.000000
     4  O    2.465796   1.395137   2.472613   0.000000
     5  H    2.148922   1.096026   2.168486   2.014200   0.000000
     6  O    2.375706   2.350622   1.430659   3.599903   2.762502
     7  H    2.808133   2.163749   1.100325   2.612366   3.050067
     8  C    3.742570   2.567678   1.498391   3.233963   2.694084
     9  C    1.531707   2.387697   2.356396   3.656162   2.775993
    10  H    1.099941   2.198172   3.353898   2.932784   2.406913
    11  O    1.420743   2.354469   2.934942   2.674045   3.284673
    12  C    2.567950   3.309107   3.451379   4.647395   3.193913
    13  H    2.162041   3.269036   3.084557   4.382151   3.819229
    14  O    2.892058   3.091643   3.503295   4.362385   2.513203
    15  H    2.881973   3.953819   4.335225   5.172282   3.875598
    16  H    3.490526   4.102350   3.868016   5.484572   3.999190
    17  H    1.964222   3.207619   3.783762   3.558951   4.031317
    18  H    2.510441   1.915538   2.736867   0.965461   2.797086
    19  H    3.794189   4.025860   4.419354   5.255624   3.351073
    20  C    4.279301   3.165466   2.483096   3.996024   2.797407
    21  N    5.624459   4.437896   3.754853   5.088753   3.986793
    22  C    6.495228   5.202240   4.358601   5.604099   4.940727
    23  N    6.082055   4.781909   3.784747   5.015540   4.808704
    24  C    4.895112   3.672584   2.563174   3.921056   3.946112
    25  H    3.874359   3.015132   2.656965   4.078033   2.422274
    26  H    6.202912   5.096236   4.558773   5.810139   4.477319
    27  H    6.920652   5.616588   4.604680   5.698509   5.719886
    28  O    7.683853   6.375395   5.570075   6.721484   6.048131
    29  O    5.161440   4.064417   2.961125   4.062390   4.600875
                    6          7          8          9         10
     6  O    0.000000
     7  H    2.092169   0.000000
     8  C    2.403778   2.106159   0.000000
     9  C    1.428360   2.929386   3.590329   0.000000
[...]
 .00061289,0.00001747,-0.00022265,-0.00004014,-0.00007424,-0.00008290,-
 0.01607971,-0.00866531,-0.00324295,0.03100597,0.02513611,0.00576103,-0
 .15234984,0.00580013,-0.01087447,0.74600202,0.00009517,-0.00037830,-0.
 00039091,0.00063884,-0.00092971,0.00134073,0.00099350,-0.00458032,-0.0
 0153233,-0.00089073,0.00116983,-0.00011217,0.00002405,0.00005203,0.000
 00388,0.00095405,0.00091870,0.00007880,0.00101458,0.00003311,0.0005318
 8,0.01805105,0.03197684,0.00517448,0.00025251,-0.00017540,0.00017451,0
 .00008723,0.00001968,0.00007173,-0.00008251,0.00032782,0.00006348,-0.0
 0000515,-0.00008540,-0.00008293,0.00010245,-0.00000642,-0.00002755,0.0
 0010827,0.00021329,0.00009206,0.00000667,-0.00001176,0.00001407,0.0000
 0336,0.00002283,-0.00000634,0.00000220,-0.00001138,-0.00000693,0.00067
 224,-0.00019066,-0.00018465,-0.00009122,-0.00004169,-0.00001660,-0.024
 39226,-0.01622486,-0.00508810,0.03034411,-0.05715194,-0.00465705,-0.03
 779471,-0.27794808,-0.03237400,-0.08670529,0.78237171,-0.00010017,-0.0
 0005424,0.00007173,-0.00054662,-0.00033607,-0.00017007,-0.00032765,-0.
 00044041,0.00242125,-0.00023052,0.00017895,0.00020619,-0.00001133,0.00
 000044,-0.00007939,0.00072779,0.00010226,0.00024183,0.00043801,-0.0001
 5199,0.00005491,-0.00350161,0.00421264,0.00928159,0.00007195,-0.000041
 44,0.00020531,-0.00005992,0.00001401,-0.00000843,-0.00004988,0.0000304
 2,0.00002971,-0.00000032,-0.00002536,-0.00005031,0.00005727,0.00000108
 ,-0.00002759,0.00001391,0.00006066,0.00007675,-0.00000623,0.00000031,0
 .00000963,0.00000847,0.00000160,0.00000398,0.00001285,0.00000230,-0.00
 000749,0.00024326,-0.00003110,-0.00009477,-0.00001684,-0.00000871,-0.0
 0002609,-0.00508275,-0.00293929,-0.00116306,0.00628534,-0.00530311,0.0
 0953750,-0.01687459,-0.02800064,-0.06358892,0.07638334,0.08552584,0.08
 483741,-0.00052201,0.00028196,0.00016769,-0.00146198,0.00008195,-0.001
 44233,-0.02340357,0.02084218,0.00019937,0.00137928,-0.00013162,-0.0004
 6292,-0.00007951,0.00019603,0.00029045,-0.00106093,-0.00205354,0.00104
 324,-0.00101295,0.00089440,-0.00052468,-0.18828620,0.05458153,-0.00618
 196,-0.00162506,0.00062782,-0.00060640,0.00004867,0.00000885,-0.000118
 51,0.00070252,0.00026825,0.00009195,-0.00036647,-0.00007362,-0.0003187
 8,0.00007085,0.00008668,0.00017138,0.00065505,-0.00015547,-0.00004204,
 0.00021393,0.00002415,-0.00000897,-0.00008351,0.00000149,0.00003950,-0
 .00008348,-0.00012247,0.00001458,-0.00071405,-0.00029545,0.00025542,-0
 .00004092,0.00008023,0.00015622,0.05737276,0.02173401,0.00985406,-0.04
 948187,0.01547022,-0.00352118,0.01533497,-0.09229113,-0.00814241,-0.24
 159638,0.02434691,-0.02185950,0.56345196,-0.00027940,0.00084425,0.0018
 7060,-0.00457438,0.00397234,-0.00422224,0.00779616,0.01929130,0.005897
 35,0.00298910,-0.00514606,0.00037515,0.00090149,-0.00062400,-0.0012356
 4,-0.00700095,-0.00300299,-0.00081860,-0.00492981,-0.00262320,-0.00210
 663,0.06662843,-0.14636721,-0.00034861,0.00109122,-0.00032657,-0.00089
 110,-0.00061482,-0.00010407,-0.00009231,-0.00054230,-0.00162520,-0.000
 43084,0.00023685,0.00019487,0.00044600,-0.00085859,-0.00003702,-0.0000
 1588,-0.00082764,-0.00025440,-0.00010732,-0.00022517,0.00007290,0.0000
 1393,0.00009595,-0.00007824,-0.00002530,0.00010737,0.00011043,-0.00006
 113,-0.00235885,0.00072019,0.00057408,0.00020649,-0.00000780,-0.000113
 04,0.00434275,-0.04911301,-0.00661794,0.02081332,0.00294212,0.00375249
 ,-0.03616228,0.00389804,-0.00240586,-0.01361878,-0.13320156,-0.0124950
 7,0.01532413,0.95422683,0.00010941,0.00038242,0.00041575,0.00021480,0.
 00018127,-0.00106558,-0.00020846,0.00417493,0.00306330,-0.00000334,-0.
 00047189,-0.00021845,0.00018483,0.00002346,0.00002796,-0.00393287,0.00
 060905,-0.00095454,-0.00101871,0.00026003,0.00032145,-0.00404490,-0.00
 434825,-0.08100678,-0.00035244,0.00017543,-0.00053584,-0.00008600,-0.0
 0005067,-0.00005232,-0.00000240,-0.00022788,-0.00017614,-0.00011492,-0
 .00004001,0.00007413,-0.00029283,0.00002082,0.00002344,-0.00005417,-0.
 00000736,-0.00009977,-0.00002250,0.00004596,0.00000064,0.00000181,0.00
 001970,-0.00002737,0.00002385,0.00004388,0.00001164,-0.00029262,0.0002
 0625,0.00018612,0.00001896,-0.00000652,0.00003151,0.00835329,-0.004497
 49,0.00434319,-0.00389865,0.00339608,-0.00521345,-0.00036109,-0.010320
 57,-0.01584190,-0.02668491,-0.00820963,-0.05691849,0.04983569,0.114934
 74,0.22677197,-0.00013423,-0.00021187,0.00024331,-0.00025159,-0.000186
 48,-0.00041947,-0.00013166,-0.00093228,0.00092985,-0.00008092,0.000237
 32,-0.00008217,0.00007804,-0.00003920,0.00015282,-0.00078258,-0.000074
 91,0.00011094,0.00016455,0.00021380,-0.00011344,0.01276994,-0.00598496
 ,-0.00050625,-0.00053124,-0.00011636,0.00009342,-0.00008680,0.00001038
 ,-0.00001781,0.00002231,0.00023112,-0.00002206,-0.00071908,-0.00034345
 ,-0.00076555,0.00012850,0.00006893,0.00002476,0.00098733,0.00002357,-0
 .00014407,0.00018612,0.00007815,0.00006781,-0.00006778,0.00006364,0.00
 004363,-0.00003271,-0.00004222,0.00000715,0.00006781,-0.00001976,-0.00
 002352,0.00011124,0.00019109,0.00016028,-0.17901290,0.14119414,-0.0000
 6356,-0.02213211,0.02437190,-0.00010957,-0.00083066,-0.00606794,-0.001
 29755,0.00093164,0.00053116,0.00027409,-0.00197925,-0.00124399,-0.0020
 3705,0.19226582,-0.00013211,-0.00005242,0.00004171,-0.00032453,-0.0005
 7926,-0.00015648,0.00157615,-0.00094507,0.00088784,0.00004528,0.000336
 61,-0.00002732,-0.00016653,-0.00001810,0.00027972,0.00068795,0.0010794
 3,0.00036150,-0.00000964,0.00010724,0.00004039,0.02000741,-0.01413356,
 -0.00028312,-0.00091784,0.00034396,0.00008771,0.00001329,0.00003504,-0
 .00005809,0.00013307,0.00010534,0.00004077,0.00005732,0.00017970,0.000
 16915,0.00018762,-0.00000983,0.00002630,-0.00026252,-0.00059870,-0.000
 11731,0.00000634,-0.00006578,-0.00003217,0.00002145,0.00000885,0.00003
 410,-0.00001989,-0.00000776,0.00001187,0.00001982,-0.00000727,-0.00002
 946,0.00036470,-0.00001539,-0.00009933,0.14722718,-0.22706422,-0.00338
 410,-0.01122045,0.01166456,-0.00026319,-0.00166334,-0.00049513,-0.0006
 8198,-0.00005482,0.00054442,0.00014519,-0.00422731,-0.00294570,-0.0021
 0069,-0.15214192,0.23294837,0.00026208,-0.00025840,-0.00029874,0.00072
 974,0.00033453,0.00094747,0.00146310,0.00004344,-0.00480028,-0.0001363
 4,0.00000926,-0.00024722,0.00022161,0.00004038,-0.00021075,-0.00026917
 ,0.00001083,-0.00046595,-0.00041871,0.00008931,-0.00018655,0.00172619,
 -0.00381357,0.00908103,-0.00052788,0.00048336,0.00012734,0.00014783,0.
 00002322,-0.00002212,-0.00011351,0.00002742,-0.00009874,-0.00004262,0.
 00010972,0.00069572,0.00014380,-0.00002983,-0.00001534,-0.00051384,-0.
 00020985,-0.00063897,-0.00005983,-0.00002118,-0.00018119,-0.00011723,0
 .00007779,-0.00016808,-0.00002634,-0.00003277,0.00001580,-0.00001994,-
 0.00004115,0.00004593,0.00009604,-0.00000286,0.00004627,0.00078140,-0.
 00285737,-0.04259820,-0.00423001,0.00376273,0.00283599,-0.00075525,-0.
 00108937,0.00374552,0.00011957,0.00021985,-0.00061400,-0.00212439,-0.0
 0208825,0.01081413,0.00300232,0.00459794,0.02710132,-0.00003188,-0.000
 04509,0.00005403,0.00005801,-0.00000238,-0.00025550,0.00063151,-0.0016
 1150,-0.00028445,-0.00000507,-0.00000583,0.00006302,-0.00000231,-0.000
 00554,0.00005457,-0.00003792,0.00037539,0.00001821,-0.00052981,-0.0000
 6414,-0.00003595,-0.00568808,0.00136286,-0.00076642,0.00009695,-0.0000
 6407,-0.00006184,-0.00003963,0.00000019,-0.00000183,-0.00002148,0.0000
 4160,0.00001269,-0.00012152,-0.00011669,-0.00015368,-0.00002200,0.0000
 0994,0.00000386,0.00023160,0.00017239,0.00010932,0.00003268,0.00002537
 ,0.00002919,-0.00000513,0.00000910,0.00000261,-0.00000333,-0.00000168,
 0.00000493,0.00000987,0.00001719,-0.00002319,-0.00011011,-0.00001619,0
 .00001255,-0.00288932,-0.03336900,-0.00341375,-0.09588581,-0.09683547,
 -0.02224125,0.01935510,0.02797639,0.00576216,-0.00537900,0.00418766,-0
 .00058101,-0.00179929,0.00007251,-0.00013163,0.00029664,0.00029323,0.0
 0023989,0.09227216,0.00001638,-0.00000629,-0.00016767,0.00009316,-0.00
 009206,0.00034941,-0.00029221,0.00003992,-0.00071596,0.00010578,0.0000
 4541,-0.00008195,-0.00001941,0.00002194,0.00000078,0.00048761,-0.00020
 027,0.00014482,-0.00008394,0.00005792,0.00002677,0.00005809,0.00434163
 ,0.00029284,-0.00028148,0.00006775,0.00006916,0.00007885,0.00000199,0.
 00000439,0.00009509,0.00002834,0.00003059,0.00006848,0.00009139,0.0000
 5982,0.00006416,-0.00000155,0.00001903,-0.00006972,-0.00017879,-0.0000
 8284,0.00000720,-0.00002405,-0.00002356,-0.00000997,-0.00000789,0.0000
 1528,-0.00001636,-0.00001167,0.00000282,-0.00007663,-0.00003237,0.0000
 2571,0.00008946,0.00004761,0.00000185,-0.00184573,0.00006926,0.0005286
 3,-0.09380633,-0.42967386,-0.06038036,-0.00923667,-0.02072209,-0.00340
 858,0.00399562,-0.00102758,-0.00004724,0.00216841,-0.00144642,0.000220
 97,0.00017898,0.00089486,0.00030319,0.10094344,0.44416930,-0.00003008,
 0.00002424,0.00011387,-0.00034130,-0.00009612,-0.00009083,0.00019977,-
 0.00020105,0.00192960,0.00001461,0.00000627,-0.00005256,0.00002613,-0.
 00000268,-0.00001999,0.00019666,0.00008150,-0.00008346,0.00020218,0.00
 012036,0.00000101,-0.00156333,-0.00020401,0.00314835,-0.00005179,0.000
 01879,0.00004740,-0.00001233,0.00000119,-0.00001991,0.00000467,-0.0000
 0969,-0.00004760,0.00002395,0.00000992,0.00014564,0.00000999,-0.000003
 50,-0.00000935,-0.00005559,-0.00004995,-0.00017631,-0.00000793,-0.0000
 0098,-0.00002198,-0.00001659,0.00001699,-0.00003691,0.00000360,-0.0000
 0412,0.00001106,-0.00001072,0.00000715,0.00002132,0.00003731,0.0000022
 0,0.00006819,0.00042113,-0.00320170,-0.00703569,-0.02200188,-0.0602192
 9,-0.01774775,0.00166544,0.00100771,-0.00063618,-0.00061474,-0.0001283
 5,0.00333868,0.00011661,-0.00016545,-0.00061899,0.00025137,0.00031713,
 -0.00159779,0.02160072,0.06236714,0.02231423,-0.00004191,0.00003641,0.
 00000285,-0.00007614,0.00004932,-0.00016348,0.00016255,0.00135273,0.00
 012357,0.00012906,-0.00012140,0.00003078,-0.00000847,0.00000287,0.0000
 0495,-0.00035895,-0.00007016,0.00006783,-0.00006617,-0.00002638,-0.000
 04631,-0.00416060,-0.00407607,-0.00159062,-0.00006094,0.00001868,-0.00
 009198,-0.00000636,-0.00000469,-0.00000240,0.00003854,-0.00000641,0.00
 001222,-0.00004380,-0.00001873,-0.00003140,-0.00002842,0.00000877,0.00
 001758,0.00005052,0.00000877,0.00002008,0.00001377,0.00001073,0.000002
 95,-0.00000389,-0.00000109,0.00000266,-0.00000470,-0.00000524,0.000000
 51,-0.00008649,0.00000692,0.00002000,-0.00001432,0.00000166,0.00000596
 ,-0.00086028,-0.00101478,-0.00015549,0.00035233,-0.00453523,-0.0010549
 9,0.01740066,-0.00587007,0.00150894,-0.26898855,0.19333285,-0.00575139
 ,-0.01965898,0.02720446,0.00131968,-0.00002994,0.00004177,0.00003957,0
 .00085919,-0.00056756,-0.00008931,0.27346571,0.00000586,0.00005820,0.0
 0005880,-0.00001495,0.00012045,-0.00019189,-0.00010844,0.00062946,0.00
 012283,-0.00002756,-0.00015345,0.00010349,0.00000854,-0.00001201,-0.00
 000494,-0.00047386,0.00003230,-0.00000529,-0.00000530,0.00001535,-0.00
 003577,-0.00302167,-0.00055651,-0.00108135,0.00011190,-0.00000350,-0.0
 0006505,-0.00003202,-0.00000658,-0.00000047,-0.00006013,-0.00008065,-0
 .00001568,-0.00001272,-0.00001210,0.00000536,-0.00005029,0.00000238,-0
 .00000610,-0.00002640,0.00001544,0.00001357,-0.00001560,0.00001243,0.0
 0000874,0.00000729,-0.00000144,-0.00000196,0.00001261,0.00001885,-0.00
 000244,-0.00000052,0.00005120,-0.00001665,0.00000603,-0.00000426,-0.00
 000997,-0.00086298,-0.00004859,-0.00002377,-0.00405968,-0.00473803,-0.
 00165383,0.02919854,-0.01879070,0.00128474,0.18861868,-0.25245424,-0.0
 0797873,-0.00587455,0.01779719,0.00161803,0.00006751,0.00003843,0.0000
 6684,0.00126896,-0.00055868,-0.00005778,-0.20493936,0.25735718,-0.0000
 1374,0.00000810,-0.00000178,-0.00003774,-0.00011564,0.00014401,-0.0000
 6875,0.00029636,0.00023289,-0.00005962,0.00006702,-0.00009110,0.000005
 82,-0.00001687,-0.00001164,0.00006859,-0.00005300,-0.00002308,-0.00001
 936,-0.00001910,0.00000341,-0.00151361,-0.00109181,0.00390949,-0.00001
 486,-0.00000210,0.00001277,0.00000265,-0.00000404,-0.00000119,-0.00001
 505,-0.00000223,-0.00003713,0.00000784,-0.00000058,0.00002554,-0.00000
 523,0.00000344,-0.00000395,-0.00000417,0.00000170,-0.00003238,-0.00000
 024,-0.00000028,-0.00000229,-0.00000053,0.00000708,-0.00000663,-0.0000
 0175,-0.00000025,0.00001134,0.00000071,-0.00000285,0.00002886,-0.00000
 208,-0.00000221,0.00000984,-0.00018233,-0.00001429,-0.00082304,-0.0009
 8519,-0.00175701,0.00402384,0.00615322,-0.00261132,-0.00072159,-0.0061
 5420,-0.00797551,-0.01919681,-0.00335960,0.00589093,0.00130227,0.00006
 488,0.00005308,-0.00043340,0.00014607,-0.00025880,0.00103878,0.0046529
 7,0.00658179,0.01826462,0.00014707,0.00029987,0.00099995,-0.00040596,0
 .00113270,-0.00244721,0.00235466,-0.00054459,0.00258628,-0.00051135,-0
 .00090215,0.00085424,0.00016054,-0.00007927,-0.00013404,-0.00300560,0.
 00084108,-0.00065415,-0.00032763,-0.00021360,0.00003386,-0.00151619,-0
 .00169971,-0.00073032,0.00183341,-0.00039410,-0.00044889,-0.00046434,-
 0.00001047,-0.00004545,-0.00075428,-0.00060709,-0.00019868,0.00005014,
 -0.00017133,0.00011381,-0.00045120,-0.00002598,-0.00012060,-0.00041450
 ,0.00034969,0.00021923,-0.00019571,0.00008192,0.00007866,0.00010656,0.
 00002014,-0.00003831,0.00015474,0.00015985,-0.00002496,0.00041310,0.00
 030436,-0.00020612,0.00001765,-0.00010866,-0.00015754,0.00369653,0.007
 37754,0.00103006,-0.08542177,0.01398159,-0.01171788,-0.62875376,-0.145
 74209,-0.08822611,-0.03453411,-0.04572963,-0.01277737,0.00797649,0.004
 54271,0.00046011,-0.00194907,-0.00092583,-0.00027051,-0.00178029,-0.00
 174578,-0.00009516,-0.00327433,-0.00148028,-0.00018570,0.74961246,0.00
 000648,-0.00004568,-0.00004133,0.00017466,-0.00024938,0.00006848,0.000
 24257,0.00054253,0.00014396,-0.00036115,0.00020222,0.00008540,0.000029
 18,-0.00002193,-0.00000999,-0.00073812,0.00046517,0.00000053,0.0003145
 8,0.00003607,0.00007564,-0.00281225,0.00782097,0.00083470,0.00024474,-
 0.00011137,-0.00012589,-0.00004040,-0.00000380,0.00002924,-0.00011520,
 0.00003130,-0.00000603,-0.00007630,-0.00010848,-0.00006617,-0.00007648
 ,0.00000680,-0.00001650,0.00008509,0.00017575,0.00008875,-0.00000833,0
 .00002737,0.00002915,0.00001751,0.00001698,-0.00001501,0.00002179,0.00
 001207,-0.00000482,0.00021550,-0.00001337,-0.00005533,-0.00005749,-0.0
 0003953,-0.00001941,-0.00819500,-0.01020459,-0.00292348,0.04156698,0.0
 2611377,0.00590908,-0.14422367,-0.14384502,-0.02610288,-0.07696723,-0.
 02539900,-0.01570957,0.02379053,-0.00308147,0.00195107,0.00117605,0.00
 034831,0.00017612,-0.00472805,0.00282526,0.00013212,0.00048669,0.00429
 873,0.00104671,0.17720398,0.14475605,0.00001739,0.00002562,0.00008767,
 0.00002836,0.00019145,-0.00039164,0.00034721,0.00001405,-0.00009158,-0
 .00006933,-0.00016464,0.00020853,0.00001340,0.00000852,-0.00001760,-0.
 00049657,0.00012847,-0.00001174,-0.00005273,0.00004923,0.00000494,-0.0
 0047819,0.00096081,-0.00107875,0.00030452,-0.00004150,-0.00008167,-0.0
 0006442,-0.00000209,0.00000191,-0.00009718,-0.00007726,0.00001595,-0.0
 0001767,-0.00003884,-0.00004717,-0.00005983,-0.00000245,-0.00001625,-0
 .00003110,0.00008029,0.00011466,-0.00002633,0.00001576,0.00001978,0.00
 001840,-0.00000651,0.00000742,0.00002500,0.00002229,-0.00001525,0.0000
 6450,0.00003924,-0.00004471,-0.00001176,-0.00001604,-0.00004987,-0.001
 13697,-0.00090015,0.00464988,-0.00839646,0.00241462,0.01996426,-0.0881
 4936,-0.02637127,-0.09621240,-0.01686928,-0.01179423,0.01737720,0.0030
 3685,-0.00088706,0.00776033,-0.00010188,-0.00006472,-0.00024425,-0.000
 28899,0.00053240,-0.00372430,0.00012468,0.00088295,-0.00364590,0.11327
 136,0.03604548,0.05744524,0.00025260,-0.00002190,-0.00035552,0.0015446
 2,-0.00039937,0.00041391,-0.00040204,-0.00306421,-0.00158603,-0.001414
 47,0.00061725,0.00095376,-0.00023873,0.00004736,0.00029851,-0.00077067
 ,0.00233779,0.00011168,0.00077789,0.00232191,0.00097754,0.01886682,0.0
 2638332,0.00341657,0.00103381,-0.00000961,0.00000171,-0.00002778,-0.00
 000581,0.00007558,-0.00032465,-0.00003902,0.00002649,-0.00012055,-0.00
 012483,-0.00000795,-0.00008056,-0.00001718,-0.00007523,-0.00005618,0.0
 0022338,0.00013455,-0.00007581,0.00006900,0.00005757,0.00003893,0.0000
 0792,-0.00001519,0.00006034,0.00009546,0.00001972,0.00091797,0.0001615
 8,-0.00039482,-0.00003229,-0.00005066,-0.00006008,-0.01284359,0.000906
 53,-0.00199887,0.00973571,-0.00602621,0.00043998,-0.00706045,0.0218381
 3,0.00060204,-0.01804686,-0.08005737,-0.01673857,-0.11395006,-0.079115
 97,-0.01698293,0.00074258,0.00138414,0.00065245,0.00050826,-0.00039891
 ,0.00011661,0.00530089,0.00176039,0.00152100,-0.00276324,-0.00717664,-
 0.00090363,0.11842752,-0.00008983,-0.00049563,-0.00119961,0.00192761,-
 0.00311050,0.00287162,-0.00686250,-0.00443372,-0.00268431,-0.00185311,
 0.00348578,-0.00039565,-0.00047916,0.00040906,0.00065612,0.00240456,0.
 00153586,0.00037939,0.00272544,0.00088254,0.00101288,0.00870560,-0.068
 46046,-0.01284884,-0.00112609,0.00029662,0.00025623,0.00034109,0.00007
 535,0.00008748,0.00042656,0.00113133,0.00029449,-0.00032614,-0.0002503
 6,-0.00043457,0.00044386,0.00004959,0.00003610,0.00078241,0.00028910,0
 .00013609,0.00018991,-0.00000548,0.00002106,-0.00006536,0.00006679,0.0
 0001825,-0.00006936,-0.00009454,0.00002560,0.00155518,-0.00066594,-0.0
 0034166,-0.00019136,-0.00000066,0.00009535,0.01597214,0.01006534,0.002
 78203,-0.00918726,-0.00484716,-0.00179093,0.00360958,0.00998279,0.0005
 9622,-0.05325937,-0.04783195,-0.01671273,-0.07558457,-0.65408556,-0.09
 798313,-0.00123241,-0.00169693,0.00006866,0.00010940,0.00128099,0.0002
 3195,-0.00130546,-0.00302687,-0.00002833,-0.00591491,-0.00455575,-0.00
 104440,0.11835353,0.76401034,0.00004096,-0.00019776,-0.00021734,0.0004
 8979,0.00137999,-0.00009618,-0.00149634,-0.00094185,-0.00189180,0.0009
 5137,-0.00071572,-0.00001566,-0.00023154,-0.00003549,0.00026756,0.0001
 0761,0.00053382,0.00021621,0.00092835,0.00070492,-0.00019326,0.0001513
 2,-0.00978134,0.02076924,0.00023600,0.00003966,-0.00006616,0.00003576,
 0.00002157,0.00002986,0.00006536,0.00011283,0.00024356,-0.00008890,-0.
 00005314,-0.00012296,0.00005985,-0.00003362,0.00003465,0.00013341,0.00
 005583,0.00012598,0.00001745,0.00001791,0.00002194,-0.00000319,-0.0000
 2590,0.00001725,-0.00000025,-0.00002468,-0.00003837,-0.00041516,-0.000
 04871,-0.00014952,-0.00002662,-0.00000125,-0.00001078,0.00027839,0.000
 98135,0.00335599,0.00007707,-0.00146200,0.00003509,-0.00136110,0.00365
 058,0.00749471,-0.01294345,-0.02070404,0.01425174,-0.01655936,-0.09862
 700,-0.09241823,0.00027732,0.00020358,-0.00263496,0.00012568,0.0001713
 2,-0.00025852,0.00101959,0.00040458,-0.00397577,-0.00116857,-0.0015200
 3,-0.00198470,0.02929916,0.12589460,0.05721044\\0.00000235,-0.00000411
 ,0.00000344,-0.00000391,0.00000875,-0.00001205,0.00001882,-0.00001181,
 0.00001817,-0.00001527,-0.00000443,0.00001043,0.00000500,-0.00000146,-
 0.00000081,-0.00001528,0.00000509,-0.00001198,0.00000103,0.00000315,-0
 .00000179,-0.00000389,0.00000514,-0.00001006,0.00000758,-0.00000119,-0
 .00000017,0.00000116,-0.00000189,0.00000160,0.00000073,0.00000018,0.00
 000859,-0.00000352,0.00000039,-0.00000499,0.00000061,0.00000105,-0.000
 00275,0.00000807,0.00000491,0.00000062,0.00000053,-0.00000137,0.000000
 78,0.00000020,-0.00000040,0.00000181,0.00000128,0.00000136,-0.00000680
 ,0.00001528,-0.00000290,-0.00000410,-0.00000505,-0.00000229,0.00000481
 ,-0.00003370,-0.00000039,0.00000101,0.00002923,-0.00000382,0.00002204,
 -0.00003657,0.00001770,-0.00006229,0.00000363,-0.00000651,0.00002077,-
 0.00000092,-0.00004279,-0.00000363,-0.00000125,-0.00000400,0.00000125,
 -0.00000073,0.00000960,-0.00000075,-0.00000173,-0.00000001,-0.00000357
 ,0.00002728,-0.00000350,0.00002601,-0.00000094,0.00003556,0.00000440\\
 \@
 The archive entry for this job was punched.


 THE MEEK SHALL INHERIT THE EARTH.
 (THE REST OF US WILL ESCAPE TO THE STARS)
 Job cpu time:       0 days 10 hours 18 minutes 57.7 seconds.
 Elapsed time:       0 days  0 hours 15 minutes 36.8 seconds.
 File lengths (MBytes):  RWF=    632 Int=      0 D2E=      0 Chk=     21 Scr=      1
 Normal termination of Gaussian 16 at Sat Oct 26 05:54:01 2024.
