 Entering Gaussian System, Link 0=g16
 Input=PseudoUridineNsllaPBE0aVDZ.gjf
 Output=PseudoUridineNsllaPBE0aVDZ.log
 Initial command:
 /sw/contrib/chem-src/g16/c01/g16/l1.exe "/scr/Gau-93706.inp" -scrdir="/scr/"
 Entering Link 1 = /sw/contrib/chem-src/g16/c01/g16/l1.exe PID=     93707.
  
 Copyright (c) 1988-2019, Gaussian, Inc.  All Rights Reserved.
  
 This is part of the Gaussian(R) 16 program.  It is based on
 the Gaussian(R) 09 system (copyright 2009, Gaussian, Inc.),
 the Gaussian(R) 03 system (copyright 2003, Gaussian, Inc.),
 the Gaussian(R) 98 system (copyright 1998, Gaussian, Inc.),
 the Gaussian(R) 94 system (copyright 1995, Gaussian, Inc.),
 the Gaussian 92(TM) system (copyright 1992, Gaussian, Inc.),
 the Gaussian 90(TM) system (copyright 1990, Gaussian, Inc.),
 the Gaussian 88(TM) system (copyright 1988, Gaussian, Inc.),
 the Gaussian 86(TM) system (copyright 1986, Carnegie Mellon
 University), and the Gaussian 82(TM) system (copyright 1983,
 Carnegie Mellon University). Gaussian is a federally registered
 trademark of Gaussian, Inc.
  
 This software contains proprietary and confidential information,
 including trade secrets, belonging to Gaussian, Inc.
  
 This software is provided under written license and may be
 used, copied, transmitted, or stored only in accord with that
 written license.
  
 The following legend is applicable only to US Government
 contracts under FAR:
  
                    RESTRICTED RIGHTS LEGEND
  
 Use, reproduction and disclosure by the US Government is
 subject to restrictions as set forth in subparagraphs (a)
 and (c) of the Commercial Computer Software - Restricted
 Rights clause in FAR 52.227-19.
  
 Gaussian, Inc.
 340 Quinnipiac St., Bldg. 40, Wallingford CT 06492
  
  
 ---------------------------------------------------------------
 Warning -- This program may not be used in any manner that
 competes with the business of Gaussian, Inc. or will provide
 assistance to any competitor of Gaussian, Inc.  The licensee
 of this program is prohibited from giving any competitor of
 Gaussian, Inc. access to this program.  By using this program,
 the user acknowledges that Gaussian, Inc. is engaged in the
 business of creating and licensing software in the field of
 computational chemistry and represents and warrants to the
 licensee that it is not a competitor of Gaussian, Inc. and that
 it will not use this program in any manner prohibited above.
 ---------------------------------------------------------------
  

 Cite this work as:
 Gaussian 16, Revision C.01,
 M. J. Frisch, G. W. Trucks, H. B. Schlegel, G. E. Scuseria, 
 M. A. Robb, J. R. Cheeseman, G. Scalmani, V. Barone, 
 G. A. Petersson, H. Nakatsuji, X. Li, M. Caricato, A. V. Marenich, 
 J. Bloino, B. G. Janesko, R. Gomperts, B. Mennucci, H. P. Hratchian, 
 J. V. Ortiz, A. F. Izmaylov, J. L. Sonnenberg, D. Williams-Young, 
 F. Ding, F. Lipparini, F. Egidi, J. Goings, B. Peng, A. Petrone, 
 T. Henderson, D. Ranasinghe, V. G. Zakrzewski, J. Gao, N. Rega, 
 G. Zheng, W. Liang, M. Hada, M. Ehara, K. Toyota, R. Fukuda, 
 J. Hasegawa, M. Ishida, T. Nakajima, Y. Honda, O. Kitao, H. Nakai, 
 T. Vreven, K. Throssell, J. A. Montgomery, Jr., J. E. Peralta, 
 F. Ogliaro, M. J. Bearpark, J. J. Heyd, E. N. Brothers, K. N. Kudin, 
 V. N. Staroverov, T. A. Keith, R. Kobayashi, J. Normand, 
 K. Raghavachari, A. P. Rendell, J. C. Burant, S. S. Iyengar, 
 J. Tomasi, M. Cossi, J. M. Millam, M. Klene, C. Adamo, R. Cammi, 
 J. W. Ochterski, R. L. Martin, K. Morokuma, O. Farkas, 
 J. B. Foresman, and D. J. Fox, Gaussian, Inc., Wallingford CT, 2019.
 
 ******************************************
 Gaussian 16:  EM64L-G16RevC.01  3-Jul-2019
                26-Oct-2024 
 ******************************************
 %nprocshared=40
 Will use up to   40 processors via shared memory.
 %mem=50gb
 ------------------------------------------------------
 # PBE1PBE/aug-cc-pVDZ opt freq EmpiricalDispersion=GD3
 ------------------------------------------------------
 1/18=20,19=15,26=3,38=1/1,3;
 2/9=110,12=2,17=6,18=5,40=1/2;
 3/5=16,7=10,11=2,25=1,30=1,71=1,74=-13,124=31/1,2,3;
 4//1;
 5/5=2,38=5/2;
 6/7=2,8=2,9=2,10=2,28=1/1;
 7//1,2,3,16;
 1/18=20,19=15,26=3/3(2);
 2/9=110/2;
 99//99;
 2/9=110/2;
 3/5=16,7=10,11=2,25=1,30=1,71=1,74=-13,124=31/1,2,3;
 4/5=5,16=3,69=1/1;
 5/5=2,38=5/2;
 7//1,2,3,16;
 1/18=20,19=15,26=3/3(-5);
 2/9=110/2;
 6/7=2,8=2,9=2,10=2,19=2,28=1/1;
 99/9=1/99;
 ----
 blah
 ----
 Symbolic Z-matrix:
 Charge =  0 Multiplicity = 1
 C                    -2.08588  -0.20434   0.81454 
 C                    -1.16123  -1.34412   0.38752 
 C                    -0.41741  -0.72494  -0.80439 
 O                    -1.99487  -2.40921  -0.02655 
 H                    -0.46892  -1.66264   1.17668 
 O                    -1.20925   0.31699  -1.3053 
 H                    -0.239    -1.47934  -1.58047 
 C                     0.90084  -0.2003   -0.41203 
 C                    -2.40557   0.45465  -0.53098 
 H                    -1.52915   0.50719   1.43798 
 O                    -3.21473  -0.60932   1.53555 
 C                    -2.80403   1.90702  -0.46033 
 H                    -3.22335  -0.10477  -1.01628 
 O                    -1.78722   2.63289   0.21329 
 H                    -3.76354   1.95937   0.08065 
 H                    -2.95223   2.29064  -1.48279 
 H                    -3.48065  -1.46665   1.17706 
 H                    -1.44518  -3.18334  -0.18329 
 H                    -2.06736   3.54629   0.309 
 C                     1.13918   1.13384  -0.20214 
 N                     2.35771   1.60028   0.15407 
 C                     3.46785   0.68544   0.32546 
 N                     3.1171   -0.65586   0.0987 
 C                     1.88686  -1.15828  -0.24015 
 H                     0.27332   1.77919  -0.34222 
 H                     2.53094   2.65975   0.31568 
 H                     3.85111  -1.34247   0.22405 
 O                     4.61114   0.97085   0.63656 
 O                     1.66038  -2.35314  -0.3766 
 

 GradGradGradGradGradGradGradGradGradGradGradGradGradGradGradGradGradGrad
 Berny optimization.
 Initialization pass.
                           ----------------------------
                           !    Initial Parameters    !
                           ! (Angstroms and Degrees)  !
 --------------------------                            --------------------------
 ! Name  Definition              Value          Derivative Info.                !
 --------------------------------------------------------------------------------
 ! R1    R(1,2)                  1.5285         estimate D2E/DX2                !
 ! R2    R(1,9)                  1.532          estimate D2E/DX2                !
 ! R3    R(1,10)                 1.0977         estimate D2E/DX2                !
 ! R4    R(1,11)                 1.3994         estimate D2E/DX2                !
 ! R5    R(2,3)                  1.5353         estimate D2E/DX2                !
 ! R6    R(2,4)                  1.4145         estimate D2E/DX2                !
 ! R7    R(2,5)                  1.0971         estimate D2E/DX2                !
 ! R8    R(3,6)                  1.4013         estimate D2E/DX2                !
 ! R9    R(3,7)                  1.0969         estimate D2E/DX2                !
 ! R10   R(3,8)                  1.4721         estimate D2E/DX2                !
 ! R11   R(4,18)                 0.9623         estimate D2E/DX2                !
 ! R12   R(6,9)                  1.4317         estimate D2E/DX2                !
 ! R13   R(8,20)                 1.3714         estimate D2E/DX2                !
 ! R14   R(8,24)                 1.3855         estimate D2E/DX2                !
 ! R15   R(9,12)                 1.5077         estimate D2E/DX2                !
 ! R16   R(9,13)                 1.1033         estimate D2E/DX2                !
 ! R17   R(11,17)                0.9666         estimate D2E/DX2                !
 ! R18   R(12,14)                1.4194         estimate D2E/DX2                !
 ! R19   R(12,15)                1.1028         estimate D2E/DX2                !
 ! R20   R(12,16)                1.1021         estimate D2E/DX2                !
 ! R21   R(14,19)                0.9602         estimate D2E/DX2                !
 ! R22   R(20,21)                1.3525         estimate D2E/DX2                !
 ! R23   R(20,25)                1.0889         estimate D2E/DX2                !
 ! R24   R(21,22)                1.4487         estimate D2E/DX2                !
 ! R25   R(21,26)                1.0856         estimate D2E/DX2                !
 ! R26   R(22,23)                1.4048         estimate D2E/DX2                !
 ! R27   R(22,28)                1.2188         estimate D2E/DX2                !
 ! R28   R(23,24)                1.3714         estimate D2E/DX2                !
 ! R29   R(23,27)                1.0129         estimate D2E/DX2                !
 ! R30   R(24,29)                1.2238         estimate D2E/DX2                !
 ! A1    A(2,1,9)              101.6322         estimate D2E/DX2                !
 ! A2    A(2,1,10)             109.5855         estimate D2E/DX2                !
 ! A3    A(2,1,11)             114.5906         estimate D2E/DX2                !
 ! A4    A(9,1,10)             109.0172         estimate D2E/DX2                !
 ! A5    A(9,1,11)             114.1225         estimate D2E/DX2                !
 ! A6    A(10,1,11)            107.704          estimate D2E/DX2                !
 ! A7    A(1,2,3)              102.0768         estimate D2E/DX2                !
 ! A8    A(1,2,4)              106.663          estimate D2E/DX2                !
 ! A9    A(1,2,5)              113.4089         estimate D2E/DX2                !
 ! A10   A(3,2,4)              111.2186         estimate D2E/DX2                !
 ! A11   A(3,2,5)              111.7028         estimate D2E/DX2                !
 ! A12   A(4,2,5)              111.3384         estimate D2E/DX2                !
 ! A13   A(2,3,6)              107.6745         estimate D2E/DX2                !
 ! A14   A(2,3,7)              110.5296         estimate D2E/DX2                !
 ! A15   A(2,3,8)              111.7563         estimate D2E/DX2                !
 ! A16   A(6,3,7)              110.5106         estimate D2E/DX2                !
 ! A17   A(6,3,8)              109.6523         estimate D2E/DX2                !
 ! A18   A(7,3,8)              106.7398         estimate D2E/DX2                !
 ! A19   A(2,4,18)             108.4674         estimate D2E/DX2                !
 ! A20   A(3,6,9)              110.5089         estimate D2E/DX2                !
 ! A21   A(3,8,20)             122.8973         estimate D2E/DX2                !
 ! A22   A(3,8,24)             115.0848         estimate D2E/DX2                !
 ! A23   A(20,8,24)            122.0044         estimate D2E/DX2                !
 ! A24   A(1,9,6)              105.0275         estimate D2E/DX2                !
 ! A25   A(1,9,12)             115.364          estimate D2E/DX2                !
 ! A26   A(1,9,13)             108.8388         estimate D2E/DX2                !
 ! A27   A(6,9,12)             109.8041         estimate D2E/DX2                !
 ! A28   A(6,9,13)             109.434          estimate D2E/DX2                !
 ! A29   A(12,9,13)            108.2502         estimate D2E/DX2                !
 ! A30   A(1,11,17)            106.71           estimate D2E/DX2                !
 ! A31   A(9,12,14)            108.9995         estimate D2E/DX2                !
 ! A32   A(9,12,15)            107.3781         estimate D2E/DX2                !
 ! A33   A(9,12,16)            109.11           estimate D2E/DX2                !
 ! A34   A(14,12,15)           111.4831         estimate D2E/DX2                !
 ! A35   A(14,12,16)           111.0163         estimate D2E/DX2                !
 ! A36   A(15,12,16)           108.76           estimate D2E/DX2                !
 ! A37   A(12,14,19)           108.9529         estimate D2E/DX2                !
 ! A38   A(8,20,21)            122.1664         estimate D2E/DX2                !
 ! A39   A(8,20,25)            114.7496         estimate D2E/DX2                !
 ! A40   A(21,20,25)           123.0837         estimate D2E/DX2                !
 ! A41   A(20,21,22)           120.2498         estimate D2E/DX2                !
 ! A42   A(20,21,26)           121.3002         estimate D2E/DX2                !
 ! A43   A(22,21,26)           118.4498         estimate D2E/DX2                !
 ! A44   A(21,22,23)           113.1111         estimate D2E/DX2                !
 ! A45   A(21,22,28)           126.954          estimate D2E/DX2                !
 ! A46   A(23,22,28)           119.9344         estimate D2E/DX2                !
 ! A47   A(22,23,24)           127.8536         estimate D2E/DX2                !
 ! A48   A(22,23,27)           116.5076         estimate D2E/DX2                !
 ! A49   A(24,23,27)           115.6152         estimate D2E/DX2                !
 ! A50   A(8,24,23)            114.568          estimate D2E/DX2                !
 ! A51   A(8,24,29)            121.9769         estimate D2E/DX2                !
 ! A52   A(23,24,29)           123.4541         estimate D2E/DX2                !
 ! D1    D(9,1,2,3)             33.7471         estimate D2E/DX2                !
 ! D2    D(9,1,2,4)            -83.021          estimate D2E/DX2                !
 ! D3    D(9,1,2,5)            154.0589         estimate D2E/DX2                !
 ! D4    D(10,1,2,3)           -81.4895         estimate D2E/DX2                !
 ! D5    D(10,1,2,4)           161.7423         estimate D2E/DX2                !
 ! D6    D(10,1,2,5)            38.8223         estimate D2E/DX2                !
 ! D7    D(11,1,2,3)           157.326          estimate D2E/DX2                !
 ! D8    D(11,1,2,4)            40.5579         estimate D2E/DX2                !
 ! D9    D(11,1,2,5)           -82.3622         estimate D2E/DX2                !
 ! D10   D(2,1,9,6)            -34.398          estimate D2E/DX2                !
 ! D11   D(2,1,9,12)          -155.4285         estimate D2E/DX2                !
 ! D12   D(2,1,9,13)            82.7054         estimate D2E/DX2                !
 ! D13   D(10,1,9,6)            81.2569         estimate D2E/DX2                !
 ! D14   D(10,1,9,12)          -39.7736         estimate D2E/DX2                !
 ! D15   D(10,1,9,13)         -161.6397         estimate D2E/DX2                !
 ! D16   D(11,1,9,6)          -158.2942         estimate D2E/DX2                !
 ! D17   D(11,1,9,12)           80.6753         estimate D2E/DX2                !
 ! D18   D(11,1,9,13)          -41.1908         estimate D2E/DX2                !
 ! D19   D(2,1,11,17)          -34.4411         estimate D2E/DX2                !
 ! D20   D(9,1,11,17)           82.1668         estimate D2E/DX2                !
 ! D21   D(10,1,11,17)        -156.6536         estimate D2E/DX2                !
 ! D22   D(1,2,3,6)            -22.6345         estimate D2E/DX2                !
 ! D23   D(1,2,3,7)           -143.4319         estimate D2E/DX2                !
 ! D24   D(1,2,3,8)             97.8439         estimate D2E/DX2                !
 ! D25   D(4,2,3,6)             90.7953         estimate D2E/DX2                !
 ! D26   D(4,2,3,7)            -30.0021         estimate D2E/DX2                !
 ! D27   D(4,2,3,8)           -148.7263         estimate D2E/DX2                !
 ! D28   D(5,2,3,6)           -144.1302         estimate D2E/DX2                !
 ! D29   D(5,2,3,7)             95.0724         estimate D2E/DX2                !
 ! D30   D(5,2,3,8)            -23.6518         estimate D2E/DX2                !
 ! D31   D(1,2,4,18)          -172.1183         estimate D2E/DX2                !
 ! D32   D(3,2,4,18)            77.3649         estimate D2E/DX2                !
 ! D33   D(5,2,4,18)           -47.9135         estimate D2E/DX2                !
 ! D34   D(2,3,6,9)              0.9648         estimate D2E/DX2                !
 ! D35   D(7,3,6,9)            121.774          estimate D2E/DX2                !
 ! D36   D(8,3,6,9)           -120.8301         estimate D2E/DX2                !
 ! D37   D(2,3,8,20)          -101.5677         estimate D2E/DX2                !
 ! D38   D(2,3,8,24)            77.1191         estimate D2E/DX2                !
 ! D39   D(6,3,8,20)            17.7487         estimate D2E/DX2                !
 ! D40   D(6,3,8,24)          -163.5644         estimate D2E/DX2                !
 ! D41   D(7,3,8,20)           137.4796         estimate D2E/DX2                !
 ! D42   D(7,3,8,24)           -43.8336         estimate D2E/DX2                !
 ! D43   D(3,6,9,1)             21.3369         estimate D2E/DX2                !
 ! D44   D(3,6,9,12)           145.9542         estimate D2E/DX2                !
 ! D45   D(3,6,9,13)           -95.3594         estimate D2E/DX2                !
 ! D46   D(3,8,20,21)         -179.7878         estimate D2E/DX2                !
 ! D47   D(3,8,20,25)            0.3698         estimate D2E/DX2                !
 ! D48   D(24,8,20,21)           1.6147         estimate D2E/DX2                !
 ! D49   D(24,8,20,25)        -178.2278         estimate D2E/DX2                !
 ! D50   D(3,8,24,23)          178.7398         estimate D2E/DX2                !
 ! D51   D(3,8,24,29)           -1.6184         estimate D2E/DX2                !
 ! D52   D(20,8,24,23)          -2.5604         estimate D2E/DX2                !
 ! D53   D(20,8,24,29)         177.0814         estimate D2E/DX2                !
 ! D54   D(1,9,12,14)           55.3464         estimate D2E/DX2                !
 ! D55   D(1,9,12,15)          -65.5583         estimate D2E/DX2                !
 ! D56   D(1,9,12,16)          176.7267         estimate D2E/DX2                !
 ! D57   D(6,9,12,14)          -63.058          estimate D2E/DX2                !
 ! D58   D(6,9,12,15)          176.0373         estimate D2E/DX2                !
 ! D59   D(6,9,12,16)           58.3222         estimate D2E/DX2                !
 ! D60   D(13,9,12,14)         177.5282         estimate D2E/DX2                !
 ! D61   D(13,9,12,15)          56.6235         estimate D2E/DX2                !
 ! D62   D(13,9,12,16)         -61.0915         estimate D2E/DX2                !
 ! D63   D(9,12,14,19)        -176.3196         estimate D2E/DX2                !
 ! D64   D(15,12,14,19)        -57.9613         estimate D2E/DX2                !
 ! D65   D(16,12,14,19)         63.4683         estimate D2E/DX2                !
 ! D66   D(8,20,21,22)           0.0863         estimate D2E/DX2                !
 ! D67   D(8,20,21,26)         179.9361         estimate D2E/DX2                !
 ! D68   D(25,20,21,22)        179.9155         estimate D2E/DX2                !
 ! D69   D(25,20,21,26)         -0.2347         estimate D2E/DX2                !
 ! D70   D(20,21,22,23)         -0.5864         estimate D2E/DX2                !
 ! D71   D(20,21,22,28)        179.6759         estimate D2E/DX2                !
 ! D72   D(26,21,22,23)        179.5596         estimate D2E/DX2                !
 ! D73   D(26,21,22,28)         -0.1782         estimate D2E/DX2                !
 ! D74   D(21,22,23,24)         -0.5946         estimate D2E/DX2                !
 ! D75   D(21,22,23,27)       -178.7362         estimate D2E/DX2                !
 ! D76   D(28,22,23,24)        179.1636         estimate D2E/DX2                !
 ! D77   D(28,22,23,27)          1.022          estimate D2E/DX2                !
 ! D78   D(22,23,24,8)           2.1207         estimate D2E/DX2                !
 ! D79   D(22,23,24,29)       -177.5152         estimate D2E/DX2                !
 ! D80   D(27,23,24,8)        -179.7236         estimate D2E/DX2                !
 ! D81   D(27,23,24,29)          0.6406         estimate D2E/DX2                !
 --------------------------------------------------------------------------------
 Trust Radius=3.00D-01 FncErr=1.00D-07 GrdErr=1.00D-06 EigMax=2.50D+02 EigMin=1.00D-04
 Number of steps in this run=    173 maximum allowed number of steps=    174.
 GradGradGradGradGradGradGradGradGradGradGradGradGradGradGradGradGradGrad

                          Input orientation:                          
 ---------------------------------------------------------------------
 Center     Atomic      Atomic             Coordinates (Angstroms)
 Number     Number       Type             X           Y           Z
 ---------------------------------------------------------------------
      1          6           0       -2.085877   -0.204336    0.814538
      2          6           0       -1.161234   -1.344116    0.387522
      3          6           0       -0.417412   -0.724940   -0.804387
      4          8           0       -1.994874   -2.409210   -0.026553
      5          1           0       -0.468916   -1.662637    1.176679
      6          8           0       -1.209246    0.316991   -1.305295
      7          1           0       -0.238995   -1.479339   -1.580467
      8          6           0        0.900839   -0.200296   -0.412033
      9          6           0       -2.405572    0.454649   -0.530984
     10          1           0       -1.529150    0.507192    1.437979
     11          8           0       -3.214732   -0.609315    1.535553
     12          6           0       -2.804028    1.907017   -0.460332
     13          1           0       -3.223345   -0.104769   -1.016280
     14          8           0       -1.787221    2.632893    0.213291
     15          1           0       -3.763537    1.959371    0.080649
     16          1           0       -2.952228    2.290639   -1.482792
     17          1           0       -3.480647   -1.466648    1.177057
     18          1           0       -1.445175   -3.183343   -0.183293
     19          1           0       -2.067363    3.546288    0.308999
     20          6           0        1.139176    1.133836   -0.202135
     21          7           0        2.357713    1.600278    0.154065
     22          6           0        3.467845    0.685441    0.325464
     23          7           0        3.117097   -0.655863    0.098701
     24          6           0        1.886861   -1.158280   -0.240147
     25          1           0        0.273320    1.779188   -0.342216
     26          1           0        2.530939    2.659753    0.315681
     27          1           0        3.851106   -1.342466    0.224051
     28          8           0        4.611141    0.970849    0.636560
     29          8           0        1.660384   -2.353136   -0.376599
 ---------------------------------------------------------------------
                    Distance matrix (angstroms):
                    1          2          3          4          5
     1  C    0.000000
     2  C    1.528531   0.000000
     3  C    2.382377   1.535349   0.000000
     4  O    2.361606   1.414510   2.435196   0.000000
     5  H    2.207340   1.097055   2.192385   2.081751   0.000000
     6  O    2.352436   2.372174   1.401260   3.112003   3.259940
     7  H    3.282172   2.177565   1.096928   2.522384   2.772781
     8  C    3.228771   2.489931   1.472066   3.662383   2.557083
     9  C    1.531958   2.372253   2.327866   2.936803   3.339109
    10  H    1.097677   2.160130   2.789680   3.296537   2.429101
    11  O    1.399351   2.464703   3.648793   2.677284   2.962732
    12  C    2.568822   3.739986   3.569525   4.412789   4.568915
    13  H    2.157694   2.785488   2.881453   2.792696   3.850052
    14  O    2.915572   4.029742   3.766575   5.052074   4.595391
    15  H    2.834566   4.216536   4.380110   4.714251   5.017445
    16  H    3.500456   4.462867   3.997404   5.012558   5.372896
    17  H    1.915786   2.453173   3.722856   2.131812   3.018101
    18  H    3.206345   1.946589   2.736019   0.962298   2.261670
    19  H    3.784586   4.974262   4.712256   5.965384   5.517318
    20  C    3.636660   3.432175   2.498144   4.733527   3.508183
    21  N    4.841317   4.594230   3.745209   5.920611   4.436461
    22  C    5.645771   5.054832   4.284969   6.288249   4.662202
    23  N    5.271360   4.342951   3.648711   5.405753   3.877515
    24  C    4.219599   3.117593   2.411602   4.083909   2.794898
    25  H    3.292151   3.513615   2.638441   4.773576   3.834595
    26  H    5.455901   5.446859   4.626389   6.804006   5.331370
    27  H    6.073861   5.015005   4.433877   5.947792   4.435380
    28  O    6.801675   6.224259   5.498943   7.450097   5.747517
    29  O    4.480025   3.092496   2.674184   3.672409   2.724588
                    6          7          8          9         10
     6  O    0.000000
     7  H    2.060075   0.000000
     8  C    2.349034   2.073743   0.000000
     9  C    1.431678   3.088006   3.372752   0.000000
    10  H    2.768405   3.836903   3.134953   2.155851   0.000000
    11  O    3.598671   4.395627   4.571467   2.461165   2.024178
    12  C    2.405301   4.393348   4.262527   1.507691   2.681121
    13  H    2.077981   3.333781   4.169309   1.103274   3.044369
    14  O    2.829056   4.746053   3.955206   2.383495   2.466793
    15  H    3.338062   5.196771   5.163652   2.117157   2.990594
    16  H    2.639087   4.645848   4.711412   2.139072   3.706310
    17  H    3.808241   4.255867   4.829728   2.786498   2.787914
    18  H    3.683326   2.512090   3.801930   3.778655   4.031826
    19  H    3.710885   5.671855   4.833943   3.221520   3.286392
    20  C    2.720162   3.260037   1.371412   3.624179   3.194154
    21  N    4.061989   4.385833   2.384327   4.946781   4.236859
    22  C    4.966922   4.696755   2.813886   5.940016   5.122443
    23  N    4.651332   3.842014   2.319524   5.668299   4.973326
    24  C    3.591218   2.533535   1.385467   4.594682   4.154399
    25  H    2.294241   3.523312   2.077742   2.994411   2.834778
    26  H    4.701604   5.329164   3.371450   5.472519   4.730475
    27  H    5.540745   4.472577   3.226954   6.553298   5.817389
    28  O    6.170513   5.868769   4.029574   7.131892   6.209704
    29  O    4.028254   2.412563   2.283174   4.943631   4.652666
                   11         12         13         14         15
    11  O    0.000000
    12  C    3.237925   0.000000
    13  H    2.601248   2.128894   0.000000
    14  O    3.781280   1.419352   3.327024   0.000000
    15  H    3.002679   1.102751   2.399111   2.092140   0.000000
    16  H    4.193930   1.102068   2.455426   2.085923   1.792291
    17  H    0.966566   3.810574   2.594542   4.539028   3.608288
    18  H    3.565303   5.275888   3.651489   5.839767   5.647298
    19  H    4.482179   1.954931   4.052515   0.960172   2.333978
    20  C    5.001465   4.026578   4.607447   3.314144   4.979766
    21  N    6.151663   5.207220   5.951899   4.272035   6.132213
    22  C    6.913577   6.437866   6.869988   5.605432   7.346817
    23  N    6.492978   6.476156   6.461276   5.906046   7.360903
    24  C    5.429615   5.607938   5.275080   5.298818   6.461397
    25  H    4.625740   3.082266   4.028687   2.298528   4.062942
    26  H    6.722174   5.443407   6.521387   4.319457   6.337681
    27  H    7.223823   7.437629   7.288221   6.898864   8.300932
    28  O    8.034264   7.554093   8.078862   6.624242   8.451121
    29  O    5.519420   6.171458   5.414347   6.090520   6.944473
                   16         17         18         19         20
    16  H    0.000000
    17  H    4.633706   0.000000
    18  H    5.824464   2.990107   0.000000
    19  H    2.360118   5.280192   6.776238   0.000000
    20  C    4.440480   5.477906   5.031626   4.045130   0.000000
    21  N    5.599230   6.673754   6.120359   4.836554   1.352508
    22  C    6.860305   7.323813   6.274081   6.230830   2.429428
    23  N    6.929625   6.734274   5.223218   6.676895   2.684343
    24  C    6.070914   5.560009   3.899561   6.170122   2.411280
    25  H    3.459285   5.189982   5.254065   3.004250   1.088948
    26  H    5.782376   7.342229   7.085212   4.682987   2.129216
    27  H    7.899248   7.394474   5.621864   7.676940   3.697062
    28  O    7.964801   8.468209   7.389752   7.165375   3.575544
    29  O    6.638110   5.443336   3.220420   7.012086   3.530024
                   21         22         23         24         25
    21  N    0.000000
    22  C    1.448688   0.000000
    23  N    2.381155   1.404828   0.000000
    24  C    2.826083   2.493739   1.371394   0.000000
    25  H    2.150116   3.441957   3.769741   3.353006   0.000000
    26  H    1.085640   2.185360   3.374014   3.911669   2.510989
    27  H    3.300737   2.066296   1.012870   2.026737   4.781834
    28  O    2.388916   1.218755   2.273247   3.567003   4.519746
    29  O    4.049365   3.604547   2.286626   1.223761   4.359040
                   26         27         28         29
    26  H    0.000000
    27  H    4.215328   0.000000
    28  O    2.698629   2.469665   0.000000
    29  O    5.134800   2.486262   4.558765   0.000000
 Stoichiometry    C9H12N2O6
 Framework group  C1[X(C9H12N2O6)]
 Deg. of freedom    81
 Full point group                 C1      NOp   1
 Largest Abelian subgroup         C1      NOp   1
 Largest concise Abelian subgroup C1      NOp   1
                         Standard orientation:                         
 ---------------------------------------------------------------------
 Center     Atomic      Atomic             Coordinates (Angstroms)
 Number     Number       Type             X           Y           Z
 ---------------------------------------------------------------------
      1          6           0       -2.098174   -0.200076    0.812476
      2          6           0       -1.183677   -1.347938    0.385260
      3          6           0       -0.435899   -0.735889   -0.807854
      4          8           0       -2.026752   -2.406207   -0.027211
      5          1           0       -0.493246   -1.671786    1.173903
      6          8           0       -1.219406    0.312379   -1.308635
      7          1           0       -0.264705   -1.492294   -1.583608
      8          6           0        0.887166   -0.222173   -0.417248
      9          6           0       -2.413700    0.460691   -0.533156
     10          1           0       -1.534776    0.507126    1.434845
     11          8           0       -3.229655   -0.594989    1.534957
     12          6           0       -2.799758    1.916431   -0.463071
     13          1           0       -3.236699   -0.092102   -1.017208
     14          8           0       -1.776122    2.634115    0.208985
     15          1           0       -3.758215    1.977278    0.078886
     16          1           0       -2.945787    2.300609   -1.485635
     17          1           0       -3.503206   -1.450278    1.177325
     18          1           0       -1.483799   -3.185076   -0.184004
     19          1           0       -2.048412    3.549916    0.304367
     20          6           0        1.137023    1.110032   -0.208509
     21          7           0        2.359847    1.566369    0.146088
     22          6           0        3.462367    0.642271    0.316937
     23          7           0        3.100025   -0.696164    0.091457
     24          6           0        1.865216   -1.188364   -0.245751
     25          1           0        0.276519    1.762605   -0.348115
     26          1           0        2.542216    2.624446    0.306800
     27          1           0        3.828321   -1.388879    0.216500
     28          8           0        4.608370    0.918188    0.626633
     29          8           0        1.628477   -2.381349   -0.381151
 ---------------------------------------------------------------------
 Rotational constants (GHZ):           0.7967980           0.3286678           0.2599539
 Standard basis: Aug-CC-pVDZ (5D, 7F)
 There are   533 symmetry adapted cartesian basis functions of A   symmetry.
 There are   499 symmetry adapted basis functions of A   symmetry.
   499 basis functions,   863 primitive gaussians,   533 cartesian basis functions
    64 alpha electrons       64 beta electrons
       nuclear repulsion energy      1324.0696304212 Hartrees.
 NAtoms=   29 NActive=   29 NUniq=   29 SFac= 1.00D+00 NAtFMM=   60 NAOKFM=F Big=F
 Integral buffers will be    131072 words long.
 Raffenetti 2 integral format.
 Two-electron integral symmetry is turned on.
 Nuclear repulsion after empirical dispersion term =     1324.0492270800 Hartrees.
 One-electron integrals computed using PRISM.
 NBasis=   499 RedAO= T EigKep=  2.75D-06  NBF=   499
 NBsUse=   499 1.00D-06 EigRej= -1.00D+00 NBFU=   499
 ExpMin= 2.97D-02 ExpMax= 1.17D+04 ExpMxC= 4.01D+02 IAcc=3 IRadAn=         5 AccDes= 0.00D+00
 Harris functional with IExCor= 1009 and IRadAn=       5 diagonalized for initial guess.
 HarFok:  IExCor= 1009 AccDes= 0.00D+00 IRadAn=         5 IDoV= 1 UseB2=F ITyADJ=14
 ICtDFT=  3500011 ScaDFX=  1.000000  1.000000  1.000000  1.000000
 FoFCou: FMM=F IPFlag=           0 FMFlag=      100000 FMFlg1=           0
         NFxFlg=           0 DoJE=T BraDBF=F KetDBF=T FulRan=T
         wScrn=  0.000000 ICntrl=       500 IOpCl=  0 I1Cent=   200000004 NGrid=           0
         NMat0=    1 NMatS0=      1 NMatT0=    0 NMatD0=    1 NMtDS0=    0 NMtDT0=    0
 Petite list used in FoFCou.
 Requested convergence on RMS density matrix=1.00D-08 within 128 cycles.
 Requested convergence on MAX density matrix=1.00D-06.
 Requested convergence on             energy=1.00D-06.
 No special actions if energy rises.
 SCF Done:  E(RPBE1PBE) =  -910.210128199     A.U. after   14 cycles
            NFock= 14  Conv=0.81D-08     -V/T= 2.0053

 **********************************************************************

            Population analysis using the SCF Density.

 **********************************************************************

 Orbital symmetries:
       Occupied  (A) (A) (A) (A) (A) (A) (A) (A) (A) (A) (A) (A)
                 (A) (A) (A) (A) (A) (A) (A) (A) (A) (A) (A) (A)
                 (A) (A) (A) (A) (A) (A) (A) (A) (A) (A) (A) (A)
                 (A) (A) (A) (A) (A) (A) (A) (A) (A) (A) (A) (A)
                 (A) (A) (A) (A) (A) (A) (A) (A) (A) (A) (A) (A)
                 (A) (A) (A) (A)
       Virtual   (A) (A) (A) (A) (A) (A) (A) (A) (A) (A) (A) (A)
                 (A) (A) (A) (A) (A) (A) (A) (A) (A) (A) (A) (A)
                 (A) (A) (A) (A) (A) (A) (A) (A) (A) (A) (A) (A)
                 (A) (A) (A) (A) (A) (A) (A) (A) (A) (A) (A) (A)
                 (A) (A) (A) (A) (A) (A) (A) (A) (A) (A) (A) (A)
                 (A) (A) (A) (A) (A) (A) (A) (A) (A) (A) (A) (A)
                 (A) (A) (A) (A) (A) (A) (A) (A) (A) (A) (A) (A)
                 (A) (A) (A) (A) (A) (A) (A) (A) (A) (A) (A) (A)
                 (A) (A) (A) (A) (A) (A) (A) (A) (A) (A) (A) (A)
                 (A) (A) (A) (A) (A) (A) (A) (A) (A) (A) (A) (A)
                 (A) (A) (A) (A) (A) (A) (A) (A) (A) (A) (A) (A)
                 (A) (A) (A) (A) (A) (A) (A) (A) (A) (A) (A) (A)
                 (A) (A) (A) (A) (A) (A) (A) (A) (A) (A) (A) (A)
                 (A) (A) (A) (A) (A) (A) (A) (A) (A) (A) (A) (A)
                 (A) (A) (A) (A) (A) (A) (A) (A) (A) (A) (A) (A)
                 (A) (A) (A) (A) (A) (A) (A) (A) (A) (A) (A) (A)
                 (A) (A) (A) (A) (A) (A) (A) (A) (A) (A) (A) (A)
                 (A) (A) (A) (A) (A) (A) (A) (A) (A) (A) (A) (A)
                 (A) (A) (A) (A) (A) (A) (A) (A) (A) (A) (A) (A)
                 (A) (A) (A) (A) (A) (A) (A) (A) (A) (A) (A) (A)
                 (A) (A) (A) (A) (A) (A) (A) (A) (A) (A) (A) (A)
                 (A) (A) (A) (A) (A) (A) (A) (A) (A) (A) (A) (A)
                 (A) (A) (A) (A) (A) (A) (A) (A) (A) (A) (A) (A)
                 (A) (A) (A) (A) (A) (A) (A) (A) (A) (A) (A) (A)
                 (A) (A) (A) (A) (A) (A) (A) (A) (A) (A) (A) (A)
                 (A) (A) (A) (A) (A) (A) (A) (A) (A) (A) (A) (A)
                 (A) (A) (A) (A) (A) (A) (A) (A) (A) (A) (A) (A)
                 (A) (A) (A) (A) (A) (A) (A) (A) (A) (A) (A) (A)
                 (A) (A) (A) (A) (A) (A) (A) (A) (A) (A) (A) (A)
                 (A) (A) (A) (A) (A) (A) (A) (A) (A) (A) (A) (A)
                 (A) (A) (A) (A) (A) (A) (A) (A) (A) (A) (A) (A)
                 (A) (A) (A) (A) (A) (A) (A) (A) (A) (A) (A) (A)
                 (A) (A) (A) (A) (A) (A) (A) (A) (A) (A) (A) (A)
                 (A) (A) (A) (A) (A) (A) (A) (A) (A) (A) (A) (A)
                 (A) (A) (A) (A) (A) (A) (A) (A) (A) (A) (A) (A)
                 (A) (A) (A) (A) (A) (A) (A) (A) (A) (A) (A) (A)
                 (A) (A) (A)
 The electronic state is 1-A.
 Alpha  occ. eigenvalues --  -19.24883 -19.24472 -19.23830 -19.23099 -19.22340
 Alpha  occ. eigenvalues --  -19.20286 -14.48918 -14.46178 -10.40511 -10.34375
 Alpha  occ. eigenvalues --  -10.30950 -10.29317 -10.29275 -10.28883 -10.28878
 Alpha  occ. eigenvalues --  -10.28808 -10.24304  -1.11839  -1.10610  -1.08557
 Alpha  occ. eigenvalues --   -1.08098  -1.07189  -1.05775  -1.01593  -0.96570
 Alpha  occ. eigenvalues --   -0.85285  -0.80804  -0.78397  -0.72585  -0.70083
 Alpha  occ. eigenvalues --   -0.68934  -0.64527  -0.62298  -0.59621  -0.59149
 Alpha  occ. eigenvalues --   -0.56955  -0.56066  -0.54188  -0.53532  -0.50536
 Alpha  occ. eigenvalues --   -0.49974  -0.49420  -0.48844  -0.47653  -0.46534
 Alpha  occ. eigenvalues --   -0.45604  -0.44447  -0.43685  -0.43365  -0.42325
 Alpha  occ. eigenvalues --   -0.41325  -0.39336  -0.38576  -0.37868  -0.37190
 Alpha  occ. eigenvalues --   -0.34976  -0.32374  -0.31546  -0.31151  -0.31037
 Alpha  occ. eigenvalues --   -0.29659  -0.28545  -0.27589  -0.25293
 Alpha virt. eigenvalues --   -0.04655  -0.02137  -0.00638  -0.00440   0.00002
 Alpha virt. eigenvalues --    0.01127   0.01302   0.02047   0.02731   0.03338
 Alpha virt. eigenvalues --    0.03762   0.04212   0.05232   0.05419   0.06008
 Alpha virt. eigenvalues --    0.06543   0.06668   0.07103   0.07858   0.08322
 Alpha virt. eigenvalues --    0.08607   0.09083   0.09317   0.09378   0.09917
 Alpha virt. eigenvalues --    0.10254   0.10988   0.11273   0.11432   0.11611
 Alpha virt. eigenvalues --    0.11834   0.12143   0.12210   0.12654   0.12732
 Alpha virt. eigenvalues --    0.13383   0.13457   0.13631   0.14203   0.14476
 Alpha virt. eigenvalues --    0.14744   0.15449   0.15782   0.16155   0.16606
 Alpha virt. eigenvalues --    0.17143   0.17361   0.17975   0.18231   0.18485
 Alpha virt. eigenvalues --    0.18573   0.19383   0.19668   0.19890   0.20315
 Alpha virt. eigenvalues --    0.20875   0.21092   0.22004   0.22104   0.22447
 Alpha virt. eigenvalues --    0.22614   0.23054   0.23268   0.23860   0.24150
 Alpha virt. eigenvalues --    0.24586   0.24760   0.25303   0.25692   0.25946
 Alpha virt. eigenvalues --    0.26260   0.26752   0.26972   0.27382   0.27665
 Alpha virt. eigenvalues --    0.28172   0.28302   0.28477   0.28830   0.29258
 Alpha virt. eigenvalues --    0.29545   0.29788   0.30195   0.30330   0.30611
 Alpha virt. eigenvalues --    0.31044   0.31256   0.31754   0.32425   0.32681
 Alpha virt. eigenvalues --    0.32980   0.33194   0.33780   0.34362   0.35336
 Alpha virt. eigenvalues --    0.35631   0.36497   0.36562   0.36743   0.37292
 Alpha virt. eigenvalues --    0.37619   0.38269   0.38422   0.38764   0.39013
 Alpha virt. eigenvalues --    0.39492   0.39704   0.40477   0.41141   0.41882
 Alpha virt. eigenvalues --    0.42369   0.42980   0.43263   0.43501   0.43978
 Alpha virt. eigenvalues --    0.44885   0.45148   0.45580   0.45936   0.46649
 Alpha virt. eigenvalues --    0.46771   0.47620   0.47866   0.48254   0.49051
 Alpha virt. eigenvalues --    0.49763   0.50219   0.50889   0.51176   0.51590
 Alpha virt. eigenvalues --    0.52069   0.52511   0.53659   0.54403   0.54732
 Alpha virt. eigenvalues --    0.54969   0.55946   0.56737   0.56885   0.57012
 Alpha virt. eigenvalues --    0.57723   0.58385   0.59022   0.59758   0.59853
 Alpha virt. eigenvalues --    0.60134   0.60827   0.61401   0.61770   0.62463
 Alpha virt. eigenvalues --    0.62682   0.62886   0.63762   0.64982   0.65222
 Alpha virt. eigenvalues --    0.65304   0.65736   0.66228   0.67048   0.67166
 Alpha virt. eigenvalues --    0.67760   0.68159   0.68685   0.69252   0.69463
 Alpha virt. eigenvalues --    0.70045   0.70776   0.71345   0.71951   0.72465
 Alpha virt. eigenvalues --    0.73074   0.73706   0.74312   0.75366   0.75917
 Alpha virt. eigenvalues --    0.76271   0.77217   0.77304   0.77575   0.77853
 Alpha virt. eigenvalues --    0.78820   0.79058   0.80169   0.80462   0.81222
 Alpha virt. eigenvalues --    0.81701   0.82300   0.82411   0.83324   0.83885
 Alpha virt. eigenvalues --    0.84994   0.85921   0.86178   0.87110   0.87528
 Alpha virt. eigenvalues --    0.89223   0.89659   0.90130   0.90273   0.91264
 Alpha virt. eigenvalues --    0.91982   0.93509   0.94149   0.94962   0.95717
 Alpha virt. eigenvalues --    0.96298   0.97004   0.97868   0.98171   0.98758
 Alpha virt. eigenvalues --    1.00354   1.02727   1.03139   1.04278   1.04590
 Alpha virt. eigenvalues --    1.05319   1.06153   1.07042   1.07381   1.07787
 Alpha virt. eigenvalues --    1.08631   1.09465   1.09609   1.10866   1.11256
 Alpha virt. eigenvalues --    1.12202   1.13370   1.14365   1.14873   1.15702
 Alpha virt. eigenvalues --    1.16806   1.18076   1.18579   1.19605   1.20631
 Alpha virt. eigenvalues --    1.22208   1.23461   1.23576   1.24512   1.25294
 Alpha virt. eigenvalues --    1.25908   1.26226   1.27373   1.29148   1.29332
 Alpha virt. eigenvalues --    1.31074   1.32089   1.33027   1.33262   1.33842
 Alpha virt. eigenvalues --    1.35416   1.36335   1.38096   1.39248   1.39993
 Alpha virt. eigenvalues --    1.41096   1.42014   1.42759   1.43774   1.45053
 Alpha virt. eigenvalues --    1.46516   1.47472   1.48046   1.49579   1.49740
 Alpha virt. eigenvalues --    1.50325   1.52246   1.52710   1.52849   1.55013
 Alpha virt. eigenvalues --    1.55363   1.56829   1.56957   1.57634   1.58277
 Alpha virt. eigenvalues --    1.60649   1.61522   1.62017   1.63474   1.64919
 Alpha virt. eigenvalues --    1.66342   1.67503   1.68721   1.68933   1.69672
 Alpha virt. eigenvalues --    1.70407   1.71117   1.71340   1.73936   1.75273
 Alpha virt. eigenvalues --    1.75449   1.76581   1.77407   1.78985   1.79301
 Alpha virt. eigenvalues --    1.80710   1.81044   1.82324   1.83543   1.84135
 Alpha virt. eigenvalues --    1.84683   1.86429   1.87419   1.88406   1.89533
 Alpha virt. eigenvalues --    1.90825   1.91864   1.92967   1.93623   1.94164
 Alpha virt. eigenvalues --    1.95586   1.96030   1.96918   1.98750   1.98903
 Alpha virt. eigenvalues --    2.00067   2.00863   2.02480   2.02719   2.03405
 Alpha virt. eigenvalues --    2.05388   2.06227   2.07525   2.08583   2.09251
 Alpha virt. eigenvalues --    2.10007   2.11420   2.11818   2.13128   2.14079
 Alpha virt. eigenvalues --    2.14953   2.15746   2.17101   2.17313   2.17487
 Alpha virt. eigenvalues --    2.18897   2.20131   2.21160   2.22054   2.23370
 Alpha virt. eigenvalues --    2.25514   2.27167   2.27596   2.28242   2.29264
 Alpha virt. eigenvalues --    2.30352   2.32015   2.32931   2.33820   2.35338
 Alpha virt. eigenvalues --    2.37469   2.40714   2.41553   2.43460   2.44015
 Alpha virt. eigenvalues --    2.44853   2.45309   2.46210   2.48080   2.49456
 Alpha virt. eigenvalues --    2.50038   2.51073   2.52067   2.53755   2.54368
 Alpha virt. eigenvalues --    2.56027   2.56112   2.58174   2.59345   2.59651
 Alpha virt. eigenvalues --    2.61575   2.64132   2.65568   2.68851   2.70883
 Alpha virt. eigenvalues --    2.72006   2.75224   2.77247   2.79088   2.81156
 Alpha virt. eigenvalues --    2.82034   2.83423   2.85639   2.86192   2.89711
 Alpha virt. eigenvalues --    2.91113   2.91976   2.95047   2.97079   2.97662
 Alpha virt. eigenvalues --    3.03119   3.09939   3.14811   3.15624   3.21438
 Alpha virt. eigenvalues --    3.27246   3.28653   3.33349   3.34569   3.35824
 Alpha virt. eigenvalues --    3.42107   3.42527   3.43451   3.45725   3.46405
 Alpha virt. eigenvalues --    3.46835   3.48966   3.49568   3.51066   3.53204
 Alpha virt. eigenvalues --    3.54100   3.55543   3.57373   3.58657   3.59927
 Alpha virt. eigenvalues --    3.61054   3.62282   3.65002   3.66176   3.67292
 Alpha virt. eigenvalues --    3.68603   3.70682   3.71694   3.72944   3.78608
 Alpha virt. eigenvalues --    3.81313   3.85026   3.89232   3.95903   4.03301
 Alpha virt. eigenvalues --    4.04744   4.11182   4.17219   4.45260   4.57597
          Condensed to atoms (all electrons):
               1          2          3          4          5          6
     1  C    7.793851  -1.462965   1.139213   0.078345   0.285877   0.053471
     2  C   -1.462965   9.081427  -2.385028  -0.617595  -1.213829  -0.095766
     3  C    1.139213  -2.385028  13.659098   0.071209   0.515626  -0.216301
     4  O    0.078345  -0.617595   0.071209   8.704375  -0.022651   0.022281
     5  H    0.285877  -1.213829   0.515626  -0.022651   2.284645  -0.000861
     6  O    0.053471  -0.095766  -0.216301   0.022281  -0.000861   9.469474
     7  H   -0.064897   0.175605  -0.880209   0.021361   0.090692  -0.220626
     8  C   -0.166111   0.871025  -2.316615   0.039734  -0.339481   0.099897
     9  C   -1.599156   0.391471  -2.235290   0.114776   0.052710  -0.085673
    10  H   -0.576532   0.232488  -0.050953   0.011418  -0.181523   0.021650
    11  O   -0.210800  -0.013887  -0.012504  -0.018537   0.026981  -0.009237
    12  C   -0.120730  -0.148123   0.309581  -0.001034   0.029483  -0.184270
    13  H    0.297832  -0.069245   0.326868  -0.019294  -0.003341  -0.087186
    14  O   -0.003080   0.011312   0.001686  -0.000355  -0.004449   0.014670
    15  H   -0.008415   0.059762   0.004319  -0.002134   0.002302   0.087582
    16  H   -0.029279  -0.014387  -0.002050  -0.000226   0.000170  -0.060553
    17  H   -0.162016   0.028011   0.010991   0.019013  -0.006072   0.002241
    18  H   -0.041297   0.127829  -0.073372   0.337892  -0.105562   0.004126
    19  H   -0.012620   0.002726  -0.015114  -0.000296   0.000334  -0.013388
    20  C    0.020997  -0.379744  -2.169450   0.051168  -0.000000   0.116914
    21  N    0.028295  -0.005692   0.380190  -0.001772   0.007964   0.014664
    22  C   -0.013121  -0.003179  -0.383757   0.002037  -0.010138   0.011091
    23  N    0.002541  -0.010296  -0.376971   0.002539  -0.010332   0.004939
    24  C   -0.105229   0.218642  -0.206024  -0.016799   0.076256  -0.126172
    25  H   -0.023713  -0.003576   0.116190   0.003808   0.021390  -0.024866
    26  H   -0.000230  -0.001822  -0.005510   0.000076  -0.000498  -0.002989
    27  H   -0.000250   0.001472   0.023049   0.000034   0.000192   0.001232
    28  O    0.001218  -0.002238   0.013326   0.000000  -0.000197   0.000125
    29  O   -0.005489   0.040560  -0.138634  -0.003967  -0.031770   0.009911
               7          8          9         10         11         12
     1  C   -0.064897  -0.166111  -1.599156  -0.576532  -0.210800  -0.120730
     2  C    0.175605   0.871025   0.391471   0.232488  -0.013887  -0.148123
     3  C   -0.880209  -2.316615  -2.235290  -0.050953  -0.012504   0.309581
     4  O    0.021361   0.039734   0.114776   0.011418  -0.018537  -0.001034
     5  H    0.090692  -0.339481   0.052710  -0.181523   0.026981   0.029483
     6  O   -0.220626   0.099897  -0.085673   0.021650  -0.009237  -0.184270
     7  H    1.925346   0.290536   0.224111  -0.018605   0.006835   0.010402
     8  C    0.290536  13.623814   0.504219  -0.029209   0.002491  -0.141791
     9  C    0.224111   0.504219   9.889204  -0.154280   0.178176  -0.416567
    10  H   -0.018605  -0.029209  -0.154280   2.230731  -0.193484  -0.090192
    11  O    0.006835   0.002491   0.178176  -0.193484   8.524894   0.023386
    12  C    0.010402  -0.141791  -0.416567  -0.090192   0.023386   5.420046
    13  H    0.011093  -0.119250  -1.393333   0.111194  -0.021463   0.047314
    14  O   -0.004816   0.049797  -0.201728   0.013770  -0.003827   0.237544
    15  H   -0.000355   0.026659   0.002054  -0.018632   0.011247  -0.001279
    16  H   -0.000961  -0.034818   0.294176   0.015792  -0.001160   0.009533
    17  H   -0.002429  -0.019054   0.031336   0.033440   0.340910  -0.008483
    18  H   -0.022512   0.038038  -0.025107   0.005477   0.001593  -0.004132
    19  H    0.000394   0.016513   0.050801  -0.006611   0.000757  -0.071341
    20  C   -0.033594  -3.311258  -0.245462   0.074414  -0.005211  -0.099432
    21  N   -0.008161   0.230138   0.011416  -0.002094  -0.000813  -0.010152
    22  C   -0.008129   0.067658  -0.000706   0.002354   0.000420  -0.016184
    23  N    0.012435   0.172484  -0.008704   0.003910   0.000019  -0.005655
    24  C   -0.087530  -4.467868   0.012649  -0.029126   0.007094   0.037692
    25  H    0.034995   0.143597  -0.039377  -0.016310  -0.000619   0.054740
    26  H   -0.000368   0.051713   0.000787   0.000162   0.000099  -0.001785
    27  H   -0.001570   0.150456   0.000720   0.000065  -0.000003  -0.000139
    28  O    0.000675   0.026333  -0.000003   0.000081  -0.000011   0.000309
    29  O   -0.001563   0.067266   0.006917   0.005329  -0.001061  -0.004086
              13         14         15         16         17         18
     1  C    0.297832  -0.003080  -0.008415  -0.029279  -0.162016  -0.041297
     2  C   -0.069245   0.011312   0.059762  -0.014387   0.028011   0.127829
     3  C    0.326868   0.001686   0.004319  -0.002050   0.010991  -0.073372
     4  O   -0.019294  -0.000355  -0.002134  -0.000226   0.019013   0.337892
     5  H   -0.003341  -0.004449   0.002302   0.000170  -0.006072  -0.105562
     6  O   -0.087186   0.014670   0.087582  -0.060553   0.002241   0.004126
     7  H    0.011093  -0.004816  -0.000355  -0.000961  -0.002429  -0.022512
     8  C   -0.119250   0.049797   0.026659  -0.034818  -0.019054   0.038038
     9  C   -1.393333  -0.201728   0.002054   0.294176   0.031336  -0.025107
    10  H    0.111194   0.013770  -0.018632   0.015792   0.033440   0.005477
    11  O   -0.021463  -0.003827   0.011247  -0.001160   0.340910   0.001593
    12  C    0.047314   0.237544  -0.001279   0.009533  -0.008483  -0.004132
    13  H    2.547363   0.047429  -0.102316  -0.030706  -0.001865   0.002141
    14  O    0.047429   8.306655  -0.096657  -0.074709  -0.000847   0.000439
    15  H   -0.102316  -0.096657   1.558151  -0.240527   0.002149   0.000034
    16  H   -0.030706  -0.074709  -0.240527   1.346824  -0.001948  -0.000426
    17  H   -0.001865  -0.000847   0.002149  -0.001948   0.634182  -0.001478
    18  H    0.002141   0.000439   0.000034  -0.000426  -0.001478   0.608402
    19  H    0.004081   0.393208  -0.026695  -0.026928   0.000184  -0.000037
    20  C    0.042545  -0.056474  -0.032032   0.041968  -0.006760   0.008535
    21  N   -0.002278   0.008626   0.001896  -0.001983   0.000579  -0.001385
    22  C    0.000021  -0.002206  -0.000516  -0.000212  -0.000254   0.001485
    23  N    0.000519   0.000009  -0.000067  -0.000545  -0.000230   0.002512
    24  C   -0.004230  -0.002661   0.002116   0.001269   0.003565  -0.015333
    25  H    0.005801  -0.006741  -0.003297   0.013371   0.000742  -0.001476
    26  H    0.000054   0.000881   0.000059  -0.000168  -0.000011   0.000002
    27  H    0.000072  -0.000128  -0.000001   0.000019  -0.000011  -0.000196
    28  O    0.000002   0.000078   0.000030   0.000002  -0.000004  -0.000037
    29  O    0.000293   0.000020  -0.000108  -0.000216  -0.000108   0.007647
              19         20         21         22         23         24
     1  C   -0.012620   0.020997   0.028295  -0.013121   0.002541  -0.105229
     2  C    0.002726  -0.379744  -0.005692  -0.003179  -0.010296   0.218642
     3  C   -0.015114  -2.169450   0.380190  -0.383757  -0.376971  -0.206024
     4  O   -0.000296   0.051168  -0.001772   0.002037   0.002539  -0.016799
     5  H    0.000334  -0.000000   0.007964  -0.010138  -0.010332   0.076256
     6  O   -0.013388   0.116914   0.014664   0.011091   0.004939  -0.126172
     7  H    0.000394  -0.033594  -0.008161  -0.008129   0.012435  -0.087530
     8  C    0.016513  -3.311258   0.230138   0.067658   0.172484  -4.467868
     9  C    0.050801  -0.245462   0.011416  -0.000706  -0.008704   0.012649
    10  H   -0.006611   0.074414  -0.002094   0.002354   0.003910  -0.029126
    11  O    0.000757  -0.005211  -0.000813   0.000420   0.000019   0.007094
    12  C   -0.071341  -0.099432  -0.010152  -0.016184  -0.005655   0.037692
    13  H    0.004081   0.042545  -0.002278   0.000021   0.000519  -0.004230
    14  O    0.393208  -0.056474   0.008626  -0.002206   0.000009  -0.002661
    15  H   -0.026695  -0.032032   0.001896  -0.000516  -0.000067   0.002116
    16  H   -0.026928   0.041968  -0.001983  -0.000212  -0.000545   0.001269
    17  H    0.000184  -0.006760   0.000579  -0.000254  -0.000230   0.003565
    18  H   -0.000037   0.008535  -0.001385   0.001485   0.002512  -0.015333
    19  H    0.567048  -0.018517   0.001795  -0.000749  -0.000400   0.003293
    20  C   -0.018517  15.869069  -1.472407   0.054516   0.651587  -3.303721
    21  N    0.001795  -1.472407   8.074738  -0.041169  -0.135900   0.272124
    22  C   -0.000749   0.054516  -0.041169   6.307049   0.008785  -0.505841
    23  N   -0.000400   0.651587  -0.135900   0.008785   7.439737  -0.531879
    24  C    0.003293  -3.303721   0.272124  -0.505841  -0.531879  14.341146
    25  H   -0.003969  -0.987547   0.079722  -0.094433  -0.028113   0.180465
    26  H   -0.000247  -0.187740   0.430248  -0.112243   0.014465  -0.061133
    27  H   -0.000005  -0.146562   0.043226  -0.212167   0.356278  -0.182885
    28  O   -0.000036   0.092278  -0.108600   0.086259  -0.114250   0.014397
    29  O   -0.000101  -0.032495  -0.002171   0.031820  -0.106869   0.153034
              25         26         27         28         29
     1  C   -0.023713  -0.000230  -0.000250   0.001218  -0.005489
     2  C   -0.003576  -0.001822   0.001472  -0.002238   0.040560
     3  C    0.116190  -0.005510   0.023049   0.013326  -0.138634
     4  O    0.003808   0.000076   0.000034   0.000000  -0.003967
     5  H    0.021390  -0.000498   0.000192  -0.000197  -0.031770
     6  O   -0.024866  -0.002989   0.001232   0.000125   0.009911
     7  H    0.034995  -0.000368  -0.001570   0.000675  -0.001563
     8  C    0.143597   0.051713   0.150456   0.026333   0.067266
     9  C   -0.039377   0.000787   0.000720  -0.000003   0.006917
    10  H   -0.016310   0.000162   0.000065   0.000081   0.005329
    11  O   -0.000619   0.000099  -0.000003  -0.000011  -0.001061
    12  C    0.054740  -0.001785  -0.000139   0.000309  -0.004086
    13  H    0.005801   0.000054   0.000072   0.000002   0.000293
    14  O   -0.006741   0.000881  -0.000128   0.000078   0.000020
    15  H   -0.003297   0.000059  -0.000001   0.000030  -0.000108
    16  H    0.013371  -0.000168   0.000019   0.000002  -0.000216
    17  H    0.000742  -0.000011  -0.000011  -0.000004  -0.000108
    18  H   -0.001476   0.000002  -0.000196  -0.000037   0.007647
    19  H   -0.003969  -0.000247  -0.000005  -0.000036  -0.000101
    20  C   -0.987547  -0.187740  -0.146562   0.092278  -0.032495
    21  N    0.079722   0.430248   0.043226  -0.108600  -0.002171
    22  C   -0.094433  -0.112243  -0.212167   0.086259   0.031820
    23  N   -0.028113   0.014465   0.356278  -0.114250  -0.106869
    24  C    0.180465  -0.061133  -0.182885   0.014397   0.153034
    25  H    2.176498  -0.001596  -0.003464   0.005490  -0.007175
    26  H   -0.001596   0.832222  -0.004925   0.004767   0.002292
    27  H   -0.003464  -0.004925   1.065729  -0.001243  -0.025255
    28  O    0.005490   0.004767  -0.001243   8.548008  -0.001818
    29  O   -0.007175   0.002292  -0.025255  -0.001818   8.832366
 Mulliken charges:
               1
     1  C    0.904290
     2  C    1.185041
     3  C    0.896438
     4  O   -0.775406
     5  H   -0.463917
     6  O   -0.806379
     7  H   -0.448156
     8  C    0.473087
     9  C    0.639865
    10  H   -0.394724
    11  O   -0.632283
    12  C    1.145345
    13  H   -0.590115
    14  O   -0.627448
    15  H   -0.225329
    16  H   -0.201321
    17  H    0.104226
    18  H    0.146196
    19  H    0.155920
    20  C    1.464416
    21  N   -0.791047
    22  C    0.831506
    23  N   -0.342547
    24  C    0.322691
    25  H   -0.590537
    26  H    0.043439
    27  H   -0.063741
    28  O   -0.564941
    29  O   -0.794570
 Sum of Mulliken charges =  -0.00000
 Mulliken charges with hydrogens summed into heavy atoms:
               1
     1  C    0.509566
     2  C    0.721125
     3  C    0.448282
     4  O   -0.629210
     6  O   -0.806379
     8  C    0.473087
     9  C    0.049749
    11  O   -0.528057
    12  C    0.718696
    14  O   -0.471529
    20  C    0.873879
    21  N   -0.747608
    22  C    0.831506
    23  N   -0.406289
    24  C    0.322691
    28  O   -0.564941
    29  O   -0.794570
 Electronic spatial extent (au):  <R**2>=           4143.7717
 Charge=             -0.0000 electrons
 Dipole moment (field-independent basis, Debye):
    X=             -2.0387    Y=              3.3130    Z=             -0.4944  Tot=              3.9213
 Quadrupole moment (field-independent basis, Debye-Ang):
   XX=           -111.1804   YY=            -84.4675   ZZ=           -104.0473
   XY=             -4.2828   XZ=              2.2489   YZ=             -1.2013
 Traceless Quadrupole moment (field-independent basis, Debye-Ang):
   XX=            -11.2820   YY=             15.4309   ZZ=             -4.1489
   XY=             -4.2828   XZ=              2.2489   YZ=             -1.2013
 Octapole moment (field-independent basis, Debye-Ang**2):
  XXX=           -103.8784  YYY=             57.7916  ZZZ=             -1.5404  XYY=            -30.6584
  XXY=             -9.8836  XXZ=            -33.3708  XZZ=              7.1974  YZZ=             -2.8213
  YYZ=              7.9622  XYZ=             -4.9366
 Hexadecapole moment (field-independent basis, Debye-Ang**3):
 XXXX=          -3979.6387 YYYY=          -1058.2241 ZZZZ=           -393.8134 XXXY=           -227.3222
 XXXZ=            -39.1783 YYYX=             24.5630 YYYZ=             13.5010 ZZZX=             16.4478
 ZZZY=              7.5733 XXYY=           -708.4104 XXZZ=           -696.4787 YYZZ=           -281.2051
 XXYZ=            -38.1852 YYXZ=              2.9449 ZZXY=             -4.9136
 N-N= 1.324049227080D+03 E-N=-4.780851180301D+03  KE= 9.054039009304D+02
 Calling FoFJK, ICntrl=      2127 FMM=F ISym2X=0 I1Cent= 0 IOpClX= 0 NMat=1 NMatS=1 NMatT=0.
 ***** Axes restored to original set *****
 -------------------------------------------------------------------
 Center     Atomic                   Forces (Hartrees/Bohr)
 Number     Number              X              Y              Z
 -------------------------------------------------------------------
      1        6           0.000715633    0.000289167   -0.000977779
      2        6           0.000487897   -0.001254978   -0.004847061
      3        6          -0.002556177   -0.003665796    0.001035161
      4        8          -0.003487900   -0.003191123    0.002408219
      5        1          -0.000791674   -0.000553409    0.000790640
      6        8          -0.017787999    0.011708080   -0.002624486
      7        1          -0.004969835   -0.003337002   -0.000943562
      8        6          -0.015022462    0.050861945    0.002126976
      9        6           0.003721823   -0.001676139   -0.004439531
     10        1          -0.000101710   -0.000428767   -0.000012501
     11        8          -0.001272684   -0.000203257    0.001219493
     12        6          -0.001388343   -0.001698359   -0.000453967
     13        1          -0.001361461   -0.000172465    0.000485028
     14        8           0.001484952    0.001831519    0.000739189
     15        1           0.000103329    0.000510297    0.000231485
     16        1           0.000220604    0.000105767    0.000026822
     17        1           0.000474317   -0.000064536   -0.000316632
     18        1           0.000046535    0.000950106   -0.000230750
     19        1          -0.000489325   -0.000287155   -0.000087643
     20        6          -0.017039164   -0.026567216   -0.008188341
     21        7           0.043943104    0.025323008    0.013999632
     22        6          -0.007995725   -0.001964145   -0.001723966
     23        7           0.012230288    0.015672112    0.004830901
     24        6           0.012630860   -0.018004100    0.002146267
     25        1           0.005755668    0.011093463    0.002160953
     26        1          -0.004697320   -0.054479957   -0.007374677
     27        1           0.003845219    0.003906414    0.001275148
     28        8          -0.017944376    0.011198459   -0.003276984
     29        8           0.011245927   -0.015901935    0.002021966
 -------------------------------------------------------------------
 Cartesian Forces:  Max     0.054479957 RMS     0.011906948

 GradGradGradGradGradGradGradGradGradGradGradGradGradGradGradGradGradGrad
 Berny optimization.
 FormGI is forming the generalized inverse of G from B-inverse, IUseBI=4.
 Internal  Forces:  Max     0.055014097 RMS     0.008951294
 Search for a local minimum.
 Step number   1 out of a maximum of  173
 All quantities printed in internal units (Hartrees-Bohrs-Radians)
 Mixed Optimization -- RFO/linear search
 Second derivative matrix not updated -- first step.
 ITU=  0
     Eigenvalues ---    0.00526   0.00664   0.00902   0.01135   0.01288
     Eigenvalues ---    0.01436   0.01500   0.01545   0.01700   0.01724
     Eigenvalues ---    0.01840   0.01911   0.02050   0.02174   0.02353
     Eigenvalues ---    0.02397   0.03074   0.03751   0.04399   0.04912
     Eigenvalues ---    0.05102   0.05448   0.05589   0.05680   0.05951
     Eigenvalues ---    0.06157   0.06303   0.07045   0.07986   0.08226
     Eigenvalues ---    0.09845   0.11039   0.13182   0.13685   0.15994
     Eigenvalues ---    0.16000   0.16000   0.16000   0.16000   0.16000
     Eigenvalues ---    0.16043   0.16844   0.18787   0.19936   0.22050
     Eigenvalues ---    0.22362   0.23425   0.24593   0.24993   0.24999
     Eigenvalues ---    0.25000   0.26357   0.28488   0.28636   0.31584
     Eigenvalues ---    0.33323   0.33380   0.33454   0.33940   0.34010
     Eigenvalues ---    0.34024   0.34934   0.35321   0.35494   0.37339
     Eigenvalues ---    0.38762   0.42558   0.42677   0.43132   0.43298
     Eigenvalues ---    0.45495   0.45728   0.46520   0.48235   0.50286
     Eigenvalues ---    0.53481   0.54085   0.54982   0.55436   0.93736
     Eigenvalues ---    0.95937
 RFO step:  Lambda=-3.41048797D-02 EMin= 5.25872120D-03
 Linear search not attempted -- first point.
 Maximum step size (   0.300) exceeded in Quadratic search.
    -- Step size scaled by   0.979
 Iteration  1 RMS(Cart)=  0.06443288 RMS(Int)=  0.00135084
 Iteration  2 RMS(Cart)=  0.00172007 RMS(Int)=  0.00017555
 Iteration  3 RMS(Cart)=  0.00000176 RMS(Int)=  0.00017554
 Iteration  4 RMS(Cart)=  0.00000000 RMS(Int)=  0.00017554
 Variable       Old X    -DE/DX   Delta X   Delta X   Delta X     New X
                                 (Linear)    (Quad)   (Total)
    R1        2.88850   0.00068   0.00000  -0.00051  -0.00055   2.88796
    R2        2.89498   0.00122   0.00000   0.00060   0.00050   2.89548
    R3        2.07431  -0.00034   0.00000  -0.00088  -0.00088   2.07343
    R4        2.64439   0.00119   0.00000   0.00236   0.00236   2.64675
    R5        2.90139   0.00162   0.00000   0.00680   0.00691   2.90830
    R6        2.67304   0.00308   0.00000   0.00645   0.00645   2.67949
    R7        2.07313   0.00023   0.00000   0.00060   0.00060   2.07373
    R8        2.64800   0.01726   0.00000   0.03699   0.03707   2.68507
    R9        2.07289   0.00215   0.00000   0.00563   0.00563   2.07853
   R10        2.78180   0.02667   0.00000   0.06711   0.06711   2.84891
   R11        1.81848  -0.00070   0.00000  -0.00117  -0.00117   1.81731
   R12        2.70548  -0.00427   0.00000  -0.00913  -0.00918   2.69630
   R13        2.59159  -0.01608   0.00000  -0.02711  -0.02673   2.56486
   R14        2.61815   0.05445   0.00000   0.10841   0.10839   2.72654
   R15        2.84912   0.00048   0.00000   0.00135   0.00135   2.85048
   R16        2.08489   0.00088   0.00000   0.00235   0.00235   2.08724
   R17        1.82655   0.00004   0.00000   0.00008   0.00008   1.82662
   R18        2.68219   0.00181   0.00000   0.00386   0.00386   2.68604
   R19        2.08390   0.00005   0.00000   0.00013   0.00013   2.08402
   R20        2.08261  -0.00002   0.00000  -0.00005  -0.00005   2.08256
   R21        1.81446  -0.00014   0.00000  -0.00023  -0.00023   1.81423
   R22        2.55587   0.01057   0.00000   0.01538   0.01579   2.57166
   R23        2.05781   0.00172   0.00000   0.00439   0.00439   2.06220
   R24        2.73762  -0.04010   0.00000  -0.10003  -0.09997   2.63766
   R25        2.05156  -0.05501   0.00000  -0.13902  -0.13902   1.91254
   R26        2.65474  -0.01817   0.00000  -0.03868  -0.03907   2.61567
   R27        2.30311  -0.01505   0.00000  -0.01482  -0.01482   2.28829
   R28        2.59156   0.01767   0.00000   0.03453   0.03412   2.62567
   R29        1.91405   0.00030   0.00000   0.00059   0.00059   1.91464
   R30        2.31257   0.01322   0.00000   0.01332   0.01332   2.32589
    A1        1.77382   0.00197   0.00000   0.00114   0.00106   1.77487
    A2        1.91263  -0.00002   0.00000   0.00178   0.00175   1.91438
    A3        1.99998  -0.00134   0.00000  -0.00417  -0.00411   1.99588
    A4        1.90271   0.00020   0.00000   0.00475   0.00479   1.90750
    A5        1.99181  -0.00107   0.00000  -0.00226  -0.00227   1.98955
    A6        1.87979   0.00035   0.00000  -0.00061  -0.00062   1.87917
    A7        1.78158   0.00057   0.00000   0.00179   0.00190   1.78347
    A8        1.86162  -0.00252   0.00000  -0.01158  -0.01165   1.84997
    A9        1.97936   0.00060   0.00000  -0.00090  -0.00096   1.97839
   A10        1.94113   0.00323   0.00000   0.01995   0.01999   1.96112
   A11        1.94958  -0.00112   0.00000  -0.00146  -0.00151   1.94807
   A12        1.94322  -0.00062   0.00000  -0.00685  -0.00692   1.93630
   A13        1.87927  -0.00405   0.00000  -0.01516  -0.01538   1.86390
   A14        1.92910  -0.00258   0.00000  -0.03077  -0.03102   1.89809
   A15        1.95052   0.00103   0.00000   0.00799   0.00803   1.95855
   A16        1.92877   0.00009   0.00000  -0.00830  -0.00919   1.91958
   A17        1.91379   0.00443   0.00000   0.03003   0.02995   1.94375
   A18        1.86296   0.00122   0.00000   0.01674   0.01682   1.87978
   A19        1.89311  -0.00087   0.00000  -0.00438  -0.00438   1.88873
   A20        1.92874  -0.00019   0.00000   0.00249   0.00259   1.93133
   A21        2.14496   0.00081   0.00000  -0.00316  -0.00334   2.14162
   A22        2.00861   0.01755   0.00000   0.05455   0.05437   2.06298
   A23        2.12938  -0.01836   0.00000  -0.05135  -0.05100   2.07838
   A24        1.83308   0.00081   0.00000   0.00036   0.00031   1.83338
   A25        2.01348   0.00044   0.00000   0.00072   0.00072   2.01420
   A26        1.89959  -0.00083   0.00000  -0.00357  -0.00356   1.89603
   A27        1.91644  -0.00095   0.00000  -0.00061  -0.00054   1.91590
   A28        1.90998   0.00072   0.00000   0.00694   0.00692   1.91691
   A29        1.88932  -0.00013   0.00000  -0.00322  -0.00323   1.88609
   A30        1.86244  -0.00103   0.00000  -0.00519  -0.00519   1.85725
   A31        1.90240   0.00177   0.00000   0.00697   0.00697   1.90937
   A32        1.87410   0.00007   0.00000   0.00190   0.00191   1.87601
   A33        1.90433  -0.00041   0.00000  -0.00124  -0.00123   1.90310
   A34        1.94575  -0.00083   0.00000  -0.00374  -0.00376   1.94199
   A35        1.93760  -0.00072   0.00000  -0.00360  -0.00360   1.93400
   A36        1.89822   0.00015   0.00000  -0.00011  -0.00012   1.89810
   A37        1.90159  -0.00095   0.00000  -0.00478  -0.00478   1.89681
   A38        2.13221  -0.00002   0.00000  -0.00287  -0.00210   2.13011
   A39        2.00276   0.01293   0.00000   0.06658   0.06619   2.06895
   A40        2.14822  -0.01291   0.00000  -0.06371  -0.06409   2.08412
   A41        2.09876   0.01907   0.00000   0.05620   0.05663   2.15539
   A42        2.11709  -0.00519   0.00000  -0.00620  -0.00641   2.11067
   A43        2.06734  -0.01388   0.00000  -0.05000  -0.05022   2.01712
   A44        1.97416   0.00241   0.00000  -0.00612  -0.00647   1.96769
   A45        2.21576  -0.01874   0.00000  -0.05733  -0.05715   2.15861
   A46        2.09325   0.01632   0.00000   0.06346   0.06363   2.15688
   A47        2.23147  -0.00004   0.00000   0.00075   0.00000   2.23147
   A48        2.03344  -0.00536   0.00000  -0.02751  -0.02713   2.00631
   A49        2.01787   0.00539   0.00000   0.02675   0.02712   2.04498
   A50        1.99959  -0.00307   0.00000   0.00351   0.00305   2.00263
   A51        2.12890   0.01823   0.00000   0.05576   0.05598   2.18488
   A52        2.15468  -0.01517   0.00000  -0.05930  -0.05907   2.09561
    D1        0.58900   0.00225   0.00000   0.01696   0.01700   0.60600
    D2       -1.44899  -0.00062   0.00000  -0.00155  -0.00151  -1.45050
    D3        2.68883   0.00156   0.00000   0.01588   0.01590   2.70473
    D4       -1.42226   0.00106   0.00000   0.01032   0.01035  -1.41191
    D5        2.82294  -0.00181   0.00000  -0.00819  -0.00817   2.81477
    D6        0.67758   0.00037   0.00000   0.00924   0.00925   0.68682
    D7        2.74586   0.00154   0.00000   0.01266   0.01269   2.75855
    D8        0.70787  -0.00132   0.00000  -0.00585  -0.00583   0.70204
    D9       -1.43749   0.00086   0.00000   0.01159   0.01158  -1.42591
   D10       -0.60036  -0.00137   0.00000  -0.00922  -0.00914  -0.60950
   D11       -2.71274  -0.00101   0.00000  -0.00915  -0.00911  -2.72185
   D12        1.44348  -0.00050   0.00000  -0.00269  -0.00266   1.44082
   D13        1.41820  -0.00036   0.00000  -0.00480  -0.00475   1.41345
   D14       -0.69418  -0.00000   0.00000  -0.00472  -0.00472  -0.69890
   D15       -2.82114   0.00051   0.00000   0.00174   0.00173  -2.81941
   D16       -2.76276  -0.00047   0.00000  -0.00364  -0.00359  -2.76634
   D17        1.40805  -0.00012   0.00000  -0.00356  -0.00356   1.40449
   D18       -0.71892   0.00039   0.00000   0.00289   0.00289  -0.71602
   D19       -0.60111  -0.00044   0.00000   0.00186   0.00187  -0.59924
   D20        1.43408   0.00040   0.00000  -0.00135  -0.00138   1.43270
   D21       -2.73412   0.00022   0.00000   0.00280   0.00281  -2.73131
   D22       -0.39505  -0.00149   0.00000  -0.01600  -0.01581  -0.41085
   D23       -2.50336   0.00246   0.00000   0.02192   0.02168  -2.48168
   D24        1.70770   0.00197   0.00000   0.01605   0.01602   1.72371
   D25        1.58468  -0.00279   0.00000  -0.02033  -0.02010   1.56458
   D26       -0.52364   0.00117   0.00000   0.01759   0.01739  -0.50625
   D27       -2.59576   0.00068   0.00000   0.01173   0.01173  -2.58404
   D28       -2.51555  -0.00199   0.00000  -0.01528  -0.01505  -2.53060
   D29        1.65933   0.00196   0.00000   0.02263   0.02243   1.68176
   D30       -0.41280   0.00147   0.00000   0.01677   0.01677  -0.39603
   D31       -3.00403   0.00045   0.00000   0.00056   0.00051  -3.00352
   D32        1.35027  -0.00040   0.00000  -0.00472  -0.00472   1.34555
   D33       -0.83625  -0.00090   0.00000  -0.01268  -0.01262  -0.84887
   D34        0.01684   0.00156   0.00000   0.01201   0.01186   0.02870
   D35        2.12536  -0.00407   0.00000  -0.04000  -0.03990   2.08546
   D36       -2.10888   0.00016   0.00000  -0.00626  -0.00625  -2.11513
   D37       -1.77269  -0.00099   0.00000  -0.03031  -0.03048  -1.80317
   D38        1.34598  -0.00110   0.00000  -0.02941  -0.02955   1.31643
   D39        0.30977  -0.00248   0.00000  -0.02442  -0.02439   0.28538
   D40       -2.85474  -0.00259   0.00000  -0.02351  -0.02346  -2.87820
   D41        2.39947   0.00078   0.00000  -0.00807  -0.00796   2.39151
   D42       -0.76504   0.00067   0.00000  -0.00716  -0.00704  -0.77208
   D43        0.37240  -0.00100   0.00000  -0.00330  -0.00327   0.36913
   D44        2.54738  -0.00051   0.00000  -0.00255  -0.00252   2.54486
   D45       -1.66434  -0.00081   0.00000  -0.00265  -0.00261  -1.66694
   D46       -3.13789   0.00008   0.00000  -0.00173  -0.00179  -3.13968
   D47        0.00645  -0.00015   0.00000  -0.00420  -0.00430   0.00216
   D48        0.02818  -0.00029   0.00000  -0.00411  -0.00409   0.02409
   D49       -3.11066  -0.00052   0.00000  -0.00658  -0.00660  -3.11726
   D50        3.11960   0.00030   0.00000   0.00286   0.00288   3.12248
   D51       -0.02825  -0.00018   0.00000  -0.00282  -0.00298  -0.03123
   D52       -0.04469   0.00046   0.00000   0.00444   0.00439  -0.04029
   D53        3.09065  -0.00002   0.00000  -0.00124  -0.00147   3.08919
   D54        0.96598   0.00058   0.00000   0.00403   0.00402   0.97000
   D55       -1.14421   0.00054   0.00000   0.00343   0.00341  -1.14080
   D56        3.08446   0.00054   0.00000   0.00317   0.00315   3.08762
   D57       -1.10057  -0.00006   0.00000   0.00354   0.00355  -1.09702
   D58        3.07243  -0.00010   0.00000   0.00293   0.00293   3.07536
   D59        1.01791  -0.00009   0.00000   0.00267   0.00268   1.02059
   D60        3.09845  -0.00030   0.00000  -0.00260  -0.00259   3.09587
   D61        0.98827  -0.00034   0.00000  -0.00320  -0.00320   0.98507
   D62       -1.06625  -0.00034   0.00000  -0.00346  -0.00346  -1.06971
   D63       -3.07736  -0.00006   0.00000   0.00098   0.00099  -3.07637
   D64       -1.01162   0.00064   0.00000   0.00549   0.00547  -1.00614
   D65        1.10773  -0.00025   0.00000   0.00026   0.00027   1.10800
   D66        0.00151  -0.00006   0.00000   0.00066   0.00078   0.00229
   D67        3.14048  -0.00026   0.00000  -0.00158  -0.00147   3.13901
   D68        3.14012   0.00023   0.00000   0.00356   0.00352  -3.13955
   D69       -0.00410   0.00004   0.00000   0.00132   0.00127  -0.00283
   D70       -0.01023  -0.00015   0.00000   0.00089   0.00094  -0.00929
   D71        3.13594  -0.00025   0.00000  -0.00161  -0.00154   3.13440
   D72        3.13391   0.00002   0.00000   0.00301   0.00303   3.13694
   D73       -0.00311  -0.00008   0.00000   0.00051   0.00055  -0.00256
   D74       -0.01038  -0.00012   0.00000  -0.00122  -0.00128  -0.01166
   D75       -3.11954  -0.00008   0.00000  -0.00109  -0.00123  -3.12076
   D76        3.12699  -0.00013   0.00000   0.00075   0.00084   3.12784
   D77        0.01784  -0.00009   0.00000   0.00088   0.00090   0.01874
   D78        0.03701  -0.00002   0.00000  -0.00104  -0.00105   0.03597
   D79       -3.09822   0.00034   0.00000   0.00427   0.00404  -3.09419
   D80       -3.13677  -0.00022   0.00000  -0.00202  -0.00197  -3.13874
   D81        0.01118   0.00013   0.00000   0.00329   0.00311   0.01429
         Item               Value     Threshold  Converged?
 Maximum Force            0.055014     0.000450     NO 
 RMS     Force            0.008951     0.000300     NO 
 Maximum Displacement     0.330127     0.001800     NO 
 RMS     Displacement     0.064442     0.001200     NO 
 Predicted change in Energy=-1.873909D-02
 GradGradGradGradGradGradGradGradGradGradGradGradGradGradGradGradGradGrad

                          Input orientation:                          
 ---------------------------------------------------------------------
 Center     Atomic      Atomic             Coordinates (Angstroms)
 Number     Number       Type             X           Y           Z
 ---------------------------------------------------------------------
      1          6           0       -2.117155   -0.204299    0.808524
      2          6           0       -1.201958   -1.345376    0.365944
      3          6           0       -0.446288   -0.715347   -0.817511
      4          8           0       -2.059560   -2.398730   -0.040840
      5          1           0       -0.513992   -1.681149    1.152192
      6          8           0       -1.261539    0.338645   -1.310826
      7          1           0       -0.308284   -1.479813   -1.596193
      8          6           0        0.918845   -0.213993   -0.420210
      9          6           0       -2.448759    0.464597   -0.529506
     10          1           0       -1.554617    0.498663    1.435633
     11          8           0       -3.242470   -0.614803    1.534361
     12          6           0       -2.852591    1.915493   -0.445157
     13          1           0       -3.273251   -0.093146   -1.008149
     14          8           0       -1.835494    2.650602    0.222293
     15          1           0       -3.806911    1.962384    0.105554
     16          1           0       -3.012017    2.304110   -1.464009
     17          1           0       -3.507915   -1.468560    1.166984
     18          1           0       -1.520731   -3.177539   -0.208007
     19          1           0       -2.128318    3.559412    0.322368
     20          6           0        1.188627    1.101746   -0.224721
     21          7           0        2.426777    1.539781    0.131736
     22          6           0        3.518235    0.691264    0.323992
     23          7           0        3.201614   -0.641348    0.124548
     24          6           0        1.968223   -1.182939   -0.216024
     25          1           0        0.382494    1.824890   -0.359203
     26          1           0        2.609792    2.525377    0.271009
     27          1           0        3.966018   -1.289317    0.274091
     28          8           0        4.623014    1.078020    0.634133
     29          8           0        1.835080   -2.402932   -0.309731
 ---------------------------------------------------------------------
                    Distance matrix (angstroms):
                    1          2          3          4          5
     1  C    0.000000
     2  C    1.528240   0.000000
     3  C    2.386830   1.539006   0.000000
     4  O    2.353776   1.417924   2.457568   0.000000
     5  H    2.206655   1.097372   2.194786   2.080150   0.000000
     6  O    2.349151   2.377191   1.420878   3.121366   3.271827
     7  H    3.268274   2.160257   1.099908   2.516049   2.763417
     8  C    3.275237   2.529007   1.507579   3.713205   2.584186
     9  C    1.532223   2.373256   2.342030   2.930685   3.343001
    10  H    1.097210   2.160806   2.789062   3.290870   2.432040
    11  O    1.400602   2.462239   3.655139   2.657618   2.954275
    12  C    2.570234   3.743760   3.584726   4.405098   4.577816
    13  H    2.156204   2.783247   2.900896   2.779290   3.847380
    14  O    2.928048   4.048438   3.786912   5.061146   4.623327
    15  H    2.836187   4.218395   4.395006   4.700424   5.021364
    16  H    3.501043   4.465847   4.014729   5.004927   5.382093
    17  H    1.913390   2.444233   3.725467   2.102805   3.001498
    18  H    3.198314   1.946242   2.754689   0.961678   2.258948
    19  H    3.794996   4.991691   4.733087   5.969598   5.546001
    20  C    3.701560   3.471627   2.515189   4.778898   3.541089
    21  N    4.913977   4.641843   3.773748   5.972342   4.479269
    22  C    5.726642   5.141001   4.358788   6.386937   4.751118
    23  N    5.380347   4.466025   3.768307   5.549386   3.992865
    24  C    4.324089   3.227247   2.531855   4.210923   2.877781
    25  H    3.424828   3.617585   2.711039   4.889167   3.921775
    26  H    5.484896   5.433340   4.585499   6.793153   5.313133
    27  H    6.202248   5.169097   4.581428   6.134947   4.582040
    28  O    6.863282   6.314672   5.569673   7.563079   5.854079
    29  O    4.658824   3.286116   2.882780   3.903913   2.859428
                    6          7          8          9         10
     6  O    0.000000
     7  H    2.072901   0.000000
     8  C    2.419232   2.119217   0.000000
     9  C    1.426820   3.082237   3.437032   0.000000
[...]
 ,-0.00005815,-0.00010345,-0.00027988,0.00007544,-0.00066222,0.00111086
 ,0.00125661,-0.00403879,-0.00075353,-0.00003578,0.00083078,-0.00014686
 ,0.00012798,-0.00006155,-0.00065519,0.00155223,0.00048158,0.00050365,0
 .00046264,0.00022305,0.00080916,0.01223905,0.03490596,0.00440254,0.000
 05477,0.00005738,0.00046477,-0.00003046,-0.00005101,-0.00002608,-0.000
 22560,0.00020074,0.00005948,-0.00013222,-0.00022854,-0.00019921,0.0001
 0954,-0.00000422,-0.00004661,0.00023582,0.00040366,0.00011544,0.000032
 70,-0.00000462,0.00002028,0.00001629,0.00007784,-0.00000194,0.00019783
 ,-0.00013195,-0.00005026,0.00083009,-0.00000642,0.00008255,-0.00013572
 ,-0.00006836,-0.00002964,-0.02404672,-0.01952826,-0.00757345,0.0356044
 7,-0.05285099,0.00787691,-0.02536111,-0.27715658,-0.01597244,-0.079830
 85,0.77525861,0.00003955,0.00004896,-0.00019415,-0.00033196,-0.0000810
 1,-0.00024779,-0.00027750,0.00149681,0.00291397,-0.00017846,-0.0000179
 8,0.00017612,0.00001731,-0.00013271,-0.00022071,-0.00064975,0.00003506
 ,-0.00019420,0.00060424,-0.00005489,0.00001490,-0.01397783,0.00238383,
 0.00607012,0.00029532,0.00004398,-0.00011449,-0.00003613,-0.00000004,-
 0.00001877,-0.00016273,-0.00002654,0.00018078,-0.00004906,-0.00007836,
 -0.00003319,-0.00006631,-0.00001386,0.00001406,0.00001337,0.00011597,0
 .00010467,-0.00001422,0.00002684,0.00001823,0.00001533,0.00000615,-0.0
 0000064,0.00005680,-0.00001518,-0.00005024,0.00021079,0.00003989,-0.00
 000839,-0.00003023,-0.00002059,-0.00004250,-0.00466093,-0.00327084,-0.
 00145633,0.00604035,0.00604924,0.01113173,-0.02525954,-0.00304004,-0.0
 6555104,0.18433861,-0.00022469,0.11634589,-0.00067379,-0.00012864,0.00
 023765,-0.00176005,-0.00012656,-0.00077394,-0.02450995,0.01648400,-0.0
 0651345,0.00136284,0.00110267,0.00020880,-0.00094638,-0.00036441,0.001
 15985,-0.00194673,-0.00125484,-0.00074197,-0.00034104,0.00080820,-0.00
 081570,-0.19283972,0.05155556,-0.03100627,-0.00133453,0.00024316,-0.00
 044612,-0.00006974,0.00013455,0.00043946,0.00098960,0.00031740,-0.0005
 1419,-0.00052380,-0.00028141,-0.00024159,0.00007843,0.00011736,0.00010
 653,0.00090363,-0.00036073,-0.00012720,0.00019388,0.00006498,-0.000017
 52,0.00002146,-0.00005497,0.00012284,-0.00021393,-0.00004870,0.0001029
 9,-0.00016030,-0.00056200,-0.00002359,0.00020221,0.00011071,0.00013837
 ,0.05253951,0.02912195,0.01500883,-0.04908839,0.01143893,-0.01215285,0
 .02191684,-0.08898220,0.00701192,-0.23894845,0.01108206,-0.05162792,0.
 55854687,0.00153329,0.00165073,0.00148946,-0.00107063,0.00208598,-0.00
 464151,0.00289708,0.01935213,0.00440459,-0.00087513,-0.00386160,0.0008
 7094,-0.00110587,0.00026531,0.00284019,-0.00775447,-0.00180262,-0.0017
 7307,-0.00333032,-0.00238457,-0.00360527,0.06311581,-0.13767746,0.0169
 3778,0.00204409,-0.00130824,-0.00238699,0.00011589,-0.00030179,-0.0005
 9257,-0.00024755,-0.00142133,0.00040744,0.00083211,0.00069723,0.000841
 71,-0.00082535,-0.00006717,0.00018940,-0.00130897,-0.00040374,-0.00011
 610,-0.00025629,0.00003304,0.00001137,-0.00002299,-0.00024897,-0.00012
 218,-0.00057341,0.00053760,0.00004076,-0.00243485,0.00021870,-0.000423
 31,0.00002435,0.00001850,-0.00006626,0.01032021,-0.04841013,0.00123840
 ,0.01782588,0.00591417,0.00553535,-0.03537046,-0.00474493,-0.00926134,
 -0.02552581,-0.13868231,-0.00975540,-0.00008500,0.95667108,-0.00014930
 ,-0.00033153,-0.00000792,0.00048057,0.00005516,0.00049891,-0.00704682,
 0.00533852,-0.00052871,-0.00010647,-0.00013867,-0.00057917,0.00069303,
 0.00032014,-0.00006592,-0.00206590,0.00026824,0.00109141,-0.00044378,0
 .00032945,0.00032665,-0.03001741,0.01273569,-0.09114146,-0.00085211,-0
 .00002508,-0.00060649,0.00006157,0.00012608,0.00012588,0.00021201,0.00
 018690,-0.00013013,-0.00018217,-0.00004347,0.00000720,-0.00006587,0.00
 005252,0.00011024,0.00010339,0.00004627,-0.00018253,0.00003311,0.00001
 580,-0.00001878,-0.00002301,0.00002382,0.00000799,0.00002156,-0.000014
 44,0.00005260,-0.00016133,-0.00006600,0.00016650,0.00001349,0.00001194
 ,0.00007341,0.01480282,0.00603808,0.00762167,-0.01204851,0.00376209,-0
 .00838497,0.00895595,-0.02483549,-0.01235711,-0.05282108,0.00038233,-0
 .06701628,0.09963523,0.01515958,0.23356251,-0.00010603,-0.00046209,0.0
 0031794,-0.00008989,0.00020781,-0.00049950,-0.00013131,-0.00089723,0.0
 0136348,-0.00033229,-0.00001882,0.00009806,0.00002108,0.00011174,-0.00
 014842,-0.00163921,-0.00023824,-0.00010239,0.00004097,0.00034380,-0.00
 005541,0.01272576,-0.00433055,0.00085521,-0.00083094,-0.00043067,0.000
 30583,0.00006765,-0.00012036,0.00012621,-0.00003710,0.00034671,-0.0001
 6744,-0.00162177,-0.00117527,-0.00105537,0.00013593,0.00016924,-0.0000
 0890,-0.00078891,0.00022445,0.00006204,0.00033955,0.00018045,0.0000999
 6,0.00007132,0.00011082,0.00020905,0.00006590,-0.00012473,0.00001112,0
 .00004459,0.00001657,0.00001294,0.00077447,0.00050947,-0.00003373,-0.1
 9229174,0.14084711,-0.03610283,-0.02018043,0.01919393,-0.00552649,-0.0
 0030284,-0.00530795,-0.00133606,0.00083921,0.00054478,0.00045412,-0.00
 161713,-0.00070340,-0.00355922,0.20547381,-0.00011764,-0.00021889,-0.0
 0007014,-0.00010207,-0.00027664,0.00003006,0.00156104,-0.00058017,0.00
 072452,0.00006321,0.00011208,0.00000457,0.00003753,0.00001825,-0.00007
 773,0.00094416,0.00115769,0.00009701,0.00005153,0.00008911,0.00004633,
 0.02019415,-0.01230305,0.00485598,-0.00153534,0.00040932,0.00048521,-0
 .00005158,0.00008938,0.00015269,0.00022312,0.00013134,-0.00015231,0.00
 047669,0.00102469,0.00080098,0.00032035,-0.00004552,-0.00006373,-0.000
 33992,-0.00159423,-0.00030581,-0.00021140,-0.00022871,-0.00015770,-0.0
 0005080,-0.00006722,-0.00008209,-0.00000212,-0.00002492,0.00000283,0.0
 0000818,-0.00003966,0.00001623,0.00036536,-0.00022289,-0.00018369,0.14
 576378,-0.20676265,0.03381365,-0.01441386,0.01369042,-0.00358255,-0.00
 147288,-0.00147865,-0.00066011,-0.00014105,0.00054299,0.00002600,-0.00
 341317,-0.00399989,-0.00185831,-0.14839258,0.21037223,0.00038079,0.000
 25694,0.00024321,0.00038730,0.00035984,0.00070507,0.00173143,-0.000152
 00,-0.00487281,0.00026755,0.00016199,-0.00023388,0.00002830,0.00009290
 ,-0.00003909,0.00002754,-0.00036719,-0.00117112,-0.00080512,-0.0001494
 7,-0.00007722,0.00088324,-0.00136328,0.00952709,-0.00052173,0.00044435
 ,0.00058835,0.00002317,0.00002609,-0.00028125,-0.00008372,-0.00016957,
 -0.00017886,0.00018724,0.00060313,0.00067275,0.00017503,-0.00003541,-0
 .00013316,-0.00022675,-0.00047999,-0.00096233,-0.00015475,-0.00014401,
 -0.00013898,-0.00026389,-0.00003042,-0.00017417,-0.00005522,0.00002135
 ,0.00003654,0.00000431,-0.00003485,0.00000821,-0.00021744,0.00008013,0
 .00004116,-0.03459657,0.03127106,-0.05187386,-0.00741327,0.00636149,0.
 00125741,-0.00124701,-0.00179652,0.00362452,0.00032955,0.00015209,-0.0
 0057200,-0.00355063,-0.00102060,0.01017459,0.04353059,-0.03429078,0.03
 861864,-0.00001961,-0.00011682,-0.00000498,0.00006565,0.00008489,-0.00
 026844,0.00105343,-0.00149509,-0.00035061,-0.00015959,-0.00007529,0.00
 012751,-0.00000227,0.00001245,0.00001418,-0.00012398,0.00049943,0.0001
 1718,-0.00047049,-0.00014812,-0.00009363,-0.00527342,0.00018176,-0.002
 35595,0.00017458,-0.00007053,-0.00011622,0.00000125,-0.00003490,0.0000
 2176,-0.00004427,0.00007626,0.00003198,-0.00025646,-0.00028499,-0.0001
 8689,-0.00002785,0.00001698,0.00001872,0.00041981,0.00036129,0.0001461
 0,0.00006142,0.00005134,0.00002944,0.00003815,0.00002552,0.00003730,0.
 00002731,-0.00002585,-0.00000872,0.00000258,0.00003904,-0.00002511,-0.
 00015455,-0.00001916,0.00000045,-0.00076403,-0.03252690,0.00030826,-0.
 07860682,-0.06822876,-0.02236719,0.01631344,0.03036406,0.00607621,-0.0
 0530959,0.00367136,-0.00237818,-0.00193537,0.00007563,-0.00034236,0.00
 019947,0.00017879,0.00054566,0.07492387,-0.00009591,0.00005605,0.00001
 900,-0.00007431,-0.00019494,0.00009904,-0.00013925,0.00018932,-0.00030
 280,0.00025091,0.00014864,-0.00001181,-0.00002905,-0.00002961,0.000074
 62,0.00048700,-0.00015854,0.00004415,0.00002447,0.00003851,0.00004117,
 -0.00084710,0.00423452,-0.00018606,-0.00027402,0.00006577,0.00011765,-
 0.00001731,0.00004005,0.00001327,0.00017685,-0.00002570,-0.00007602,0.
 00010971,0.00015849,0.00009443,0.00005489,-0.00000390,-0.00000944,-0.0
 0015304,-0.00033104,-0.00008628,-0.00001595,-0.00002785,-0.00002487,-0
 .00001325,-0.00002034,0.00000348,-0.00005564,0.00001456,0.00001564,-0.
 00004939,-0.00005922,0.00000127,0.00015004,0.00007131,-0.00001035,-0.0
 0211230,-0.00285999,-0.00048581,-0.06524802,-0.44794609,-0.03563484,-0
 .00566062,-0.01910365,-0.00227349,0.00334838,-0.00049277,0.00079016,0.
 00204724,-0.00143812,0.00058531,0.00009532,0.00103161,0.00015668,0.070
 87859,0.46346891,0.00006032,0.00000138,0.00008569,-0.00029521,-0.00002
 411,-0.00030669,-0.00033581,-0.00022343,0.00226506,-0.00020267,-0.0001
 9703,0.00001777,-0.00000366,-0.00000503,-0.00002920,0.00015230,0.00008
 067,-0.00019233,0.00035315,0.00013192,0.00009016,-0.00259439,0.0000004
 3,0.00247219,-0.00009665,-0.00001535,0.00004100,-0.00000016,0.00001562
 ,0.00000927,-0.00002837,0.00000406,-0.00003707,0.00004716,0.00003653,0
 .00006319,0.00000664,0.00000121,-0.00001392,-0.00002815,-0.00005227,-0
 .00023033,0.00000262,-0.00000329,-0.00000530,-0.00003959,-0.00000141,-
 0.00003226,0.00000658,-0.00000662,0.00000350,-0.00001789,0.00002126,0.
 00003045,0.00004405,-0.00000911,0.00012201,0.00150111,-0.00923259,-0.0
 0622955,-0.02215361,-0.03630794,-0.01685291,0.00467442,0.00786667,0.00
 063036,-0.00234013,0.00089168,0.00292596,-0.00021910,-0.00011058,-0.00
 075672,0.00044773,0.00019815,-0.00160281,0.02034670,0.03764887,0.02037
 923,-0.00003794,0.00000830,0.00001143,-0.00005474,0.00001784,-0.000183
 12,0.00018243,0.00136813,0.00009652,0.00006687,-0.00002979,0.00006433,
 -0.00002647,-0.00002573,0.00009198,-0.00049348,0.00007249,-0.00003745,
 -0.00000512,-0.00004421,-0.00006066,-0.00309181,-0.00444857,-0.0022308
 5,0.00000475,-0.00004042,-0.00016655,-0.00000182,0.00001200,0.00001456
 ,0.00006650,-0.00000665,-0.00000086,-0.00005586,-0.00003822,-0.0000137
 1,-0.00003118,0.00001030,0.00002692,0.00007133,0.00001594,0.00002072,0
 .00001139,0.00001449,0.00000020,0.00000553,-0.00000843,0.00001130,-0.0
 0002968,0.00000838,0.00000429,-0.00008233,-0.00002130,-0.00002116,-0.0
 0000970,0.00000472,0.00000128,-0.00069012,-0.00102455,-0.00002073,0.00
 108156,-0.00396654,-0.00107347,0.01448475,-0.00287223,0.00439152,-0.27
 924929,0.18285719,-0.06910569,-0.01956070,0.02369084,-0.00516440,-0.00
 010053,0.00004210,0.00009484,0.00081166,-0.00042873,-0.00008331,0.2852
 7179,0.00007605,0.00001981,-0.00003486,0.00010199,0.00017366,-0.000083
 95,-0.00007234,0.00077243,0.00008751,-0.00011669,-0.00017952,0.0000161
 8,-0.00000174,0.00000446,0.00000242,-0.00058355,0.00006222,-0.00004131
 ,0.00000646,-0.00002217,-0.00004352,-0.00348943,-0.00111102,-0.0011636
 1,0.00013848,-0.00000943,-0.00014195,0.00000624,-0.00001627,-0.0000129
 4,-0.00008827,-0.00004315,0.00006236,-0.00000393,-0.00001097,0.0000208
 4,-0.00005407,-0.00000447,0.00001262,-0.00002747,0.00002415,0.00000661
 ,-0.00001009,0.00001315,0.00000782,0.00000258,-0.00000080,-0.00000715,
 0.00001106,0.00001954,-0.00001022,-0.00001861,0.00005543,-0.00001357,-
 0.00000432,-0.00000699,-0.00000516,-0.00093711,-0.00027086,-0.00027297
 ,-0.00352172,-0.00562399,-0.00132594,0.03116205,-0.01655922,0.00847276
 ,0.17848058,-0.22538224,0.04461964,-0.00842195,0.01971794,-0.00184986,
 0.00007646,0.00004669,0.00003127,0.00135042,-0.00051215,0.00031496,-0.
 19447434,0.22744593,0.00001684,0.00002274,0.00003165,0.00009998,-0.000
 04930,0.00005478,-0.00015753,0.00041151,0.00031719,-0.00001241,-0.0000
 2823,-0.00007226,-0.00000722,0.00001411,0.00002972,-0.00003425,0.00000
 093,-0.00018769,-0.00003454,-0.00001594,-0.00002685,-0.00224007,-0.001
 36157,0.00380790,-0.00001421,0.00000009,0.00001634,-0.00000187,-0.0000
 2126,0.00000869,0.00001224,0.00000767,-0.00004948,-0.00000270,-0.00001
 317,0.00000413,-0.00000717,0.00000321,-0.00000245,0.00002038,-0.000000
 21,-0.00002302,0.00000621,-0.00000041,0.00000003,-0.00000211,0.0000042
 8,-0.00000413,-0.00000278,-0.00000190,0.00001579,-0.00003296,-0.000005
 01,0.00004073,0.00000073,-0.00000175,0.00001544,0.00000362,-0.00022548
 ,-0.00077914,-0.00105764,-0.00157310,0.00392972,0.00547236,-0.00166473
 ,0.00044447,-0.06944203,0.04641151,-0.03575955,-0.00618200,0.00708610,
 -0.00073373,0.00008203,0.00004643,-0.00042709,-0.00000103,-0.00019290,
 0.00098804,0.07073351,-0.04903626,0.03553615,0.00076789,-0.00014845,-0
 .00029246,0.00040153,0.00154516,-0.00112566,0.00209678,-0.00163616,0.0
 0152730,-0.00156310,-0.00132830,0.00026730,0.00011237,0.00008658,-0.00
 031291,-0.00256060,0.00068329,0.00001806,-0.00080673,-0.00024170,-0.00
 014727,-0.00111325,-0.00171472,0.00000458,0.00160855,-0.00023375,-0.00
 076421,0.00002056,-0.00012226,-0.00019993,-0.00117768,-0.00015300,0.00
 070301,0.00013781,-0.00008916,0.00015268,-0.00036926,-0.00008437,0.000
 05155,-0.00048443,0.00047489,0.00021036,-0.00014216,0.00005948,0.00006
 917,0.00001838,0.00004571,-0.00010958,0.00031616,0.00003028,-0.0001439
 2,0.00024282,0.00048960,-0.00008327,-0.00010883,-0.00014568,-0.0000964
 8,0.00390154,0.00863080,0.00019864,-0.08205459,0.00451130,-0.02884491,
 -0.57590576,-0.17897633,-0.14659678,-0.02220368,-0.04496162,-0.0139254
 0,0.00540647,0.00488757,-0.00052814,-0.00128901,-0.00142529,-0.0005255
 7,-0.00140845,-0.00210171,0.00054807,-0.00325469,-0.00204629,0.0001664
 3,0.68132938,0.00015236,-0.00005013,-0.00014358,0.00030310,0.00019466,
 0.00006982,0.00060809,0.00047494,0.00022881,-0.00032775,-0.00008908,-0
 .00001383,0.00003343,0.00001698,-0.00019143,-0.00104529,0.00056765,-0.
 00001308,0.00010593,0.00006233,0.00016467,-0.00362580,0.00769371,-0.00
 066844,0.00040456,-0.00008401,-0.00023960,0.00000493,-0.00006819,-0.00
 003858,-0.00031429,0.00002651,0.00016236,-0.00012902,-0.00020021,-0.00
 006996,-0.00010525,-0.00000663,0.00002785,0.00013533,0.00030325,0.0000
 9254,0.00000094,0.00003782,0.00003426,0.00002153,0.00003652,-0.0000181
 8,0.00011595,-0.00003073,-0.00003795,0.00021597,0.00008545,0.00001809,
 -0.00008610,-0.00006665,-0.00003391,-0.00704871,-0.01069004,-0.0026580
 0,0.03166187,0.02999740,0.00935661,-0.17799434,-0.17117481,-0.05373938
 ,-0.07544786,-0.03640563,-0.02351785,0.02362100,-0.00156483,0.00623629
 ,0.00091290,0.00038286,0.00028417,-0.00486779,0.00230988,-0.00115602,-
 0.00006288,0.00429710,0.00031292,0.21951329,0.17939847,0.00020344,-0.0
 0007512,-0.00012700,0.00018277,0.00046690,-0.00035648,0.00073627,-0.00
 049804,-0.00005116,-0.00042918,-0.00035489,0.00013650,0.00004834,0.000
 00261,-0.00006050,-0.00076372,0.00021426,0.00003078,-0.00031580,0.0000
 2055,-0.00002375,-0.00013716,-0.00018474,-0.00111210,0.00052843,-0.000
 06056,-0.00026143,-0.00000228,-0.00002002,-0.00006372,-0.00033877,-0.0
 0004333,0.00025169,0.00000407,-0.00004539,0.00000719,-0.00011099,-0.00
 002266,0.00002263,-0.00011440,0.00017041,0.00014503,-0.00004007,0.0000
 2318,0.00002243,0.00002019,0.00000743,-0.00001475,0.00009077,0.0000044
 8,-0.00005520,0.00007212,0.00014215,-0.00005880,-0.00004589,-0.0000375
 4,-0.00006823,-0.00052675,0.00181525,0.00491711,-0.02785483,0.00169652
 ,0.01298548,-0.14640902,-0.05405302,-0.12497967,-0.01507617,-0.0147157
 3,0.01610342,0.00037049,0.00103322,0.00740695,-0.00028234,-0.00039343,
 -0.00037012,0.00045710,-0.00036029,-0.00358885,0.00011887,-0.00034637,
 -0.00364231,0.18999119,0.06742757,0.09450423,-0.00003487,-0.00036024,-
 0.00117434,0.00061809,0.00056998,0.00168779,0.00143538,-0.00188906,-0.
 00014375,-0.00051909,0.00009874,-0.00010066,-0.00056321,0.00041375,-0.
 00124983,-0.00042791,0.00135112,0.00057329,0.00053507,0.00079687,0.001
 23692,0.01754170,0.02922097,-0.00062961,0.00042172,0.00044137,0.000143
 83,0.00000796,-0.00007526,0.00000506,-0.00073993,0.00011398,0.00042582
 ,-0.00019349,-0.00024590,-0.00012469,-0.00007638,-0.00004318,0.0000016
 8,0.00004666,0.00036773,0.00012431,-0.00002706,0.00005821,0.00004742,0
 .00002168,0.00011066,-0.00004047,0.00031684,-0.00004773,-0.00009200,0.
 00095772,0.00045336,0.00008790,-0.00007223,-0.00007754,-0.00004324,-0.
 01180620,0.00030286,-0.00437103,0.00876994,-0.00502664,0.00215281,-0.0
 0740194,0.01948796,-0.00330872,-0.00770312,-0.07613262,-0.00935394,-0.
 10569174,-0.04587226,-0.00943485,0.00055944,0.00143972,0.00106512,0.00
 046414,-0.00030782,0.00024784,0.00471692,0.00245956,0.00261819,-0.0019
 1803,-0.00675609,-0.00037668,0.10076196,-0.00095245,-0.00094671,-0.000
 83833,-0.00001621,-0.00195389,0.00264448,-0.00597846,-0.00398551,-0.00
 314067,0.00069448,0.00283081,-0.00045294,0.00054047,-0.00027857,-0.001
 48536,0.00180098,0.00162290,0.00030798,0.00187068,0.00130988,0.0018502
 1,0.01302195,-0.06979412,0.00116096,-0.00142336,0.00071836,0.00094112,
 -0.00006018,0.00019368,0.00044146,0.00029498,0.00095770,-0.00030611,-0
 .00078406,-0.00071279,-0.00066270,0.00040611,0.00006679,-0.00002914,0.
 00128231,0.00040441,0.00006914,0.00022601,0.00004330,0.00002527,0.0000
 3840,0.00015634,0.00010612,0.00036363,-0.00039135,-0.00003734,0.001809
 40,-0.00039408,0.00031318,-0.00001987,-0.00001066,0.00006320,0.0151152
 3,0.01138759,0.00456836,-0.00846623,-0.00618132,-0.00266394,0.00278169
 ,0.01161047,0.00107869,-0.04968522,-0.05712268,-0.01543254,-0.04416518
 ,-0.65884470,-0.02251133,-0.00168968,-0.00125557,-0.00026938,0.0000263
 7,0.00137629,0.00013136,-0.00063014,-0.00289925,-0.00013029,-0.0055491
 6,-0.00545456,-0.00181341,0.07914749,0.77754725,0.00007665,-0.00001273
 ,0.00041009,-0.00003531,-0.00000640,-0.00182662,0.00125066,-0.00066396
 ,-0.00320034,0.00021876,0.00008095,0.00085551,0.00009072,-0.00010296,0
 .00082672,-0.00075048,0.00068894,0.00060485,0.00060488,0.00057253,0.00
 066773,-0.00155159,0.00661379,0.02275418,0.00071955,0.00006012,-0.0003
 6358,0.00002141,0.00004087,-0.00002796,-0.00002424,-0.00009686,0.00014
 093,-0.00010247,-0.00004664,0.00012119,-0.00004514,-0.00002768,-0.0000
 0272,0.00001047,0.00001541,0.00010088,-0.00002226,0.00006821,0.0000152
 9,0.00002338,-0.00006848,0.00000679,-0.00005830,0.00003588,-0.00006473
 ,0.00000824,0.00010204,-0.00064274,-0.00000886,-0.00000526,-0.00002989
 ,-0.00416643,0.00029509,0.00215666,0.00221786,-0.00146100,0.00080113,-
 0.00401278,0.00527860,0.00630554,-0.00829199,-0.02260775,0.01548043,-0
 .00958891,-0.02421110,-0.07871656,0.00090180,0.00057774,-0.00238875,0.
 00022073,-0.00004978,-0.00024593,0.00247969,0.00073466,-0.00353305,-0.
 00021185,-0.00187618,-0.00169937,0.02002582,0.03607194,0.04149432\\0.0
 0000670,-0.00000004,-0.00000510,0.00000460,0.00000478,0.00001034,-0.00
 002962,0.00003748,-0.00002107,0.00000548,-0.00000962,-0.00001087,0.000
 00111,-0.00000382,-0.00000182,0.00002973,-0.00003270,-0.00000306,0.000
 00578,-0.00000446,0.00000243,0.00000989,-0.00002159,0.00001690,-0.0000
 2246,0.00001015,0.00001421,-0.00001007,0.00000260,0.00000029,0.0000041
 7,0.00000148,0.00001169,0.00000670,-0.00000636,0.00000765,0.00000239,-
 0.00000167,0.00000067,-0.00000655,0.00000497,-0.00000235,-0.00000260,0
 .00000098,-0.00000364,0.00000295,-0.00000210,-0.00000197,0.00000009,0.
 00000478,-0.00000652,-0.00000386,-0.00000216,0.00000019,0.00000238,0.0
 0000170,-0.00000054,0.00000461,-0.00000426,-0.00000317,-0.00002768,-0.
 00000998,0.00000048,0.00000861,-0.00002593,-0.00000109,0.00002152,0.00
 002715,0.00002250,-0.00002437,0.00000264,-0.00002740,0.00000677,0.0000
 0655,-0.00000063,0.00000719,0.00001493,0.00000180,-0.00000407,-0.00000
 614,-0.00000490,-0.00000337,0.00000753,-0.00000248,0.00000397,0.000003
 12,0.00000745\\\@
 The archive entry for this job was punched.


 YE HAVE SOWN MUCH, AND BRING IN LITTLE.
 YE EAT, BUT YE HAVE NOT ENOUGH.
 YE DRINK, BUT YE ARE NOT FILLED WITH DRINK.
 YE CLOTHE YOU, BUT THERE IS NONE WARM.
 AND HE THAT EARNETH WAGES EARNETH WAGES TO PUT
 IT INTO A BAG WITH HOLES.
                                     HAGGAI I,6
 Job cpu time:       0 days 10 hours 43 minutes 52.7 seconds.
 Elapsed time:       0 days  0 hours 16 minutes 14.7 seconds.
 File lengths (MBytes):  RWF=    632 Int=      0 D2E=      0 Chk=     21 Scr=      1
 Normal termination of Gaussian 16 at Sat Oct 26 07:29:48 2024.
