 Entering Gaussian System, Link 0=g16
 Input=UridineMSsllaPBE0aVDZ.gjf
 Output=UridineMSsllaPBE0aVDZ.log
 Initial command:
 /sw/contrib/chem-src/g16/c01/g16/l1.exe "/scr/Gau-24059.inp" -scrdir="/scr/"
 Entering Link 1 = /sw/contrib/chem-src/g16/c01/g16/l1.exe PID=     24060.
  
 Copyright (c) 1988-2019, Gaussian, Inc.  All Rights Reserved.
  
 This is part of the Gaussian(R) 16 program.  It is based on
 the Gaussian(R) 09 system (copyright 2009, Gaussian, Inc.),
 the Gaussian(R) 03 system (copyright 2003, Gaussian, Inc.),
 the Gaussian(R) 98 system (copyright 1998, Gaussian, Inc.),
 the Gaussian(R) 94 system (copyright 1995, Gaussian, Inc.),
 the Gaussian 92(TM) system (copyright 1992, Gaussian, Inc.),
 the Gaussian 90(TM) system (copyright 1990, Gaussian, Inc.),
 the Gaussian 88(TM) system (copyright 1988, Gaussian, Inc.),
 the Gaussian 86(TM) system (copyright 1986, Carnegie Mellon
 University), and the Gaussian 82(TM) system (copyright 1983,
 Carnegie Mellon University). Gaussian is a federally registered
 trademark of Gaussian, Inc.
  
 This software contains proprietary and confidential information,
 including trade secrets, belonging to Gaussian, Inc.
  
 This software is provided under written license and may be
 used, copied, transmitted, or stored only in accord with that
 written license.
  
 The following legend is applicable only to US Government
 contracts under FAR:
  
                    RESTRICTED RIGHTS LEGEND
  
 Use, reproduction and disclosure by the US Government is
 subject to restrictions as set forth in subparagraphs (a)
 and (c) of the Commercial Computer Software - Restricted
 Rights clause in FAR 52.227-19.
  
 Gaussian, Inc.
 340 Quinnipiac St., Bldg. 40, Wallingford CT 06492
  
  
 ---------------------------------------------------------------
 Warning -- This program may not be used in any manner that
 competes with the business of Gaussian, Inc. or will provide
 assistance to any competitor of Gaussian, Inc.  The licensee
 of this program is prohibited from giving any competitor of
 Gaussian, Inc. access to this program.  By using this program,
 the user acknowledges that Gaussian, Inc. is engaged in the
 business of creating and licensing software in the field of
 computational chemistry and represents and warrants to the
 licensee that it is not a competitor of Gaussian, Inc. and that
 it will not use this program in any manner prohibited above.
 ---------------------------------------------------------------
  

 Cite this work as:
 Gaussian 16, Revision C.01,
 M. J. Frisch, G. W. Trucks, H. B. Schlegel, G. E. Scuseria, 
 M. A. Robb, J. R. Cheeseman, G. Scalmani, V. Barone, 
 G. A. Petersson, H. Nakatsuji, X. Li, M. Caricato, A. V. Marenich, 
 J. Bloino, B. G. Janesko, R. Gomperts, B. Mennucci, H. P. Hratchian, 
 J. V. Ortiz, A. F. Izmaylov, J. L. Sonnenberg, D. Williams-Young, 
 F. Ding, F. Lipparini, F. Egidi, J. Goings, B. Peng, A. Petrone, 
 T. Henderson, D. Ranasinghe, V. G. Zakrzewski, J. Gao, N. Rega, 
 G. Zheng, W. Liang, M. Hada, M. Ehara, K. Toyota, R. Fukuda, 
 J. Hasegawa, M. Ishida, T. Nakajima, Y. Honda, O. Kitao, H. Nakai, 
 T. Vreven, K. Throssell, J. A. Montgomery, Jr., J. E. Peralta, 
 F. Ogliaro, M. J. Bearpark, J. J. Heyd, E. N. Brothers, K. N. Kudin, 
 V. N. Staroverov, T. A. Keith, R. Kobayashi, J. Normand, 
 K. Raghavachari, A. P. Rendell, J. C. Burant, S. S. Iyengar, 
 J. Tomasi, M. Cossi, J. M. Millam, M. Klene, C. Adamo, R. Cammi, 
 J. W. Ochterski, R. L. Martin, K. Morokuma, O. Farkas, 
 J. B. Foresman, and D. J. Fox, Gaussian, Inc., Wallingford CT, 2019.
 
 ******************************************
 Gaussian 16:  EM64L-G16RevC.01  3-Jul-2019
                18-Oct-2024 
 ******************************************
 %nprocshared=40
 Will use up to   40 processors via shared memory.
 %mem=50gb
 ------------------------------------------------------
 # PBE1PBE/aug-cc-pVDZ opt freq EmpiricalDispersion=GD3
 ------------------------------------------------------
 1/18=20,19=15,26=3,38=1/1,3;
 2/9=110,12=2,17=6,18=5,40=1/2;
 3/5=16,7=10,11=2,25=1,30=1,71=1,74=-13,124=31/1,2,3;
 4//1;
 5/5=2,38=5/2;
 6/7=2,8=2,9=2,10=2,28=1/1;
 7//1,2,3,16;
 1/18=20,19=15,26=3/3(2);
 2/9=110/2;
 99//99;
 2/9=110/2;
 3/5=16,7=10,11=2,25=1,30=1,71=1,74=-13,124=31/1,2,3;
 4/5=5,16=3,69=1/1;
 5/5=2,38=5/2;
 7//1,2,3,16;
 1/18=20,19=15,26=3/3(-5);
 2/9=110/2;
 6/7=2,8=2,9=2,10=2,19=2,28=1/1;
 99/9=1/99;
 ----
 blah
 ----
 Symbolic Z-matrix:
 Charge = -1 Multiplicity = 1
 C                    -2.75618  -0.24513   0.32418 
 C                    -1.38441  -0.88565   0.54504 
 C                    -0.61051  -0.44595  -0.71586 
 O                    -1.53447  -2.27445   0.66269 
 H                    -0.90579  -0.44374   1.43065 
 O                    -1.24452   0.68176  -1.23699 
 H                    -0.60506  -1.25872  -1.45678 
 N                     0.8068   -0.1212   -0.43153 
 C                    -2.42369   1.0074   -0.47751 
 H                    -3.24768  -0.00171   1.2797 
 O                    -3.56908  -1.08004  -0.46658 
 C                    -2.20238   2.26213   0.33819 
 H                    -3.22936   1.19582  -1.19964 
 O                    -1.1966    2.01015   1.30601 
 H                    -3.15969   2.54028   0.81145 
 H                    -1.90346   3.07556  -0.34371 
 H                    -3.30267  -1.98754  -0.259 
 H                    -0.6454   -2.6504    0.5414 
 H                    -1.04225   2.80807   1.81796 
 C                     1.31788   1.14202  -0.56532 
 C                     2.61982   1.43116  -0.3404 
 C                     3.53685   0.38446   0.0576 
 N                     2.91681  -0.87266   0.16615 
 C                     1.59994  -1.1784   -0.04097 
 H                     0.58901   1.88607  -0.87074 
 H                     3.00347   2.4401   -0.45585 
 O                     4.72663   0.49813   0.29289 
 O                     1.15481  -2.31488   0.11157 
 

 GradGradGradGradGradGradGradGradGradGradGradGradGradGradGradGradGradGrad
 Berny optimization.
 Initialization pass.
                           ----------------------------
                           !    Initial Parameters    !
                           ! (Angstroms and Degrees)  !
 --------------------------                            --------------------------
 ! Name  Definition              Value          Derivative Info.                !
 --------------------------------------------------------------------------------
 ! R1    R(1,2)                  1.53           estimate D2E/DX2                !
 ! R2    R(1,9)                  1.5238         estimate D2E/DX2                !
 ! R3    R(1,10)                 1.1017         estimate D2E/DX2                !
 ! R4    R(1,11)                 1.4083         estimate D2E/DX2                !
 ! R5    R(2,3)                  1.5434         estimate D2E/DX2                !
 ! R6    R(2,4)                  1.4018         estimate D2E/DX2                !
 ! R7    R(2,5)                  1.0994         estimate D2E/DX2                !
 ! R8    R(3,6)                  1.3947         estimate D2E/DX2                !
 ! R9    R(3,7)                  1.0998         estimate D2E/DX2                !
 ! R10   R(3,8)                  1.4816         estimate D2E/DX2                !
 ! R11   R(4,18)                 0.9729         estimate D2E/DX2                !
 ! R12   R(6,9)                  1.4399         estimate D2E/DX2                !
 ! R13   R(8,20)                 1.3692         estimate D2E/DX2                !
 ! R14   R(8,24)                 1.3781         estimate D2E/DX2                !
 ! R15   R(9,12)                 1.5128         estimate D2E/DX2                !
 ! R16   R(9,13)                 1.0982         estimate D2E/DX2                !
 ! R17   R(11,17)                0.9683         estimate D2E/DX2                !
 ! R18   R(12,14)                1.4184         estimate D2E/DX2                !
 ! R19   R(12,15)                1.1035         estimate D2E/DX2                !
 ! R20   R(12,16)                1.1027         estimate D2E/DX2                !
 ! R21   R(14,19)                0.9605         estimate D2E/DX2                !
 ! R22   R(20,21)                1.3525         estimate D2E/DX2                !
 ! R23   R(20,25)                1.0854         estimate D2E/DX2                !
 ! R24   R(21,22)                1.4474         estimate D2E/DX2                !
 ! R25   R(21,26)                1.0856         estimate D2E/DX2                !
 ! R26   R(22,23)                1.4059         estimate D2E/DX2                !
 ! R27   R(22,27)                1.2181         estimate D2E/DX2                !
 ! R28   R(23,24)                1.3677         estimate D2E/DX2                !
 ! R29   R(24,28)                1.23           estimate D2E/DX2                !
 ! A1    A(2,1,9)              102.969          estimate D2E/DX2                !
 ! A2    A(2,1,10)             111.5483         estimate D2E/DX2                !
 ! A3    A(2,1,11)             110.512          estimate D2E/DX2                !
 ! A4    A(9,1,10)             111.8397         estimate D2E/DX2                !
 ! A5    A(9,1,11)             108.5328         estimate D2E/DX2                !
 ! A6    A(10,1,11)            111.1289         estimate D2E/DX2                !
 ! A7    A(1,2,3)              102.2618         estimate D2E/DX2                !
 ! A8    A(1,2,4)              109.3232         estimate D2E/DX2                !
 ! A9    A(1,2,5)              109.7754         estimate D2E/DX2                !
 ! A10   A(3,2,4)              113.8588         estimate D2E/DX2                !
 ! A11   A(3,2,5)              108.9831         estimate D2E/DX2                !
 ! A12   A(4,2,5)              112.1613         estimate D2E/DX2                !
 ! A13   A(2,3,6)              107.9184         estimate D2E/DX2                !
 ! A14   A(2,3,7)              110.0179         estimate D2E/DX2                !
 ! A15   A(2,3,8)              112.6644         estimate D2E/DX2                !
 ! A16   A(6,3,7)              110.3689         estimate D2E/DX2                !
 ! A17   A(6,3,8)              109.2287         estimate D2E/DX2                !
 ! A18   A(7,3,8)              106.6502         estimate D2E/DX2                !
 ! A19   A(2,4,18)             105.9353         estimate D2E/DX2                !
 ! A20   A(3,6,9)              110.9802         estimate D2E/DX2                !
 ! A21   A(3,8,20)             122.7198         estimate D2E/DX2                !
 ! A22   A(3,8,24)             115.8991         estimate D2E/DX2                !
 ! A23   A(20,8,24)            121.3725         estimate D2E/DX2                !
 ! A24   A(1,9,6)              105.6811         estimate D2E/DX2                !
 ! A25   A(1,9,12)             115.4663         estimate D2E/DX2                !
 ! A26   A(1,9,13)             109.0798         estimate D2E/DX2                !
 ! A27   A(6,9,12)             110.6199         estimate D2E/DX2                !
 ! A28   A(6,9,13)             107.0222         estimate D2E/DX2                !
 ! A29   A(12,9,13)            108.637          estimate D2E/DX2                !
 ! A30   A(1,11,17)            106.0479         estimate D2E/DX2                !
 ! A31   A(9,12,14)            108.923          estimate D2E/DX2                !
 ! A32   A(9,12,15)            108.2626         estimate D2E/DX2                !
 ! A33   A(9,12,16)            108.5443         estimate D2E/DX2                !
 ! A34   A(14,12,15)           111.5491         estimate D2E/DX2                !
 ! A35   A(14,12,16)           111.1483         estimate D2E/DX2                !
 ! A36   A(15,12,16)           108.3259         estimate D2E/DX2                !
 ! A37   A(12,14,19)           109.2719         estimate D2E/DX2                !
 ! A38   A(8,20,21)            122.7029         estimate D2E/DX2                !
 ! A39   A(8,20,25)            114.1588         estimate D2E/DX2                !
 ! A40   A(21,20,25)           123.1378         estimate D2E/DX2                !
 ! A41   A(20,21,22)           120.0675         estimate D2E/DX2                !
 ! A42   A(20,21,26)           121.4131         estimate D2E/DX2                !
 ! A43   A(22,21,26)           118.5188         estimate D2E/DX2                !
 ! A44   A(21,22,23)           112.8578         estimate D2E/DX2                !
 ! A45   A(21,22,27)           127.1897         estimate D2E/DX2                !
 ! A46   A(23,22,27)           119.9524         estimate D2E/DX2                !
 ! A47   A(22,23,24)           127.7948         estimate D2E/DX2                !
 ! A48   A(8,24,23)            115.1865         estimate D2E/DX2                !
 ! A49   A(8,24,28)            122.3881         estimate D2E/DX2                !
 ! A50   A(23,24,28)           122.4254         estimate D2E/DX2                !
 ! D1    D(9,1,2,3)            -30.4362         estimate D2E/DX2                !
 ! D2    D(9,1,2,4)           -151.4234         estimate D2E/DX2                !
 ! D3    D(9,1,2,5)             85.151          estimate D2E/DX2                !
 ! D4    D(10,1,2,3)          -150.5274         estimate D2E/DX2                !
 ! D5    D(10,1,2,4)            88.4855         estimate D2E/DX2                !
 ! D6    D(10,1,2,5)           -34.9402         estimate D2E/DX2                !
 ! D7    D(11,1,2,3)            85.3113         estimate D2E/DX2                !
 ! D8    D(11,1,2,4)           -35.6758         estimate D2E/DX2                !
 ! D9    D(11,1,2,5)          -159.1015         estimate D2E/DX2                !
 ! D10   D(2,1,9,6)             29.8866         estimate D2E/DX2                !
 ! D11   D(2,1,9,12)           -92.7185         estimate D2E/DX2                !
 ! D12   D(2,1,9,13)           144.6477         estimate D2E/DX2                !
 ! D13   D(10,1,9,6)           149.7768         estimate D2E/DX2                !
 ! D14   D(10,1,9,12)           27.1718         estimate D2E/DX2                !
 ! D15   D(10,1,9,13)          -95.4621         estimate D2E/DX2                !
 ! D16   D(11,1,9,6)           -87.2714         estimate D2E/DX2                !
 ! D17   D(11,1,9,12)          150.1235         estimate D2E/DX2                !
 ! D18   D(11,1,9,13)           27.4897         estimate D2E/DX2                !
 ! D19   D(2,1,11,17)           31.5736         estimate D2E/DX2                !
 ! D20   D(9,1,11,17)          143.792          estimate D2E/DX2                !
 ! D21   D(10,1,11,17)         -92.8281         estimate D2E/DX2                !
 ! D22   D(1,2,3,6)             21.4567         estimate D2E/DX2                !
 ! D23   D(1,2,3,7)            -99.0161         estimate D2E/DX2                !
 ! D24   D(1,2,3,8)            142.1282         estimate D2E/DX2                !
 ! D25   D(4,2,3,6)            139.2565         estimate D2E/DX2                !
 ! D26   D(4,2,3,7)             18.7838         estimate D2E/DX2                !
 ! D27   D(4,2,3,8)           -100.072          estimate D2E/DX2                !
 ! D28   D(5,2,3,6)            -94.7051         estimate D2E/DX2                !
 ! D29   D(5,2,3,7)            144.8221         estimate D2E/DX2                !
 ! D30   D(5,2,3,8)             25.9664         estimate D2E/DX2                !
 ! D31   D(1,2,4,18)           164.0103         estimate D2E/DX2                !
 ! D32   D(3,2,4,18)            50.3589         estimate D2E/DX2                !
 ! D33   D(5,2,4,18)           -73.9877         estimate D2E/DX2                !
 ! D34   D(2,3,6,9)             -2.9197         estimate D2E/DX2                !
 ! D35   D(7,3,6,9)            117.3327         estimate D2E/DX2                !
 ! D36   D(8,3,6,9)           -125.7182         estimate D2E/DX2                !
 ! D37   D(2,3,8,20)          -114.4662         estimate D2E/DX2                !
 ! D38   D(2,3,8,24)            66.5905         estimate D2E/DX2                !
 ! D39   D(6,3,8,20)             5.4517         estimate D2E/DX2                !
 ! D40   D(6,3,8,24)          -173.4917         estimate D2E/DX2                !
 ! D41   D(7,3,8,20)           124.7315         estimate D2E/DX2                !
 ! D42   D(7,3,8,24)           -54.2119         estimate D2E/DX2                !
 ! D43   D(3,6,9,1)            -17.1993         estimate D2E/DX2                !
 ! D44   D(3,6,9,12)           108.4485         estimate D2E/DX2                !
 ! D45   D(3,6,9,13)          -133.3686         estimate D2E/DX2                !
 ! D46   D(3,8,20,21)         -178.1714         estimate D2E/DX2                !
 ! D47   D(3,8,20,25)            1.5781         estimate D2E/DX2                !
 ! D48   D(24,8,20,21)           0.7154         estimate D2E/DX2                !
 ! D49   D(24,8,20,25)        -179.5352         estimate D2E/DX2                !
 ! D50   D(3,8,24,23)          177.5071         estimate D2E/DX2                !
 ! D51   D(3,8,24,28)           -2.5635         estimate D2E/DX2                !
 ! D52   D(20,8,24,23)          -1.4517         estimate D2E/DX2                !
 ! D53   D(20,8,24,28)         178.4777         estimate D2E/DX2                !
 ! D54   D(1,9,12,14)           55.0105         estimate D2E/DX2                !
 ! D55   D(1,9,12,15)          -66.4566         estimate D2E/DX2                !
 ! D56   D(1,9,12,16)          176.1608         estimate D2E/DX2                !
 ! D57   D(6,9,12,14)          -64.9275         estimate D2E/DX2                !
 ! D58   D(6,9,12,15)          173.6054         estimate D2E/DX2                !
 ! D59   D(6,9,12,16)           56.2228         estimate D2E/DX2                !
 ! D60   D(13,9,12,14)         177.8794         estimate D2E/DX2                !
 ! D61   D(13,9,12,15)          56.4124         estimate D2E/DX2                !
 ! D62   D(13,9,12,16)         -60.9702         estimate D2E/DX2                !
 ! D63   D(9,12,14,19)         179.1201         estimate D2E/DX2                !
 ! D64   D(15,12,14,19)        -61.4372         estimate D2E/DX2                !
 ! D65   D(16,12,14,19)         59.5753         estimate D2E/DX2                !
 ! D66   D(8,20,21,22)           0.0858         estimate D2E/DX2                !
 ! D67   D(8,20,21,26)         179.8044         estimate D2E/DX2                !
 ! D68   D(25,20,21,22)       -179.6412         estimate D2E/DX2                !
 ! D69   D(25,20,21,26)          0.0774         estimate D2E/DX2                !
 ! D70   D(20,21,22,23)         -0.0504         estimate D2E/DX2                !
 ! D71   D(20,21,22,27)       -179.9492         estimate D2E/DX2                !
 ! D72   D(26,21,22,23)       -179.7771         estimate D2E/DX2                !
 ! D73   D(26,21,22,27)          0.3241         estimate D2E/DX2                !
 ! D74   D(21,22,23,24)         -0.8527         estimate D2E/DX2                !
 ! D75   D(27,22,23,24)        179.0543         estimate D2E/DX2                !
 ! D76   D(22,23,24,8)           1.5958         estimate D2E/DX2                !
 ! D77   D(22,23,24,28)       -178.3336         estimate D2E/DX2                !
 --------------------------------------------------------------------------------
 Trust Radius=3.00D-01 FncErr=1.00D-07 GrdErr=1.00D-06 EigMax=2.50D+02 EigMin=1.00D-04
 Number of steps in this run=    166 maximum allowed number of steps=    168.
 GradGradGradGradGradGradGradGradGradGradGradGradGradGradGradGradGradGrad

                          Input orientation:                          
 ---------------------------------------------------------------------
 Center     Atomic      Atomic             Coordinates (Angstroms)
 Number     Number       Type             X           Y           Z
 ---------------------------------------------------------------------
      1          6           0       -2.756183   -0.245127    0.324182
      2          6           0       -1.384409   -0.885649    0.545035
      3          6           0       -0.610509   -0.445947   -0.715862
      4          8           0       -1.534470   -2.274445    0.662691
      5          1           0       -0.905793   -0.443739    1.430646
      6          8           0       -1.244521    0.681756   -1.236993
      7          1           0       -0.605056   -1.258720   -1.456782
      8          7           0        0.806803   -0.121197   -0.431529
      9          6           0       -2.423693    1.007404   -0.477505
     10          1           0       -3.247681   -0.001714    1.279698
     11          8           0       -3.569084   -1.080041   -0.466584
     12          6           0       -2.202376    2.262134    0.338189
     13          1           0       -3.229361    1.195816   -1.199643
     14          8           0       -1.196603    2.010145    1.306011
     15          1           0       -3.159689    2.540284    0.811448
     16          1           0       -1.903460    3.075557   -0.343707
     17          1           0       -3.302667   -1.987540   -0.259001
     18          1           0       -0.645404   -2.650395    0.541402
     19          1           0       -1.042249    2.808066    1.817955
     20          6           0        1.317879    1.142022   -0.565323
     21          6           0        2.619823    1.431163   -0.340401
     22          6           0        3.536850    0.384460    0.057599
     23          7           0        2.916813   -0.872660    0.166154
     24          6           0        1.599940   -1.178398   -0.040973
     25          1           0        0.589011    1.886071   -0.870743
     26          1           0        3.003474    2.440098   -0.455849
     27          8           0        4.726625    0.498130    0.292886
     28          8           0        1.154812   -2.314878    0.111573
 ---------------------------------------------------------------------
                    Distance matrix (angstroms):
                    1          2          3          4          5
     1  C    0.000000
     2  C    1.529970   0.000000
     3  C    2.392893   1.543412   0.000000
     4  O    2.392760   1.401826   2.469315   0.000000
     5  H    2.165099   1.099393   2.166724   2.082420   0.000000
     6  O    2.362520   2.377383   1.394727   3.525903   2.915094
     7  H    2.970951   2.180331   1.099815   2.527385   3.015274
     8  N    3.644355   2.517831   1.481581   3.363830   2.550434
     9  C    1.523839   2.389424   2.335954   3.586265   2.837407
    10  H    1.101740   2.189259   3.336807   2.912232   2.388014
    11  O    1.408261   2.415360   3.036014   2.615629   3.331288
    12  C    2.567734   3.258894   3.313422   4.596950   3.193171
    13  H    2.149943   3.283328   3.128548   4.287616   3.873697
    14  O    2.912478   2.999996   3.234790   4.345771   2.474197
    15  H    2.856354   3.867766   4.212905   5.083806   3.790494
    16  H    3.492872   4.092729   3.769776   5.456328   4.065601
    17  H    1.916964   2.353795   3.135753   2.014535   3.314096
    18  H    3.207474   1.913235   2.538015   0.972876   2.393301
    19  H    3.806693   3.921853   4.146713   5.235345   3.277631
    20  C    4.394699   3.556221   2.502596   4.616943   3.382787
    21  C    5.670367   4.710147   3.754938   5.656490   4.368276
    22  C    6.330064   5.105836   4.299814   5.757968   4.723161
    23  N    5.709786   4.317897   3.660879   4.693130   4.049102
    24  C    4.469915   3.055396   2.424468   3.394258   2.997346
    25  H    4.142484   3.685274   2.627003   4.916349   3.599840
    26  H    6.402541   5.596059   4.632250   6.638598   5.211310
    27  O    7.519696   6.270818   5.513062   6.857495   5.822864
    28  O    4.430006   2.945883   2.700724   2.745470   3.080131
                    6          7          8          9         10
     6  O    0.000000
     7  H    2.054914   0.000000
     8  N    2.345514   2.082894   0.000000
     9  C    1.439901   3.066226   3.422274   0.000000
    10  H    3.288391   4.006476   4.402433   2.187473   0.000000
    11  O    3.016795   3.130157   4.479843   2.381064   2.077400
    12  C    2.428226   4.262601   3.915085   1.512840   2.665354
    13  H    2.050669   3.602478   4.314527   1.098218   2.753461
    14  O    2.869457   4.320698   3.402249   2.385827   2.873185
    15  H    3.364239   5.109153   4.935740   2.133732   2.586263
    16  H    2.638644   4.659479   4.191954   2.136774   3.729875
    17  H    3.509640   3.040224   4.516718   3.128902   2.512792
    18  H    3.824246   2.435390   3.074466   4.192848   3.785821
    19  H    3.727575   5.239636   4.130345   3.227988   3.612273
    20  C    2.688657   3.202490   1.369241   3.745023   5.055351
    21  C    4.037158   4.345299   2.388549   5.063144   6.253436
    22  C    4.962445   4.706249   2.819236   6.016849   6.904529
    23  N    4.658512   3.896989   2.318203   5.698240   6.324517
    24  C    3.602998   2.621636   1.378142   4.599773   5.160251
    25  H    2.224040   3.414520   2.066269   3.162764   4.786265
    26  H    4.663412   5.263517   3.374342   5.613129   6.931920
    27  O    6.166752   5.880024   4.034024   7.209709   8.050664
    28  O    4.068814   2.583088   2.286549   4.918360   5.108541
                   11         12         13         14         15
    11  O    0.000000
    12  C    3.699417   0.000000
    13  H    2.415018   2.134633   0.000000
    14  O    4.280188   1.418364   3.327693   0.000000
    15  H    3.861052   1.103535   2.420111   2.092689   0.000000
    16  H    4.478660   1.102719   2.454397   2.087180   1.788578
    17  H    0.968309   4.430238   3.320231   4.781867   4.654836
    18  H    3.468422   5.157364   4.949890   4.754901   5.773881
    19  H    5.169274   1.957969   4.060629   0.960515   2.359728
    20  C    5.369331   3.803049   4.591584   3.252407   4.888686
    21  C    6.680167   4.940101   5.916641   4.196546   5.996638
    22  C    7.274189   6.045089   6.929687   5.158194   7.075274
    23  N    6.519987   6.005217   6.627175   5.150731   6.999176
    24  C    5.187449   5.141851   5.504685   4.449924   6.099941
    25  H    5.123565   3.065091   3.894174   2.818168   4.160590
    26  H    7.455871   5.269065   6.399195   4.574894   6.292905
    27  O    8.478573   7.150162   8.124784   6.196551   8.162919
    28  O    4.916735   5.680766   5.767602   5.065734   6.532790
                   16         17         18         19         20
    16  H    0.000000
    17  H    5.253561   0.000000
    18  H    5.928967   2.853256   0.000000
    19  H    2.342225   5.693951   5.619775   0.000000
    20  C    3.763601   5.589046   4.411547   3.745120   0.000000
    21  C    4.812913   6.838863   5.300792   4.468236   1.352498
    22  C    6.082764   7.246076   5.189957   5.471825   2.426059
    23  N    6.251672   6.332902   3.998818   5.652465   2.674059
    24  C    5.519202   4.973711   2.747272   5.131147   2.395590
    25  H    2.811593   5.524875   4.908916   3.277222   1.085421
    26  H    4.949180   7.707797   6.342077   4.655476   2.130309
    27  O    7.141877   8.423340   6.231666   6.398558   3.573607
    28  O    6.214266   4.484818   1.880984   5.829526   3.526321
                   21         22         23         24         25
    21  C    0.000000
    22  C    1.447387   0.000000
    23  N    2.377478   1.405909   0.000000
    24  C    2.817734   2.490755   1.367674   0.000000
    25  H    2.147650   3.436046   3.755584   3.331886   0.000000
    26  H    1.085572   2.184895   3.371760   3.903273   2.511715
    27  O    2.389606   1.218132   2.273883   3.563477   4.516665
    28  O    4.047636   3.600478   2.277635   1.230039   4.351212
                   26         27         28
    26  H    0.000000
    27  O    2.702054   0.000000
    28  O    5.133158   4.550136   0.000000
 Stoichiometry    C9H11N2O6(1-)
 Framework group  C1[X(C9H11N2O6)]
 Deg. of freedom    78
 Full point group                 C1      NOp   1
 Largest Abelian subgroup         C1      NOp   1
 Largest concise Abelian subgroup C1      NOp   1
                         Standard orientation:                         
 ---------------------------------------------------------------------
 Center     Atomic      Atomic             Coordinates (Angstroms)
 Number     Number       Type             X           Y           Z
 ---------------------------------------------------------------------
      1          6           0       -2.732376   -0.222687    0.322058
      2          6           0       -1.369255   -0.879443    0.548735
      3          6           0       -0.586883   -0.454326   -0.711936
      4          8           0       -1.536956   -2.265790    0.671349
      5          1           0       -0.887284   -0.440127    1.433816
      6          8           0       -1.205485    0.679188   -1.238945
      7          1           0       -0.589812   -1.269963   -1.449716
      8          7           0        0.833691   -0.146217   -0.425371
      9          6           0       -2.382318    1.022482   -0.483610
     10          1           0       -3.223090    0.030543    1.275423
     11          8           0       -3.553749   -1.050428   -0.467493
     12          6           0       -2.147290    2.277493    0.327805
     13          1           0       -3.183825    1.218153   -1.208442
     14          8           0       -1.147080    2.016699    1.299053
     15          1           0       -3.102186    2.569413    0.797641
     16          1           0       -1.836584    3.084474   -0.356471
     17          1           0       -3.299203   -1.960376   -0.255776
     18          1           0       -0.652372   -2.653288    0.553687
     19          1           0       -0.983992    2.814602    1.808310
     20          6           0        1.360846    1.109990   -0.562755
     21          6           0        2.665759    1.383705   -0.335748
     22          6           0        3.568663    0.327171    0.068516
     23          7           0        2.932692   -0.921673    0.180371
     24          6           0        1.612601   -1.211729   -0.028815
     25          1           0        0.642078    1.861903   -0.872817
     26          1           0        3.062275    2.387313   -0.454124
     27          8           0        4.759196    0.426872    0.306286
     28          8           0        1.152929   -2.341959    0.126997
 ---------------------------------------------------------------------
 Rotational constants (GHZ):           0.8924558           0.3402538           0.2729222
 Standard basis: Aug-CC-pVDZ (5D, 7F)
 There are   524 symmetry adapted cartesian basis functions of A   symmetry.
 There are   490 symmetry adapted basis functions of A   symmetry.
   490 basis functions,   852 primitive gaussians,   524 cartesian basis functions
    64 alpha electrons       64 beta electrons
       nuclear repulsion energy      1324.8742895198 Hartrees.
 NAtoms=   28 NActive=   28 NUniq=   28 SFac= 1.00D+00 NAtFMM=   60 NAOKFM=F Big=F
 Integral buffers will be    131072 words long.
 Raffenetti 2 integral format.
 Two-electron integral symmetry is turned on.
 Nuclear repulsion after empirical dispersion term =     1324.8542652457 Hartrees.
 One-electron integrals computed using PRISM.
 NBasis=   490 RedAO= T EigKep=  3.51D-06  NBF=   490
 NBsUse=   490 1.00D-06 EigRej= -1.00D+00 NBFU=   490
 ExpMin= 2.97D-02 ExpMax= 1.17D+04 ExpMxC= 4.01D+02 IAcc=3 IRadAn=         5 AccDes= 0.00D+00
 Harris functional with IExCor= 1009 and IRadAn=       5 diagonalized for initial guess.
 HarFok:  IExCor= 1009 AccDes= 0.00D+00 IRadAn=         5 IDoV= 1 UseB2=F ITyADJ=14
 ICtDFT=  3500011 ScaDFX=  1.000000  1.000000  1.000000  1.000000
 FoFCou: FMM=F IPFlag=           0 FMFlag=      100000 FMFlg1=           0
         NFxFlg=           0 DoJE=T BraDBF=F KetDBF=T FulRan=T
         wScrn=  0.000000 ICntrl=       500 IOpCl=  0 I1Cent=   200000004 NGrid=           0
         NMat0=    1 NMatS0=      1 NMatT0=    0 NMatD0=    1 NMtDS0=    0 NMtDT0=    0
 Petite list used in FoFCou.
 Requested convergence on RMS density matrix=1.00D-08 within 128 cycles.
 Requested convergence on MAX density matrix=1.00D-06.
 Requested convergence on             energy=1.00D-06.
 No special actions if energy rises.
 EnCoef did     3 forward-backward iterations
 SCF Done:  E(RPBE1PBE) =  -909.654554736     A.U. after   16 cycles
            NFock= 16  Conv=0.79D-08     -V/T= 2.0053

 **********************************************************************

            Population analysis using the SCF Density.

 **********************************************************************

 Orbital symmetries:
       Occupied  (A) (A) (A) (A) (A) (A) (A) (A) (A) (A) (A) (A)
                 (A) (A) (A) (A) (A) (A) (A) (A) (A) (A) (A) (A)
                 (A) (A) (A) (A) (A) (A) (A) (A) (A) (A) (A) (A)
                 (A) (A) (A) (A) (A) (A) (A) (A) (A) (A) (A) (A)
                 (A) (A) (A) (A) (A) (A) (A) (A) (A) (A) (A) (A)
                 (A) (A) (A) (A)
       Virtual   (A) (A) (A) (A) (A) (A) (A) (A) (A) (A) (A) (A)
                 (A) (A) (A) (A) (A) (A) (A) (A) (A) (A) (A) (A)
                 (A) (A) (A) (A) (A) (A) (A) (A) (A) (A) (A) (A)
                 (A) (A) (A) (A) (A) (A) (A) (A) (A) (A) (A) (A)
                 (A) (A) (A) (A) (A) (A) (A) (A) (A) (A) (A) (A)
                 (A) (A) (A) (A) (A) (A) (A) (A) (A) (A) (A) (A)
                 (A) (A) (A) (A) (A) (A) (A) (A) (A) (A) (A) (A)
                 (A) (A) (A) (A) (A) (A) (A) (A) (A) (A) (A) (A)
                 (A) (A) (A) (A) (A) (A) (A) (A) (A) (A) (A) (A)
                 (A) (A) (A) (A) (A) (A) (A) (A) (A) (A) (A) (A)
                 (A) (A) (A) (A) (A) (A) (A) (A) (A) (A) (A) (A)
                 (A) (A) (A) (A) (A) (A) (A) (A) (A) (A) (A) (A)
                 (A) (A) (A) (A) (A) (A) (A) (A) (A) (A) (A) (A)
                 (A) (A) (A) (A) (A) (A) (A) (A) (A) (A) (A) (A)
                 (A) (A) (A) (A) (A) (A) (A) (A) (A) (A) (A) (A)
                 (A) (A) (A) (A) (A) (A) (A) (A) (A) (A) (A) (A)
                 (A) (A) (A) (A) (A) (A) (A) (A) (A) (A) (A) (A)
                 (A) (A) (A) (A) (A) (A) (A) (A) (A) (A) (A) (A)
                 (A) (A) (A) (A) (A) (A) (A) (A) (A) (A) (A) (A)
                 (A) (A) (A) (A) (A) (A) (A) (A) (A) (A) (A) (A)
                 (A) (A) (A) (A) (A) (A) (A) (A) (A) (A) (A) (A)
                 (A) (A) (A) (A) (A) (A) (A) (A) (A) (A) (A) (A)
                 (A) (A) (A) (A) (A) (A) (A) (A) (A) (A) (A) (A)
                 (A) (A) (A) (A) (A) (A) (A) (A) (A) (A) (A) (A)
                 (A) (A) (A) (A) (A) (A) (A) (A) (A) (A) (A) (A)
                 (A) (A) (A) (A) (A) (A) (A) (A) (A) (A) (A) (A)
                 (A) (A) (A) (A) (A) (A) (A) (A) (A) (A) (A) (A)
                 (A) (A) (A) (A) (A) (A) (A) (A) (A) (A) (A) (A)
                 (A) (A) (A) (A) (A) (A) (A) (A) (A) (A) (A) (A)
                 (A) (A) (A) (A) (A) (A) (A) (A) (A) (A) (A) (A)
                 (A) (A) (A) (A) (A) (A) (A) (A) (A) (A) (A) (A)
                 (A) (A) (A) (A) (A) (A) (A) (A) (A) (A) (A) (A)
                 (A) (A) (A) (A) (A) (A) (A) (A) (A) (A) (A) (A)
                 (A) (A) (A) (A) (A) (A) (A) (A) (A) (A) (A) (A)
                 (A) (A) (A) (A) (A) (A) (A) (A) (A) (A) (A) (A)
                 (A) (A) (A) (A) (A) (A)
 The electronic state is 1-A.
 Alpha  occ. eigenvalues --  -19.15733 -19.14562 -19.13366 -19.11809 -19.03515
 Alpha  occ. eigenvalues --  -19.00980 -14.30846 -14.18815 -10.21179 -10.20995
 Alpha  occ. eigenvalues --  -10.20442 -10.19577 -10.19007 -10.18165 -10.15180
 Alpha  occ. eigenvalues --  -10.14664 -10.08566  -1.01198  -0.98594  -0.97284
 Alpha  occ. eigenvalues --   -0.94825  -0.92892  -0.88559  -0.84716  -0.73164
 Alpha  occ. eigenvalues --   -0.71581  -0.68130  -0.65206  -0.60511  -0.54229
 Alpha  occ. eigenvalues --   -0.53770  -0.50578  -0.48051  -0.46920  -0.44189
 Alpha  occ. eigenvalues --   -0.43732  -0.43493  -0.41028  -0.40057  -0.38178
 Alpha  occ. eigenvalues --   -0.36683  -0.35498  -0.33712  -0.33177  -0.32679
 Alpha  occ. eigenvalues --   -0.31487  -0.30009  -0.29331  -0.28283  -0.28079
 Alpha  occ. eigenvalues --   -0.27385  -0.25877  -0.24177  -0.23507  -0.22231
 Alpha  occ. eigenvalues --   -0.20940  -0.20193  -0.19226  -0.18503  -0.14310
 Alpha  occ. eigenvalues --   -0.10006  -0.09674  -0.08156  -0.07961
 Alpha virt. eigenvalues --    0.05859   0.08029   0.08350   0.09439   0.10651
 Alpha virt. eigenvalues --    0.10959   0.11611   0.11892   0.12649   0.13248
 Alpha virt. eigenvalues --    0.14215   0.14763   0.15127   0.15398   0.15594
 Alpha virt. eigenvalues --    0.16095   0.16709   0.16980   0.17640   0.17881
 Alpha virt. eigenvalues --    0.18289   0.18758   0.19055   0.19529   0.19606
 Alpha virt. eigenvalues --    0.19912   0.20478   0.20701   0.20936   0.21648
 Alpha virt. eigenvalues --    0.21830   0.22130   0.22463   0.22760   0.22958
 Alpha virt. eigenvalues --    0.23748   0.23984   0.24391   0.24550   0.25320
 Alpha virt. eigenvalues --    0.25565   0.25761   0.26634   0.27136   0.27539
 Alpha virt. eigenvalues --    0.27871   0.28401   0.28592   0.29071   0.29148
 Alpha virt. eigenvalues --    0.29740   0.30472   0.30913   0.31256   0.32041
 Alpha virt. eigenvalues --    0.32654   0.33342   0.33651   0.33963   0.34257
 Alpha virt. eigenvalues --    0.34730   0.35024   0.35470   0.35603   0.35907
 Alpha virt. eigenvalues --    0.36570   0.36726   0.36947   0.37363   0.37572
 Alpha virt. eigenvalues --    0.37890   0.38499   0.38578   0.39326   0.39458
 Alpha virt. eigenvalues --    0.39763   0.40352   0.40634   0.40810   0.41201
 Alpha virt. eigenvalues --    0.41429   0.42213   0.42586   0.42725   0.43232
 Alpha virt. eigenvalues --    0.43492   0.43955   0.44400   0.44748   0.44976
 Alpha virt. eigenvalues --    0.45192   0.45696   0.46124   0.46390   0.47181
 Alpha virt. eigenvalues --    0.47327   0.48019   0.48548   0.48738   0.49180
 Alpha virt. eigenvalues --    0.49872   0.50146   0.50635   0.51357   0.51844
 Alpha virt. eigenvalues --    0.52106   0.52968   0.53801   0.54214   0.54701
 Alpha virt. eigenvalues --    0.55036   0.55345   0.55869   0.56868   0.57367
 Alpha virt. eigenvalues --    0.57989   0.58250   0.58462   0.59452   0.59685
 Alpha virt. eigenvalues --    0.60526   0.60740   0.61054   0.61876   0.62295
 Alpha virt. eigenvalues --    0.62978   0.63050   0.63592   0.64477   0.64596
 Alpha virt. eigenvalues --    0.64914   0.66541   0.67122   0.67415   0.68108
 Alpha virt. eigenvalues --    0.69357   0.69540   0.70095   0.70307   0.70872
 Alpha virt. eigenvalues --    0.71426   0.72202   0.72537   0.73107   0.73993
 Alpha virt. eigenvalues --    0.74088   0.74848   0.75193   0.75562   0.76776
 Alpha virt. eigenvalues --    0.77126   0.77688   0.78174   0.78648   0.79392
 Alpha virt. eigenvalues --    0.79885   0.80064   0.80409   0.80862   0.81478
 Alpha virt. eigenvalues --    0.82185   0.82415   0.82594   0.83077   0.84197
 Alpha virt. eigenvalues --    0.85068   0.85423   0.85831   0.86178   0.86614
 Alpha virt. eigenvalues --    0.87067   0.88178   0.88542   0.89775   0.90639
 Alpha virt. eigenvalues --    0.90884   0.91501   0.91742   0.92461   0.93629
 Alpha virt. eigenvalues --    0.93945   0.94688   0.95555   0.96465   0.97043
 Alpha virt. eigenvalues --    0.97800   0.98080   0.98422   0.99577   1.00527
 Alpha virt. eigenvalues --    1.01225   1.02109   1.03084   1.03556   1.03734
 Alpha virt. eigenvalues --    1.05026   1.05508   1.06702   1.06959   1.08350
 Alpha virt. eigenvalues --    1.08653   1.09669   1.10319   1.11296   1.12533
 Alpha virt. eigenvalues --    1.12891   1.13243   1.15319   1.16095   1.16568
 Alpha virt. eigenvalues --    1.17789   1.18505   1.20025   1.20577   1.21923
 Alpha virt. eigenvalues --    1.22197   1.22616   1.23035   1.24472   1.24789
 Alpha virt. eigenvalues --    1.25380   1.27438   1.27542   1.28902   1.29087
 Alpha virt. eigenvalues --    1.30231   1.30322   1.32510   1.32973   1.34008
 Alpha virt. eigenvalues --    1.34645   1.36511   1.36651   1.37203   1.38693
 Alpha virt. eigenvalues --    1.39302   1.40642   1.40727   1.41982   1.42925
 Alpha virt. eigenvalues --    1.43496   1.44710   1.44915   1.47563   1.48095
 Alpha virt. eigenvalues --    1.48637   1.50421   1.52103   1.53099   1.54010
 Alpha virt. eigenvalues --    1.54667   1.55728   1.57178   1.57885   1.58330
 Alpha virt. eigenvalues --    1.58855   1.59639   1.61013   1.61858   1.63362
 Alpha virt. eigenvalues --    1.64184   1.65146   1.66232   1.66560   1.67165
 Alpha virt. eigenvalues --    1.67889   1.69351   1.69733   1.70778   1.71822
 Alpha virt. eigenvalues --    1.73873   1.74762   1.75412   1.76124   1.76885
 Alpha virt. eigenvalues --    1.78095   1.78410   1.79444   1.79690   1.80944
 Alpha virt. eigenvalues --    1.82850   1.84429   1.84940   1.85534   1.86466
 Alpha virt. eigenvalues --    1.87674   1.89244   1.89914   1.91726   1.91759
 Alpha virt. eigenvalues --    1.92596   1.93453   1.94352   1.94918   1.95734
 Alpha virt. eigenvalues --    1.96004   1.97397   1.98587   1.99110   2.00159
 Alpha virt. eigenvalues --    2.02414   2.03541   2.04084   2.04644   2.06282
 Alpha virt. eigenvalues --    2.07108   2.07494   2.08967   2.09555   2.10815
 Alpha virt. eigenvalues --    2.12567   2.13091   2.14735   2.15447   2.16195
 Alpha virt. eigenvalues --    2.16336   2.18165   2.18658   2.20558   2.21975
 Alpha virt. eigenvalues --    2.22364   2.23357   2.24583   2.24907   2.26781
 Alpha virt. eigenvalues --    2.27541   2.28827   2.29850   2.31888   2.32587
 Alpha virt. eigenvalues --    2.34788   2.35650   2.36801   2.38697   2.39248
 Alpha virt. eigenvalues --    2.41216   2.42703   2.43098   2.44889   2.45822
 Alpha virt. eigenvalues --    2.47506   2.50110   2.50640   2.52015   2.53392
 Alpha virt. eigenvalues --    2.54551   2.55081   2.58635   2.59554   2.59688
 Alpha virt. eigenvalues --    2.60867   2.61724   2.62151   2.62789   2.64051
 Alpha virt. eigenvalues --    2.66037   2.67768   2.69604   2.70391   2.72698
 Alpha virt. eigenvalues --    2.73409   2.75009   2.77226   2.79600   2.81313
 Alpha virt. eigenvalues --    2.82972   2.83762   2.85943   2.87163   2.87863
 Alpha virt. eigenvalues --    2.90122   2.90542   2.92682   2.96726   2.98241
 Alpha virt. eigenvalues --    2.99996   3.04848   3.05653   3.07108   3.09163
 Alpha virt. eigenvalues --    3.11130   3.13759   3.21347   3.24459   3.30943
 Alpha virt. eigenvalues --    3.33270   3.36385   3.39262   3.41381   3.47149
 Alpha virt. eigenvalues --    3.50674   3.54446   3.55313   3.58597   3.58905
 Alpha virt. eigenvalues --    3.61039   3.61490   3.62351   3.62819   3.63852
 Alpha virt. eigenvalues --    3.64590   3.66082   3.66484   3.68807   3.70059
 Alpha virt. eigenvalues --    3.71378   3.73504   3.74467   3.77097   3.78042
 Alpha virt. eigenvalues --    3.78603   3.82045   3.83696   3.85016   3.88863
 Alpha virt. eigenvalues --    3.90568   3.92899   3.97776   4.03450   4.04274
 Alpha virt. eigenvalues --    4.11013   4.16652   4.19251   4.28270   4.50073
 Alpha virt. eigenvalues --    4.74573
          Condensed to atoms (all electrons):
               1          2          3          4          5          6
     1  C   10.740241  -2.763915  -0.312519   0.023645   0.108597  -0.118828
     2  C   -2.763915   8.559616  -1.157405  -0.480884  -0.593054  -0.195175
     3  C   -0.312519  -1.157405  11.710926   0.241327   0.053530  -0.144225
     4  O    0.023645  -0.480884   0.241327   8.757861  -0.172623   0.031617
     5  H    0.108597  -0.593054   0.053530  -0.172623   2.286272   0.044283
     6  O   -0.118828  -0.195175  -0.144225   0.031617   0.044283   9.644594
     7  H   -0.145035   0.192199  -0.448811  -0.034804   0.145133  -0.236271
     8  N    0.453789   0.093408  -1.085839   0.000495  -0.183104  -0.201536
     9  C   -1.985289   0.725468  -3.016606   0.066103  -0.169944   0.246870
    10  H   -1.099090   0.651063   0.142997   0.003275  -0.120459   0.022951
    11  O   -0.635465   0.276232  -0.118599  -0.035412  -0.004575  -0.010683
    12  C   -0.084293  -0.100012   0.442906  -0.017502   0.079506  -0.063375
    13  H    0.284248   0.106653   0.357078  -0.006062  -0.001239  -0.230751
    14  O    0.037592   0.024909  -0.056141   0.001205  -0.023476  -0.044324
    15  H    0.013826  -0.002550   0.075080  -0.001520   0.016532   0.064091
    16  H    0.074908   0.003711  -0.114205  -0.000860  -0.002890  -0.008466
    17  H    0.155976  -0.213340   0.043768   0.065400   0.028223   0.006590
    18  H    0.004205   0.041170  -0.090235   0.304897  -0.027323  -0.000541
    19  H   -0.003484  -0.015851  -0.016473   0.000147  -0.000752  -0.000885
    20  C    0.040573   0.058858  -1.439550  -0.002865  -0.002920   0.290167
    21  C   -0.001184   0.023348  -0.244898   0.005842  -0.025769  -0.056604
    22  C   -0.017746  -0.004322  -0.065137  -0.000881   0.000338   0.010434
    23  N    0.021503   0.066790  -0.070688  -0.008551  -0.010869   0.004360
    24  C   -0.182848  -0.047673   0.203675   0.015674   0.073858  -0.051958
    25  H    0.178286  -0.167259   0.155541   0.002271  -0.016431  -0.229230
    26  H   -0.001767  -0.002528   0.065170   0.000314   0.000898   0.000893
    27  O   -0.000509   0.001158  -0.004703  -0.000027   0.000349   0.000570
    28  O    0.032355   0.005506   0.082153  -0.062656   0.023038  -0.008069
               7          8          9         10         11         12
     1  C   -0.145035   0.453789  -1.985289  -1.099090  -0.635465  -0.084293
     2  C    0.192199   0.093408   0.725468   0.651063   0.276232  -0.100012
     3  C   -0.448811  -1.085839  -3.016606   0.142997  -0.118599   0.442906
     4  O   -0.034804   0.000495   0.066103   0.003275  -0.035412  -0.017502
     5  H    0.145133  -0.183104  -0.169944  -0.120459  -0.004575   0.079506
     6  O   -0.236271  -0.201536   0.246870   0.022951  -0.010683  -0.063375
     7  H    2.249500  -0.298927  -0.093753   0.006619   0.031389   0.060231
     8  N   -0.298927   8.292251   0.336462  -0.032955   0.003940  -0.028263
     9  C   -0.093753   0.336462  10.395884   0.030885   0.318529  -0.595892
    10  H    0.006619  -0.032955   0.030885   1.936206  -0.090319  -0.100445
    11  O    0.031389   0.003940   0.318529  -0.090319   8.781790  -0.016652
    12  C    0.060231  -0.028263  -0.595892  -0.100445  -0.016652   5.243950
    13  H    0.016226  -0.030285  -1.003765   0.031601  -0.058809  -0.019794
    14  O    0.008788  -0.001772  -0.188158   0.029057   0.006449   0.193457
    15  H    0.001464   0.006879  -0.236168  -0.030662   0.008523   0.264059
    16  H    0.003146  -0.004735   0.082714   0.025280  -0.000985  -0.017159
    17  H    0.006230  -0.005248  -0.089863  -0.022808   0.277355   0.006742
    18  H    0.019141   0.001752   0.007844   0.001066   0.002208   0.001092
    19  H   -0.001008   0.003723   0.099958  -0.009033  -0.000245  -0.104311
    20  C   -0.071593   0.339813   0.552206  -0.005688   0.007343  -0.233545
    21  C   -0.038940  -0.500045   0.060486  -0.000862  -0.000855   0.003032
    22  C    0.004888  -0.028477   0.029601  -0.000855   0.000495  -0.010141
    23  N   -0.012112   0.046615   0.006803   0.001069   0.000382  -0.003891
    24  C    0.146548  -0.343893  -0.186272   0.000203   0.010668   0.048777
    25  H    0.009294   0.162308  -0.277806   0.001058  -0.003085   0.082129
    26  H    0.000842   0.077368   0.001784  -0.000138  -0.000006   0.000044
    27  O   -0.000254  -0.021326  -0.000070  -0.000025   0.000002   0.000166
    28  O    0.037053  -0.160661   0.014383   0.001316  -0.001007  -0.001175
              13         14         15         16         17         18
     1  C    0.284248   0.037592   0.013826   0.074908   0.155976   0.004205
     2  C    0.106653   0.024909  -0.002550   0.003711  -0.213340   0.041170
     3  C    0.357078  -0.056141   0.075080  -0.114205   0.043768  -0.090235
     4  O   -0.006062   0.001205  -0.001520  -0.000860   0.065400   0.304897
     5  H   -0.001239  -0.023476   0.016532  -0.002890   0.028223  -0.027323
     6  O   -0.230751  -0.044324   0.064091  -0.008466   0.006590  -0.000541
     7  H    0.016226   0.008788   0.001464   0.003146   0.006230   0.019141
     8  N   -0.030285  -0.001772   0.006879  -0.004735  -0.005248   0.001752
     9  C   -1.003765  -0.188158  -0.236168   0.082714  -0.089863   0.007844
    10  H    0.031601   0.029057  -0.030662   0.025280  -0.022808   0.001066
    11  O   -0.058809   0.006449   0.008523  -0.000985   0.277355   0.002208
    12  C   -0.019794   0.193457   0.264059  -0.017159   0.006742   0.001092
    13  H    2.111436   0.055584  -0.086017  -0.028920  -0.010838   0.000796
    14  O    0.055584   8.344406  -0.215531   0.004958  -0.001304   0.000449
    15  H   -0.086017  -0.215531   1.703505  -0.268856   0.002171  -0.000551
    16  H   -0.028920   0.004958  -0.268856   1.464578   0.000599   0.000099
    17  H   -0.010838  -0.001304   0.002171   0.000599   0.587817  -0.008762
    18  H    0.000796   0.000449  -0.000551   0.000099  -0.008762   0.552405
    19  H    0.002610   0.358435  -0.000937  -0.045310  -0.000005   0.000182
    20  C   -0.036366   0.019199  -0.031703   0.072562   0.003467  -0.012036
    21  C    0.001205  -0.031904   0.004410  -0.013490  -0.001611   0.011392
    22  C    0.000322   0.006732  -0.000408   0.002351   0.000383  -0.006646
    23  N    0.000071  -0.002316  -0.000181  -0.000647   0.000377   0.006637
    24  C    0.002874   0.005537   0.005870  -0.003241  -0.000553  -0.020039
    25  H   -0.001031   0.017931   0.003461   0.012429   0.000710  -0.000008
    26  H   -0.000053   0.003204   0.000370  -0.000640  -0.000050  -0.000404
    27  O   -0.000012   0.000085  -0.000009  -0.000021  -0.000006   0.000302
    28  O    0.000566  -0.000438  -0.000039  -0.000337   0.000325   0.054480
              19         20         21         22         23         24
     1  C   -0.003484   0.040573  -0.001184  -0.017746   0.021503  -0.182848
     2  C   -0.015851   0.058858   0.023348  -0.004322   0.066790  -0.047673
     3  C   -0.016473  -1.439550  -0.244898  -0.065137  -0.070688   0.203675
     4  O    0.000147  -0.002865   0.005842  -0.000881  -0.008551   0.015674
     5  H   -0.000752  -0.002920  -0.025769   0.000338  -0.010869   0.073858
     6  O   -0.000885   0.290167  -0.056604   0.010434   0.004360  -0.051958
     7  H   -0.001008  -0.071593  -0.038940   0.004888  -0.012112   0.146548
     8  N    0.003723   0.339813  -0.500045  -0.028477   0.046615  -0.343893
     9  C    0.099958   0.552206   0.060486   0.029601   0.006803  -0.186272
    10  H   -0.009033  -0.005688  -0.000862  -0.000855   0.001069   0.000203
    11  O   -0.000245   0.007343  -0.000855   0.000495   0.000382   0.010668
    12  C   -0.104311  -0.233545   0.003032  -0.010141  -0.003891   0.048777
    13  H    0.002610  -0.036366   0.001205   0.000322   0.000071   0.002874
    14  O    0.358435   0.019199  -0.031904   0.006732  -0.002316   0.005537
    15  H   -0.000937  -0.031703   0.004410  -0.000408  -0.000181   0.005870
    16  H   -0.045310   0.072562  -0.013490   0.002351  -0.000647  -0.003241
    17  H   -0.000005   0.003467  -0.001611   0.000383   0.000377  -0.000553
    18  H    0.000182  -0.012036   0.011392  -0.006646   0.006637  -0.020039
    19  H    0.596530  -0.006726   0.010339   0.000432  -0.000061  -0.000130
    20  C   -0.006726   9.555803  -1.989580   0.017749   0.034958  -1.260322
    21  C    0.010339  -1.989580   9.984419  -2.451133   0.431008   0.758831
    22  C    0.000432   0.017749  -2.451133   9.101854  -0.391554  -0.612764
    23  N   -0.000061   0.034958   0.431008  -0.391554   8.174714  -0.291465
    24  C   -0.000130  -1.260322   0.758831  -0.612764  -0.291465   7.105026
    25  H   -0.004879  -1.156983   0.098042  -0.253889   0.062257   0.100694
    26  H    0.000189   0.524296  -0.950984   0.155805  -0.072745  -0.114379
    27  O   -0.000133   0.089731  -0.081663   0.061967  -0.120008   0.044408
    28  O   -0.000086  -0.043064   0.010234   0.018366  -0.226234   0.186698
              25         26         27         28
     1  C    0.178286  -0.001767  -0.000509   0.032355
     2  C   -0.167259  -0.002528   0.001158   0.005506
     3  C    0.155541   0.065170  -0.004703   0.082153
     4  O    0.002271   0.000314  -0.000027  -0.062656
     5  H   -0.016431   0.000898   0.000349   0.023038
     6  O   -0.229230   0.000893   0.000570  -0.008069
     7  H    0.009294   0.000842  -0.000254   0.037053
     8  N    0.162308   0.077368  -0.021326  -0.160661
     9  C   -0.277806   0.001784  -0.000070   0.014383
    10  H    0.001058  -0.000138  -0.000025   0.001316
    11  O   -0.003085  -0.000006   0.000002  -0.001007
    12  C    0.082129   0.000044   0.000166  -0.001175
    13  H   -0.001031  -0.000053  -0.000012   0.000566
    14  O    0.017931   0.003204   0.000085  -0.000438
    15  H    0.003461   0.000370  -0.000009  -0.000039
    16  H    0.012429  -0.000640  -0.000021  -0.000337
    17  H    0.000710  -0.000050  -0.000006   0.000325
    18  H   -0.000008  -0.000404   0.000302   0.054480
    19  H   -0.004879   0.000189  -0.000133  -0.000086
    20  C   -1.156983   0.524296   0.089731  -0.043064
    21  C    0.098042  -0.950984  -0.081663   0.010234
    22  C   -0.253889   0.155805   0.061967   0.018366
    23  N    0.062257  -0.072745  -0.120008  -0.226234
    24  C    0.100694  -0.114379   0.044408   0.186698
    25  H    3.244258  -0.223881   0.004758   0.004720
    26  H   -0.223881   2.184906  -0.021203   0.002409
    27  O    0.004758  -0.021203   8.827128  -0.006748
    28  O    0.004720   0.002409  -0.006748   8.823871
 Mulliken charges:
               1
     1  C    1.182227
     2  C    0.913878
     3  C    0.811883
     4  O   -0.695425
     5  H   -0.505130
     6  O   -0.766498
     7  H   -0.557184
     8  N    0.108262
     9  C    0.867602
    10  H   -0.371307
    11  O   -0.748608
    12  C    0.970357
    13  H   -0.457329
    14  O   -0.552613
    15  H   -0.295108
    16  H   -0.236574
    17  H    0.168254
    18  H    0.156429
    19  H    0.137763
    20  C    0.686218
    21  C    0.986936
    22  C    0.432238
    23  N   -0.646221
    24  C    0.406197
    25  H   -0.805665
    26  H   -0.629713
    27  O   -0.773909
    28  O   -0.786959
 Sum of Mulliken charges =  -1.00000
 Mulliken charges with hydrogens summed into heavy atoms:
               1
     1  C    0.810920
     2  C    0.408748
     3  C    0.254699
     4  O   -0.538996
     6  O   -0.766498
     8  N    0.108262
     9  C    0.410273
    11  O   -0.580354
    12  C    0.438675
    14  O   -0.414850
    20  C   -0.119447
    21  C    0.357223
    22  C    0.432238
    23  N   -0.646221
    24  C    0.406197
    27  O   -0.773909
    28  O   -0.786959
 Electronic spatial extent (au):  <R**2>=           3981.8526
 Charge=             -1.0000 electrons
 Dipole moment (field-independent basis, Debye):
    X=            -13.7948    Y=              6.8079    Z=             -0.0563  Tot=             15.3833
 Quadrupole moment (field-independent basis, Debye-Ang):
   XX=           -176.9173   YY=           -107.2954   ZZ=           -103.0982
   XY=             -0.6738   XZ=             -8.2931   YZ=              5.7444
 Traceless Quadrupole moment (field-independent basis, Debye-Ang):
   XX=            -47.8136   YY=             21.8082   ZZ=             26.0055
   XY=             -0.6738   XZ=             -8.2931   YZ=              5.7444
 Octapole moment (field-independent basis, Debye-Ang**2):
  XXX=           -292.0523  YYY=             50.4869  ZZZ=             11.1079  XYY=            -44.3471
  XXY=             22.7149  XXZ=            -12.8337  XZZ=             -8.7162  YZZ=              4.1663
  YYZ=              4.6915  XYZ=             -1.9469
 Hexadecapole moment (field-independent basis, Debye-Ang**3):
 XXXX=          -5225.2042 YYYY=          -1252.2284 ZZZZ=           -352.8872 XXXY=            -89.7723
 XXXZ=           -147.5446 YYYX=             35.2419 YYYZ=             62.5300 ZZZX=              0.5654
 ZZZY=             34.6615 XXYY=           -860.6148 XXZZ=           -678.3131 YYZZ=           -253.0175
 XXYZ=              5.9157 YYXZ=             -4.9291 ZZXY=            -11.8218
 N-N= 1.324854265246D+03 E-N=-4.799346712468D+03  KE= 9.048924538231D+02
 Calling FoFJK, ICntrl=      2127 FMM=F ISym2X=0 I1Cent= 0 IOpClX= 0 NMat=1 NMatS=1 NMatT=0.
 ***** Axes restored to original set *****
 -------------------------------------------------------------------
 Center     Atomic                   Forces (Hartrees/Bohr)
 Number     Number              X              Y              Z
 -------------------------------------------------------------------
      1        6           0.002672065    0.000418157    0.001490424
      2        6           0.000502366    0.000253996   -0.002387522
      3        6           0.019260870    0.000986062    0.004795952
      4        8          -0.009880553   -0.000008018    0.002277546
      5        1           0.000575160   -0.000444433   -0.000841013
      6        8          -0.014343585    0.007466894   -0.000396014
      7        1          -0.001480950   -0.000810895    0.000283727
      8        7          -0.030654975    0.006951034   -0.007891475
      9        6           0.006413372   -0.003247591   -0.004472385
     10        1          -0.001171598    0.000205103    0.000500636
     11        8          -0.005319674   -0.000831128   -0.001267009
     12        6           0.002367751   -0.000654266    0.001672665
     13        1          -0.001425474    0.000698615   -0.000086958
     14        8          -0.004066043    0.001299002    0.000741826
     15        1          -0.001244606    0.000418823    0.000650832
     16        1           0.000497385    0.000020044   -0.000423223
     17        1           0.003280035    0.000385559    0.000513765
     18        1           0.011678630    0.002131576   -0.002891044
     19        1           0.001091972   -0.000393639   -0.001064701
     20        6          -0.003364554   -0.000633995   -0.001099014
     21        6           0.001505793    0.009969525   -0.001237625
     22        6          -0.049183237   -0.049738571   -0.001011491
     23        7          -0.002050669   -0.008167659    0.001977341
     24        6           0.079786188    0.038541405    0.008223616
     25        1           0.000637974    0.000767322   -0.000098645
     26        1          -0.002232259    0.005360737   -0.001536825
     27        8           0.026968670    0.016042199    0.002504020
     28        8          -0.030820053   -0.026985856    0.001072592
 -------------------------------------------------------------------
 Cartesian Forces:  Max     0.079786188 RMS     0.014573344

 GradGradGradGradGradGradGradGradGradGradGradGradGradGradGradGradGradGrad
 Berny optimization.
 FormGI is forming the generalized inverse of G from B-inverse, IUseBI=4.
 Internal  Forces:  Max     0.036220122 RMS     0.007461516
 Search for a local minimum.
 Step number   1 out of a maximum of  166
 All quantities printed in internal units (Hartrees-Bohrs-Radians)
 Mixed Optimization -- RFO/linear search
 Second derivative matrix not updated -- first step.
 ITU=  0
     Eigenvalues ---    0.00493   0.00596   0.00613   0.00888   0.01449
     Eigenvalues ---    0.01454   0.01505   0.01582   0.01668   0.01756
     Eigenvalues ---    0.02006   0.02028   0.02095   0.02276   0.02473
     Eigenvalues ---    0.03138   0.03867   0.04367   0.05102   0.05164
     Eigenvalues ---    0.05404   0.05413   0.05666   0.05989   0.06213
     Eigenvalues ---    0.06244   0.06921   0.07786   0.08186   0.09914
     Eigenvalues ---    0.11048   0.13005   0.13686   0.16000   0.16000
     Eigenvalues ---    0.16000   0.16000   0.16000   0.16244   0.16858
     Eigenvalues ---    0.18412   0.20120   0.22030   0.22446   0.24482
     Eigenvalues ---    0.24994   0.24998   0.25000   0.25000   0.26113
     Eigenvalues ---    0.28414   0.28920   0.31067   0.33294   0.33383
     Eigenvalues ---    0.33490   0.33703   0.33749   0.33880   0.34389
     Eigenvalues ---    0.35329   0.35347   0.37507   0.37803   0.42708
     Eigenvalues ---    0.42945   0.44129   0.44278   0.45319   0.47642
     Eigenvalues ---    0.48910   0.50897   0.52794   0.53629   0.53724
     Eigenvalues ---    0.55363   0.91070   0.96216
 RFO step:  Lambda=-2.56580972D-02 EMin= 4.92689435D-03
 Linear search not attempted -- first point.
 Iteration  1 RMS(Cart)=  0.12739149 RMS(Int)=  0.00455679
 Iteration  2 RMS(Cart)=  0.00766991 RMS(Int)=  0.00025036
 Iteration  3 RMS(Cart)=  0.00003487 RMS(Int)=  0.00024943
 Iteration  4 RMS(Cart)=  0.00000002 RMS(Int)=  0.00024943
 Variable       Old X    -DE/DX   Delta X   Delta X   Delta X     New X
                                 (Linear)    (Quad)   (Total)
    R1        2.89122   0.00025   0.00000  -0.00134  -0.00138   2.88984
    R2        2.87964   0.00011   0.00000   0.00322   0.00340   2.88304
    R3        2.08199   0.00100   0.00000   0.00278   0.00278   2.08477
    R4        2.66123   0.00186   0.00000   0.00398   0.00398   2.66521
    R5        2.91663  -0.00532   0.00000  -0.01828  -0.01840   2.89823
    R6        2.64907  -0.00235   0.00000  -0.00490  -0.00490   2.64416
    R7        2.07755  -0.00061   0.00000  -0.00167  -0.00167   2.07588
    R8        2.63565   0.01082   0.00000   0.02163   0.02154   2.65719
    R9        2.07835   0.00040   0.00000   0.00111   0.00111   2.07945
   R10        2.79978  -0.01056   0.00000  -0.02857  -0.02857   2.77121
   R11        1.83847   0.01021   0.00000   0.01844   0.01844   1.85691
   R12        2.72102  -0.00357   0.00000  -0.00787  -0.00779   2.71323
   R13        2.58749  -0.01015   0.00000  -0.01741  -0.01740   2.57009
   R14        2.60431   0.02311   0.00000   0.04469   0.04478   2.64909
   R15        2.85885   0.00122   0.00000   0.00364   0.00364   2.86250
   R16        2.07533   0.00122   0.00000   0.00336   0.00336   2.07869
   R17        1.82984   0.00065   0.00000   0.00116   0.00116   1.83100
   R18        2.68032  -0.00249   0.00000  -0.00550  -0.00550   2.67482
   R19        2.08538   0.00146   0.00000   0.00408   0.00408   2.08946
   R20        2.08384   0.00041   0.00000   0.00115   0.00115   2.08498
   R21        1.81511  -0.00072   0.00000  -0.00124  -0.00124   1.81387
   R22        2.55585  -0.00493   0.00000  -0.00739  -0.00747   2.54838
   R23        2.05115   0.00012   0.00000   0.00033   0.00033   2.05148
   R24        2.73517   0.01674   0.00000   0.04049   0.04040   2.77556
   R25        2.05143   0.00436   0.00000   0.01150   0.01150   2.06293
   R26        2.65678  -0.01711   0.00000  -0.03799  -0.03799   2.61879
   R27        2.30194   0.02832   0.00000   0.02867   0.02867   2.33061
   R28        2.58453  -0.02485   0.00000  -0.04738  -0.04729   2.53724
   R29        2.32444   0.03622   0.00000   0.03868   0.03868   2.36312
    A1        1.79715   0.00036   0.00000  -0.00525  -0.00529   1.79186
    A2        1.94689   0.00057   0.00000   0.00498   0.00500   1.95189
    A3        1.92880  -0.00120   0.00000  -0.00553  -0.00550   1.92330
    A4        1.95197   0.00055   0.00000   0.00409   0.00409   1.95606
    A5        1.89426   0.00001   0.00000   0.00562   0.00564   1.89989
    A6        1.93957  -0.00028   0.00000  -0.00392  -0.00394   1.93563
    A7        1.78480   0.00241   0.00000   0.00946   0.00943   1.79423
    A8        1.90805   0.00132   0.00000   0.02215   0.02243   1.93048
    A9        1.91594   0.00113   0.00000   0.01262   0.01255   1.92850
   A10        1.98721  -0.00396   0.00000  -0.02912  -0.02929   1.95793
   A11        1.90211  -0.00060   0.00000  -0.00498  -0.00523   1.89689
   A12        1.95758   0.00005   0.00000  -0.00715  -0.00775   1.94983
   A13        1.88353  -0.00266   0.00000  -0.00707  -0.00690   1.87663
   A14        1.92017   0.00048   0.00000  -0.02003  -0.02071   1.89946
   A15        1.96636  -0.00721   0.00000  -0.03372  -0.03424   1.93212
   A16        1.92630  -0.00030   0.00000  -0.00007  -0.00039   1.92591
   A17        1.90640   0.01069   0.00000   0.07749   0.07780   1.98420
   A18        1.86140  -0.00080   0.00000  -0.01545  -0.01681   1.84459
   A19        1.84892  -0.01225   0.00000  -0.06598  -0.06598   1.78293
   A20        1.93697   0.00014   0.00000  -0.00098  -0.00122   1.93575
   A21        2.14186   0.00998   0.00000   0.03409   0.03401   2.17587
   A22        2.02282  -0.00787   0.00000  -0.03065  -0.03073   1.99209
   A23        2.11835  -0.00211   0.00000  -0.00324  -0.00315   2.11520
   A24        1.84448   0.00017   0.00000   0.00372   0.00374   1.84822
   A25        2.01527  -0.00094   0.00000  -0.00454  -0.00453   2.01074
   A26        1.90380   0.00072   0.00000   0.00324   0.00317   1.90697
   A27        1.93068   0.00095   0.00000   0.00696   0.00695   1.93763
   A28        1.86789  -0.00015   0.00000  -0.00055  -0.00055   1.86734
   A29        1.89607  -0.00067   0.00000  -0.00822  -0.00822   1.88786
   A30        1.85088  -0.00493   0.00000  -0.02657  -0.02657   1.82431
   A31        1.90106   0.00147   0.00000   0.00601   0.00601   1.90708
   A32        1.88954   0.00021   0.00000   0.00164   0.00164   1.89118
   A33        1.89446  -0.00108   0.00000  -0.00518  -0.00518   1.88927
   A34        1.94690  -0.00109   0.00000  -0.00649  -0.00649   1.94041
   A35        1.93990   0.00016   0.00000   0.00284   0.00285   1.94275
   A36        1.89064   0.00031   0.00000   0.00110   0.00110   1.89174
   A37        1.90715   0.00068   0.00000   0.00367   0.00367   1.91082
   A38        2.14157  -0.01205   0.00000  -0.04182  -0.04189   2.09968
   A39        1.99245   0.00704   0.00000   0.02638   0.02641   2.01886
   A40        2.14916   0.00501   0.00000   0.01543   0.01547   2.16463
   A41        2.09557  -0.00061   0.00000   0.00128   0.00110   2.09668
   A42        2.11906  -0.00394   0.00000  -0.02349  -0.02340   2.09565
   A43        2.06854   0.00455   0.00000   0.02220   0.02229   2.09084
   A44        1.96974   0.01854   0.00000   0.06486   0.06476   2.03450
   A45        2.21988  -0.02508   0.00000  -0.08980  -0.08975   2.13013
   A46        2.09356   0.00654   0.00000   0.02493   0.02498   2.11854
   A47        2.23044  -0.02455   0.00000  -0.09530  -0.09518   2.13526
   A48        2.01038   0.02077   0.00000   0.07425   0.07435   2.08473
   A49        2.13607  -0.03259   0.00000  -0.11769  -0.11786   2.01822
   A50        2.13673   0.01182   0.00000   0.04341   0.04319   2.17992
    D1       -0.53121  -0.00016   0.00000  -0.00457  -0.00457  -0.53578
    D2       -2.64284   0.00251   0.00000   0.01374   0.01373  -2.62911
    D3        1.48616   0.00083   0.00000  -0.00028  -0.00040   1.48576
    D4       -2.62720  -0.00130   0.00000  -0.00879  -0.00875  -2.63595
    D5        1.54436   0.00137   0.00000   0.00952   0.00955   1.55391
    D6       -0.60982  -0.00031   0.00000  -0.00450  -0.00458  -0.61440
    D7        1.48896  -0.00048   0.00000  -0.00326  -0.00322   1.48574
    D8       -0.62266   0.00218   0.00000   0.01505   0.01508  -0.60758
    D9       -2.77684   0.00051   0.00000   0.00102   0.00095  -2.77590
   D10        0.52162  -0.00089   0.00000  -0.00671  -0.00670   0.51492
   D11       -1.61824  -0.00163   0.00000  -0.01547  -0.01547  -1.63372
   D12        2.52458  -0.00064   0.00000  -0.00393  -0.00392   2.52066
   D13        2.61410   0.00028   0.00000  -0.00189  -0.00190   2.61220
   D14        0.47424  -0.00046   0.00000  -0.01065  -0.01067   0.46356
   D15       -1.66613   0.00053   0.00000   0.00089   0.00088  -1.66525
   D16       -1.52317   0.00030   0.00000  -0.00024  -0.00022  -1.52340
   D17        2.62015  -0.00045   0.00000  -0.00900  -0.00900   2.61115
   D18        0.47979   0.00054   0.00000   0.00254   0.00256   0.48234
   D19        0.55106  -0.00114   0.00000  -0.02447  -0.02444   0.52663
   D20        2.50964  -0.00132   0.00000  -0.03050  -0.03051   2.47913
   D21       -1.62016  -0.00081   0.00000  -0.02408  -0.02410  -1.64426
   D22        0.37449  -0.00034   0.00000   0.01219   0.01211   0.38660
   D23       -1.72816   0.00137   0.00000   0.02841   0.02852  -1.69964
   D24        2.48060   0.00672   0.00000   0.08326   0.08291   2.56351
   D25        2.43049   0.00082   0.00000   0.03049   0.03035   2.46083
   D26        0.32784   0.00253   0.00000   0.04672   0.04676   0.37460
   D27       -1.74659   0.00788   0.00000   0.10156   0.10115  -1.64544
   D28       -1.65292  -0.00256   0.00000  -0.00472  -0.00462  -1.65754
   D29        2.52762  -0.00084   0.00000   0.01151   0.01179   2.53941
   D30        0.45320   0.00451   0.00000   0.06635   0.06618   0.51938
   D31        2.86252  -0.00076   0.00000  -0.01720  -0.01735   2.84517
   D32        0.87893  -0.00230   0.00000  -0.02619  -0.02587   0.85306
   D33       -1.29133   0.00163   0.00000   0.00954   0.00936  -1.28196
   D34       -0.05096  -0.00011   0.00000  -0.01512  -0.01496  -0.06592
   D35        2.04784  -0.00135   0.00000  -0.04396  -0.04447   2.00337
   D36       -2.19420   0.00384   0.00000  -0.01673  -0.01692  -2.21112
   D37       -1.99781  -0.00244   0.00000  -0.06650  -0.06605  -2.06386
   D38        1.16222  -0.00291   0.00000  -0.07871  -0.07815   1.08407
   D39        0.09515  -0.00313   0.00000  -0.04420  -0.04456   0.05059
   D40       -3.02800  -0.00360   0.00000  -0.05641  -0.05666  -3.08466
   D41        2.17697   0.00181   0.00000  -0.01132  -0.01158   2.16540
   D42       -0.94618   0.00134   0.00000  -0.02353  -0.02367  -0.96985
   D43       -0.30019   0.00064   0.00000   0.01283   0.01272  -0.28746
   D44        1.89278   0.00018   0.00000   0.01398   0.01394   1.90673
   D45       -2.32772  -0.00019   0.00000   0.00760   0.00755  -2.32017
   D46       -3.10968  -0.00034   0.00000  -0.00553  -0.00535  -3.11503
   D47        0.02754  -0.00040   0.00000  -0.00822  -0.00834   0.01920
   D48        0.01249   0.00011   0.00000   0.00708   0.00731   0.01979
   D49       -3.13348   0.00004   0.00000   0.00440   0.00432  -3.12916
   D50        3.09808   0.00019   0.00000   0.00781   0.00749   3.10558
   D51       -0.04474  -0.00086   0.00000  -0.01767  -0.01712  -0.06186
   D52       -0.02534  -0.00041   0.00000  -0.00465  -0.00458  -0.02991
   D53        3.11502  -0.00146   0.00000  -0.03014  -0.02919   3.08583
   D54        0.96011  -0.00061   0.00000  -0.01545  -0.01544   0.94467
   D55       -1.15989  -0.00030   0.00000  -0.01215  -0.01214  -1.17203
   D56        3.07459  -0.00019   0.00000  -0.01152  -0.01152   3.06307
   D57       -1.13320  -0.00090   0.00000  -0.02245  -0.02246  -1.15566
   D58        3.02999  -0.00058   0.00000  -0.01915  -0.01917   3.01082
   D59        0.98127  -0.00047   0.00000  -0.01852  -0.01855   0.96273
   D60        3.10458  -0.00086   0.00000  -0.02086  -0.02084   3.08374
   D61        0.98458  -0.00054   0.00000  -0.01756  -0.01755   0.96703
   D62       -1.06413  -0.00043   0.00000  -0.01693  -0.01692  -1.08105
   D63        3.12624  -0.00105   0.00000  -0.02014  -0.02012   3.10611
   D64       -1.07228  -0.00051   0.00000  -0.01822  -0.01823  -1.09051
   D65        1.03978  -0.00076   0.00000  -0.01932  -0.01933   1.02046
   D66        0.00150  -0.00016   0.00000  -0.00228  -0.00267  -0.00118
   D67        3.13818  -0.00013   0.00000  -0.00364  -0.00405   3.13413
   D68       -3.13533  -0.00009   0.00000   0.00064   0.00056  -3.13477
   D69        0.00135  -0.00007   0.00000  -0.00072  -0.00082   0.00053
   D70       -0.00088  -0.00015   0.00000  -0.00598  -0.00643  -0.00731
   D71       -3.14071  -0.00004   0.00000  -0.00237  -0.00252   3.13996
   D72       -3.13770  -0.00015   0.00000  -0.00453  -0.00493   3.14055
   D73        0.00566  -0.00004   0.00000  -0.00092  -0.00102   0.00464
   D74       -0.01488   0.00054   0.00000   0.01156   0.01186  -0.00302
   D75        3.12509   0.00040   0.00000   0.00810   0.00784   3.13293
   D76        0.02785  -0.00034   0.00000  -0.00659  -0.00678   0.02107
   D77       -3.11251   0.00074   0.00000   0.01903   0.02040  -3.09211
         Item               Value     Threshold  Converged?
 Maximum Force            0.036220     0.000450     NO 
 RMS     Force            0.007462     0.000300     NO 
 Maximum Displacement     0.480821     0.001800     NO 
 RMS     Displacement     0.130482     0.001200     NO 
 Predicted change in Energy=-1.450026D-02
 GradGradGradGradGradGradGradGradGradGradGradGradGradGradGradGradGradGrad

                          Input orientation:                          
 ---------------------------------------------------------------------
 Center     Atomic      Atomic             Coordinates (Angstroms)
 Number     Number       Type             X           Y           Z
 ---------------------------------------------------------------------
      1          6           0       -2.728382   -0.270205    0.345427
      2          6           0       -1.313165   -0.819561    0.529650
      3          6           0       -0.596372   -0.344905   -0.740415
      4          8           0       -1.336055   -2.214767    0.633204
      5          1           0       -0.830665   -0.355196    1.400446
      6          8           0       -1.310319    0.757493   -1.242598
      7          1           0       -0.593191   -1.165062   -1.474044
      8          7           0        0.814241   -0.056128   -0.462398
      9          6           0       -2.490888    1.001763   -0.462825
     10          1           0       -3.216747   -0.061810    1.312457
     11          8           0       -3.500676   -1.163074   -0.426247
     12          6           0       -2.349215    2.268823    0.355104
     13          1           0       -3.320709    1.141817   -1.171181
     14          8           0       -1.336764    2.086409    1.327305
     15          1           0       -3.323675    2.487866    0.829455
     16          1           0       -2.102004    3.096950   -0.330769
     17          1           0       -3.134556   -2.037349   -0.225229
     18          1           0       -0.397409   -2.450305    0.462802
     19          1           0       -1.222394    2.898174    1.826591
     20          6           0        1.396880    1.164394   -0.605744
     21          6           0        2.711941    1.324441   -0.353616
     22          6           0        3.524237    0.179963    0.079531
     23          7           0        2.865487   -1.031690    0.215182
     24          6           0        1.552282   -1.166647   -0.029736
     25          1           0        0.739715    1.963573   -0.934325
     26          1           0        3.177219    2.304286   -0.476622
     27          8           0        4.729633    0.285878    0.317945
     28          8           0        0.900372   -2.222475    0.125224
 ---------------------------------------------------------------------
                    Distance matrix (angstroms):
                    1          2          3          4          5
     1  C    0.000000
     2  C    1.529238   0.000000
     3  C    2.393763   1.533675   0.000000
     4  O    2.408882   1.399231   2.435230   0.000000
     5  H    2.172929   1.098511   2.153668   2.074146   0.000000
     6  O    2.364083   2.372334   1.406125   3.514772   2.907546
     7  H    2.944535   2.156971   1.100399   2.468648   2.995825
     8  N    3.639861   2.468369   1.466463   3.237875   2.503067
     9  C    1.525640   2.385217   2.340889   3.589009   2.840679
    10  H    1.103211   2.193307   3.340777   2.938301   2.405661
    11  O    1.410367   2.411834   3.033659   2.629464   3.334431
    12  C    2.567202   3.262205   3.332296   4.605042   3.206901
    13  H    2.155169   3.281777   3.133355   4.296663   3.880030
    14  O    2.907631   3.013548   3.276421   4.356822   2.494579
    15  H    2.862798   3.882152   4.234060   5.109198   3.824151
    16  H    3.491035   4.086765   3.779035   5.452547   4.065799
    17  H    1.900901   2.317394   3.093891   2.000748   3.283347
    18  H    3.193751   1.871471   2.433110   0.982634   2.335887
    19  H    3.807949   3.938509   4.183179   5.251596   3.304462
    20  C    4.469965   3.545355   2.503832   4.519143   3.360939
    21  C    5.712151   4.645254   3.725757   5.466816   4.295110
    22  C    6.274440   4.960052   4.234055   5.446441   4.582181
    23  N    5.646963   4.195834   3.656406   4.384902   3.940055
    24  C    4.389583   2.940097   2.407704   3.143332   2.895222
    25  H    4.319170   3.755446   2.674285   4.921838   3.646085
    26  H    6.494605   5.561885   4.618202   6.482530   5.163271
    27  O    7.478768   6.146725   5.466657   6.568499   5.700851
    28  O    4.126464   2.651693   2.552420   2.293406   2.847703
                    6          7          8          9         10
     6  O    0.000000
     7  H    2.064959   0.000000
     8  N    2.405087   2.057675   0.000000
     9  C    1.435777   3.052695   3.470304   0.000000
    10  H    3.291508   3.983064   4.404430   2.193099   0.000000
    11  O    3.025338   3.090526   4.454789   2.389044   2.077616
    12  C    2.432298   4.268603   4.010132   1.514767   2.664768
    13  H    2.048041   3.585076   4.362941   1.099994   2.761880
    14  O    2.893289   4.355746   3.524248   2.390193   2.854716
    15  H    3.367669   5.109358   5.026245   2.138229   2.597224
    16  H    2.632728   4.663512   4.296942   2.135060   3.731033
    17  H    3.489129   2.962931   4.424305   3.115600   2.504793
    18  H    3.745899   2.332713   2.838340   4.142005   3.791501
    19  H    3.743016   5.272568   4.256202   3.232162   3.606006
    20  C    2.810708   3.184446   1.360034   3.893792   5.144767
    21  C    4.158160   4.286827   2.349271   5.213970   6.312435
    22  C    5.045245   4.601728   2.773717   6.095181   6.857071
    23  N    4.771127   3.851458   2.370326   5.769348   6.256056
    24  C    3.656205   2.586326   1.401840   4.608339   5.076000
    25  H    2.398396   3.443296   2.075442   3.403555   4.980341
    26  H    4.808044   5.219887   3.339974   5.815857   7.048547
    27  O    6.256096   5.800768   4.007019   7.297809   8.015915
    28  O    3.954530   2.430332   2.246281   4.716160   4.798819
                   11         12         13         14         15
    11  O    0.000000
    12  C    3.703281   0.000000
    13  H    2.428958   2.131547   0.000000
    14  O    4.279790   1.415452   3.327270   0.000000
    15  H    3.864904   1.105695   2.411307   2.087304   0.000000
    16  H    4.484775   1.103326   2.452363   2.087102   1.791531
    17  H    0.968921   4.415503   3.322134   4.758970   4.650344
    18  H    3.475289   5.107966   4.911101   4.712911   5.751782
    19  H    5.172967   1.957314   4.058861   0.959859   2.361781
    20  C    5.425439   4.021967   4.751408   3.472694   5.108328
    21  C    6.692505   5.197061   6.090536   4.449506   6.259543
    22  C    7.170005   6.239929   7.024438   5.368502   7.265171
    23  N    6.399744   6.173012   6.701877   5.349605   7.146350
    24  C    5.068493   5.212699   5.511619   4.557469   6.153749
    25  H    5.292918   3.361144   4.149509   3.072755   4.460599
    26  H    7.524587   5.588783   6.637531   4.865971   6.633337
    27  O    8.389951   7.351431   8.231533   6.407956   8.364578
    28  O    4.560228   5.548371   5.551275   5.001626   6.365990
                   16         17         18         19         20
    16  H    0.000000
    17  H    5.238161   0.000000
    18  H    5.857255   2.852348   0.000000
    19  H    2.338253   5.676770   5.580927   0.000000
    20  C    4.006566   5.561462   4.174603   3.972763   0.000000
    21  C    5.129949   6.745342   4.958156   4.765389   1.348543
    22  C    6.350729   7.024875   4.737564   5.742073   2.442203
    23  N    6.482260   6.099658   3.566550   5.895018   2.766498
[...]
 .00001507,0.00003465,0.00000702,0.00001738,-0.00001204,-0.00010552,0.0
 0008128,-0.00002917,-0.00022283,-0.00001880,-0.00019270,-0.03118222,0.
 00132357,-0.05756429,0.04759393,0.00717574,0.10189458,-0.00032752,0.00
 003033,-0.00034897,0.00046129,0.00000983,0.00087342,-0.00615198,0.0008
 0348,-0.00083312,0.00347521,-0.00051945,-0.00142551,-0.00013977,-0.000
 03416,0.00006856,0.00370550,-0.00220206,-0.00021774,0.00091726,0.00000
 952,0.00012761,0.01189440,-0.00045654,0.00089497,-0.00193472,-0.000016
 07,0.00039346,0.00040357,-0.00008007,-0.00009766,0.00126454,0.00013176
 ,0.00023298,0.00012547,0.00041526,-0.00002781,0.00036376,-0.00004080,0
 .00015115,0.00024157,-0.00068084,-0.00028145,0.00016856,-0.00009191,-0
 .00013838,-0.00009181,-0.00012170,0.00008509,-0.00089484,-0.00009281,-
 0.00018019,-0.00488423,-0.00019088,0.00184644,-0.00026577,0.00060090,0
 .00034699,-0.02769092,0.02640732,-0.00176011,-0.11568163,0.05414874,-0
 .00235990,0.89289305,-0.00003306,0.00019046,0.00076802,-0.00094656,0.0
 0437264,-0.00071409,0.00177974,-0.00128768,0.00085609,0.00617919,-0.00
 428917,-0.00185368,-0.00010761,-0.00033511,-0.00026639,-0.00045602,-0.
 00202455,-0.00012577,-0.00154411,-0.00040759,-0.00083290,0.00283367,-0
 .05654187,0.00103856,0.00105445,-0.00035398,-0.00012463,-0.00014073,0.
 00001692,-0.00004498,0.00019012,-0.00107396,0.00000181,0.00030118,0.00
 023149,0.00032851,-0.00012567,-0.00007242,-0.00002242,-0.00044776,-0.0
 0045921,-0.00017365,-0.00011465,-0.00001418,-0.00002746,0.00004463,-0.
 00012113,-0.00001292,-0.00076217,0.00040033,-0.00035021,-0.00944835,0.
 00120390,0.00308994,0.00072421,0.00036619,-0.00023245,0.04782299,0.047
 98225,0.00323981,0.03153625,-0.20191487,0.00052347,0.01441115,0.556818
 72,0.00004826,0.00002145,-0.00009991,0.00006236,-0.00038514,0.00035747
 ,-0.00016789,0.00008432,-0.00072584,-0.00108600,0.00055845,0.00011177,
 0.00002041,-0.00001006,-0.00005259,0.00021499,-0.00021856,-0.00006222,
 -0.00020860,-0.00020061,-0.00010318,0.00145771,-0.00003053,-0.00727651
 ,-0.00018715,0.00006288,0.00003456,0.00004400,-0.00000830,0.00000037,-
 0.00001981,0.00008400,-0.00005150,0.00004335,0.00002138,0.00009472,0.0
 0001174,-0.00000444,-0.00000918,-0.00007548,-0.00004628,-0.00010616,-0
 .00000660,-0.00000080,-0.00002438,-0.00000789,0.00001363,-0.00001379,0
 .00004303,-0.00002402,0.00007531,0.00134512,-0.00020824,0.00002167,0.0
 0014608,0.00000881,0.00002881,-0.00254841,0.00192834,0.00420959,-0.000
 96782,0.00148990,-0.08156774,0.03269590,0.00332387,0.21808400,0.000253
 95,-0.00000164,-0.00028213,0.00012997,-0.00460098,-0.00047790,0.006076
 46,0.00231111,-0.00012833,-0.01049942,0.00480064,0.00439774,0.00019387
 ,0.00056487,0.00029782,-0.00410061,0.00343593,0.00034126,0.00027198,0.
 00021988,0.00064807,-0.04591002,0.05301992,-0.00480587,0.00110067,0.00
 030776,-0.00041915,-0.00024903,0.00005047,0.00014168,-0.00126124,0.000
 81789,-0.00021515,-0.00040178,-0.00056306,-0.00028277,-0.00027334,0.00
 010574,-0.00009634,0.00016675,0.00092013,0.00048769,-0.00006245,0.0001
 1377,0.00016634,0.00005402,0.00019367,-0.00004506,0.00153684,-0.000281
 20,0.00054169,0.01526748,-0.00086184,-0.00683512,-0.00034000,-0.000746
 80,-0.00028971,-0.02661898,-0.03011899,-0.00219937,0.03242666,-0.00426
 807,0.00240086,-0.11908911,-0.06900048,-0.00400087,0.66921146,0.000056
 12,-0.00040825,-0.00045892,0.00020835,-0.00444641,0.00048221,-0.002300
 01,-0.00825602,-0.00124275,-0.00858511,0.00493608,0.00337535,0.0001445
 4,0.00049433,0.00022801,0.00349629,0.00155054,0.00003345,0.00058981,0.
 00040251,0.00083132,0.03515995,0.01963738,0.00333037,-0.00055218,-0.00
 047446,0.00049735,0.00005509,0.00005649,0.00002435,-0.00047769,0.00111
 386,-0.00007869,0.00009477,-0.00011177,-0.00018070,0.00025566,0.000047
 91,-0.00006154,0.00020441,0.00041097,0.00008637,0.00006571,-0.00007418
 ,-0.00002797,-0.00002087,0.00012739,0.00000640,0.00102098,-0.00040014,
 0.00043533,0.01181611,-0.00121637,-0.00591673,-0.00038682,-0.00027465,
 0.00011233,-0.01060913,-0.01040080,-0.00101243,-0.00554961,-0.04217995
 ,-0.00037482,-0.04549274,-0.26076519,-0.00456112,0.14930528,0.42813263
 ,-0.00007841,-0.00004362,0.00005714,-0.00087089,-0.00080216,-0.0001528
 6,0.00028744,0.00052795,0.00429465,-0.00109250,0.00058967,0.00043078,-
 0.00001498,0.00013446,-0.00006797,0.00015038,-0.00015910,0.00005602,0.
 00056386,-0.00018193,-0.00025533,-0.00491665,0.00363107,0.02034752,-0.
 00004358,-0.00007801,-0.00008765,-0.00004003,0.00001759,0.00000953,-0.
 00002422,0.00002648,0.00001332,-0.00000040,-0.00000088,-0.00008357,-0.
 00003059,0.00002752,0.00001584,0.00003604,0.00003101,0.00009932,0.0000
 1008,-0.00001013,0.00000797,0.00000123,-0.00000775,0.00001608,0.000036
 07,0.00001133,0.00000449,0.00151356,0.00022440,-0.00039965,-0.00001804
 ,-0.00002322,-0.00006652,-0.00144410,-0.00152078,-0.00107982,0.0004783
 7,-0.00086940,0.01877806,-0.00405778,-0.00436314,-0.06208754,0.0320821
 5,0.00694345,0.06335476,-0.00035109,0.00085200,-0.00003997,-0.00159108
 ,0.00597720,0.00092224,-0.02680698,0.03262104,-0.00055911,0.00967783,-
 0.00400516,-0.00220891,-0.00032150,-0.00040109,-0.00005657,-0.00248060
 ,-0.00609871,-0.00025232,-0.00122989,0.00041697,-0.00176343,-0.1520039
 8,-0.00308007,-0.00835743,-0.00133984,0.00093530,-0.00061830,0.0004319
 6,-0.00019370,-0.00010749,0.00189460,-0.00113957,0.00033468,-0.0000334
 8,0.00052551,0.00024590,-0.00008425,-0.00004877,0.00021349,-0.00008178
 ,-0.00112488,-0.00048732,0.00007546,0.00001319,-0.00011486,-0.00005945
 ,-0.00026128,0.00004066,-0.00204046,0.00029684,-0.00062363,-0.01809029
 ,-0.00648641,0.00375036,0.00042571,0.00084934,0.00034453,0.05104139,0.
 03004473,0.00458157,-0.02722154,0.00989749,-0.00281374,-0.05889661,-0.
 06387173,-0.00122581,-0.37093956,-0.01243981,-0.01583449,0.77193895,-0
 .00008150,0.00040567,0.00234620,-0.00487907,0.01795624,-0.00240571,0.0
 2934547,0.02178102,0.00649572,0.03147696,-0.01719497,-0.01125431,-0.00
 010819,-0.00168910,-0.00137646,-0.01270813,-0.00323994,-0.00030851,-0.
 00637429,-0.00160217,-0.00345544,0.02606543,-0.13960251,0.00466341,0.0
 0294293,0.00120034,-0.00185979,-0.00083586,-0.00000233,-0.00003468,0.0
 0033793,-0.00413498,0.00005602,-0.00048154,-0.00022265,0.00034134,-0.0
 0105915,-0.00004593,0.00006707,-0.00044131,-0.00029085,0.00014318,-0.0
 0025205,0.00029423,0.00019897,0.00008696,-0.00022344,-0.00009035,-0.00
 305165,0.00168631,-0.00159944,-0.04311371,0.00077869,0.01938065,0.0007
 5870,-0.00008258,-0.00050802,-0.01298655,-0.05876849,-0.00100218,0.017
 01405,-0.00134823,0.00171879,-0.04012929,0.01260582,-0.00139554,0.0044
 5510,-0.11143236,0.00044326,0.18262975,0.66843494,0.00037652,-0.000347
 26,0.00035622,0.00088638,0.00129520,0.00083249,-0.00180431,0.00349395,
 -0.00302907,0.00428271,-0.00147371,-0.00150704,0.00003058,-0.00034163,
 -0.00014342,-0.00208483,0.00034513,-0.00024869,-0.00076297,0.00020294,
 0.00104363,-0.00849051,-0.00178333,-0.06730461,0.00034329,0.00062720,0
 .00021676,-0.00003558,0.00001488,-0.00005962,-0.00000770,-0.00019897,-
 0.00021231,-0.00018012,-0.00005726,0.00007564,0.00004916,-0.00001587,-
 0.00004203,0.00000929,-0.00000464,-0.00010955,-0.00002666,0.00004554,0
 .00002169,-0.00000582,0.00001274,-0.00001991,-0.00012099,0.00005853,-0
 .00005617,-0.00447387,0.00329095,0.00099616,-0.00002837,0.00000990,0.0
 0011556,0.00418434,0.00262526,0.00142650,-0.00236954,0.00067052,-0.000
 03634,-0.00136160,-0.00426241,-0.01901235,-0.01581709,-0.00052153,-0.0
 7162994,0.02478603,-0.00214360,0.22220190,-0.00008911,-0.00015293,0.00
 002369,-0.00004398,-0.00009946,0.00021907,0.00022339,-0.00047804,0.000
 08207,-0.00026794,0.00044988,-0.00007632,0.00004189,0.00002924,-0.0000
 1182,-0.00500922,-0.00237803,-0.00142593,0.00016092,0.00025463,-0.0000
 3015,0.01334911,-0.01387143,0.00116150,-0.00127739,-0.00008167,0.00035
 288,0.00000863,0.00003674,-0.00003034,0.00007265,0.00022044,-0.0000029
 3,-0.00006493,0.00004995,0.00001259,0.00024960,0.00000226,0.00001874,0
 .00003598,-0.00011591,-0.00028838,0.00004967,-0.00002343,-0.00006728,-
 0.00005481,0.00006745,-0.00000325,0.00003500,-0.00005209,0.00001729,0.
 00044681,-0.00006230,-0.00016526,-0.00003421,0.00017426,0.00082354,-0.
 15685052,0.14344188,-0.01227500,-0.00929312,0.02542313,-0.00160874,-0.
 00314141,-0.00434840,-0.00147975,0.00027479,0.00017374,0.00027251,-0.0
 0196378,-0.00129929,-0.00051247,0.16457407,0.00007901,-0.00024253,-0.0
 0007105,-0.00012275,-0.00045215,-0.00009874,0.00340749,-0.00219736,0.0
 0047688,-0.00058954,0.00058147,0.00018784,0.00004196,0.00000744,0.0000
 8128,0.00171442,0.00193850,0.00010893,-0.00026660,0.00001510,-0.000002
 02,0.01822115,-0.02730961,0.00188090,-0.00071298,0.00069761,0.00034687
 ,0.00000032,0.00007616,-0.00006675,-0.00003138,0.00025457,0.00001770,-
 0.00010833,0.00011307,-0.00010878,0.00028050,0.00001384,-0.00001408,0.
 00016134,-0.00016350,-0.00005115,0.00005709,-0.00004626,0.00001181,0.0
 0003555,-0.00001378,0.00005095,0.00011790,-0.00005509,0.00002483,0.000
 96960,-0.00002799,-0.00046694,-0.00049222,0.00035017,0.00025448,0.1340
 9405,-0.24356905,0.01469153,-0.00285616,0.00617675,-0.00008475,-0.0012
 8760,0.00080235,0.00031622,0.00102565,0.00062784,-0.00003943,-0.007653
 41,0.00230774,-0.00057322,-0.14677734,0.26261313,0.00010289,0.00003736
 ,-0.00013198,0.00036206,0.00014512,0.00045251,0.00050146,-0.00002947,-
 0.00145370,-0.00004975,-0.00002253,-0.00014051,0.00000449,-0.00002116,
 -0.00012852,-0.00086809,-0.00062380,-0.00056619,-0.00028681,0.00002537
 ,0.00004741,0.00057371,-0.00064988,0.00277889,-0.00031445,0.00015680,-
 0.00005234,0.00005968,0.00001809,-0.00000778,-0.00001284,0.00001034,-0
 .00004702,0.00032167,0.00000207,0.00056006,0.00000251,-0.00004005,-0.0
 0000668,-0.00042279,-0.00016364,-0.00035992,-0.00005378,-0.00001840,-0
 .00008535,-0.00002482,0.00006336,-0.00008881,0.00001462,-0.00000823,0.
 00001493,0.00001923,-0.00001707,0.00003153,0.00089059,0.00008843,-0.00
 019316,-0.01385393,0.01716376,-0.04028783,-0.00027019,0.00153382,0.008
 37211,-0.00079081,-0.00022442,0.01195478,-0.00015073,0.00000773,-0.002
 31434,-0.00024453,-0.00026204,0.00320930,0.01412336,-0.01697338,0.0264
 3051,0.00000148,-0.00003894,0.00007405,-0.00013716,0.00015544,-0.00025
 858,0.00067176,-0.00157139,0.00001131,0.00006268,-0.00011120,0.0000437
 5,0.00001096,-0.00000789,0.00001771,-0.00003451,0.00028554,0.00008315,
 -0.00037941,-0.00001637,-0.00003466,-0.00539065,0.00140992,-0.00104683
 ,0.00014334,-0.00002190,-0.00004230,-0.00004780,0.00000956,0.00000296,
 -0.00005946,-0.00000649,0.00000538,-0.00004279,-0.00006481,-0.00003194
 ,-0.00002720,0.00000358,-0.00000408,0.00005112,0.00010310,0.00004823,0
 .00000155,0.00001200,0.00001208,-0.00000569,0.00001540,-0.00000902,0.0
 0002888,0.00001861,-0.00000946,-0.00011156,0.00005505,0.00001240,-0.00
 003204,-0.00010946,-0.00003128,-0.00878396,-0.02838533,-0.00029945,-0.
 11780388,-0.12183345,-0.00538269,0.01011612,0.01285578,0.00042262,-0.0
 0042618,0.00434336,-0.00007227,-0.00175510,0.00076144,-0.00010056,0.00
 074191,0.00028162,0.00042165,0.12176831,0.00002012,-0.00001577,-0.0000
 1692,0.00002153,-0.00016770,-0.00000312,0.00063432,0.00017213,0.000026
 40,-0.00032759,0.00017210,0.00012632,0.00001296,0.00001604,0.00000828,
 -0.00021613,0.00011232,0.00001153,0.00001786,0.00003543,0.00003791,0.0
 0070504,0.00324258,0.00004517,0.00008683,-0.00000542,-0.00002888,-0.00
 000849,-0.00000057,0.00000696,-0.00004640,0.00003116,-0.00000831,-0.00
 001760,-0.00003142,-0.00001909,-0.00002140,0.00000362,-0.00000133,0.00
 001277,0.00005066,0.00003711,-0.00000329,0.00000598,0.00000857,0.00000
 286,0.00000641,-0.00000240,0.00005197,-0.00001215,0.00001862,0.0004369
 6,-0.00002623,-0.00020379,-0.00000089,-0.00004794,-0.00004316,0.004679
 80,0.00170176,0.00031023,-0.12508820,-0.28392804,-0.00767343,-0.020833
 02,-0.01402441,-0.00104274,0.00248002,-0.00589608,0.00001595,0.0041205
 4,-0.00018074,0.00023611,-0.00064183,0.00073873,-0.00007548,0.13364023
 ,0.29483617,-0.00004830,-0.00000687,0.00021254,-0.00060820,0.00018153,
 -0.00017896,0.00004053,0.00009720,0.00246869,0.00012669,-0.00008947,-0
 .00006250,0.00001392,0.00000248,-0.00003342,-0.00003127,0.00008764,-0.
 00013734,0.00059668,0.00006474,0.00015970,-0.00130563,0.00003813,0.008
 26096,-0.00002282,-0.00002552,0.00005098,-0.00004405,0.00002414,-0.000
 02647,0.00000737,-0.00003207,-0.00006812,0.00002324,-0.00000765,0.0000
 4723,0.00000027,0.00000519,-0.00000803,-0.00002735,-0.00000803,-0.0000
 6327,0.00000197,-0.00000318,-0.00000471,-0.00000131,0.00001248,-0.0000
 0797,-0.00000398,0.00000050,0.00001713,-0.00011259,0.00003403,0.000033
 89,-0.00002397,0.00002246,0.00006353,-0.00064274,-0.00224602,-0.001390
 10,-0.00530321,-0.00674699,-0.02650225,0.00060110,0.00076613,0.0017331
 2,-0.00018340,0.00018666,0.00163351,0.00000746,-0.00011734,-0.00001226
 ,0.00063060,-0.00017938,-0.00572527,0.00599212,0.00808304,0.02184826,0
 .00026612,-0.00003128,0.00036597,-0.00058017,0.00009393,-0.00092212,0.
 00482853,-0.00125597,0.00074969,-0.00306228,0.00040102,0.00145923,0.00
 012534,0.00007535,-0.00004131,-0.00315751,0.00138901,0.00014928,-0.001
 00047,-0.00002900,-0.00004737,-0.00935069,0.00057694,0.00014278,0.0018
 0186,-0.00025854,-0.00040563,-0.00037549,0.00007339,0.00009066,-0.0011
 2110,-0.00017339,-0.00020864,-0.00002448,-0.00034794,0.00002881,-0.000
 36040,0.00003457,-0.00012814,-0.00024221,0.00059388,0.00027731,-0.0001
 4983,0.00006451,0.00011517,0.00008553,0.00010039,-0.00007217,0.0007665
 4,0.00010574,0.00015177,0.00424501,0.00017238,-0.00201694,0.00030286,-
 0.00051555,-0.00041619,0.00669883,0.00954841,0.00017294,-0.06386832,0.
 02263096,-0.00376280,-0.59682456,0.00437968,-0.02398016,-0.07186088,-0
 .04757587,-0.00356459,0.02521889,-0.00143226,0.00062221,-0.00194205,0.
 00023858,0.00002075,0.00087989,0.00150340,0.00004502,0.71969111,-0.000
 00010,-0.00009240,-0.00018968,0.00021779,-0.00114050,0.00013954,-0.000
 24078,0.00028833,-0.00013058,-0.00163270,0.00115871,0.00053124,0.00003
 050,0.00008880,0.00008296,0.00014596,0.00072336,0.00001319,0.00034694,
 0.00011590,0.00020573,-0.00231646,0.01289219,-0.00031766,-0.00033223,0
 .00012587,0.00004168,0.00002933,0.00000343,0.00000769,-0.00004915,0.00
 031405,0.00000394,-0.00010950,-0.00008726,-0.00010989,0.00004094,0.000
 02099,0.00000640,0.00015953,0.00015986,0.00005855,0.00003750,0.0000067
 7,0.00001003,-0.00001626,0.00004290,0.00000114,0.00020570,-0.00011278,
 0.00009092,0.00238131,-0.00031199,-0.00093766,-0.00024131,-0.00012523,
 0.00008008,-0.00493261,-0.01429349,-0.00052464,0.04551484,0.00623798,0
 .00205802,0.00491684,-0.09660933,-0.00014481,-0.06581911,-0.00014730,-
 0.00314336,0.01193424,-0.00849862,0.00092609,0.00161228,0.00014837,0.0
 0015000,-0.00163698,0.00336231,-0.00016933,0.01692180,0.09825906,0.000
 00768,-0.00000973,0.00000477,0.00008586,0.00010146,-0.00014099,0.00024
 323,-0.00009946,-0.00055352,0.00006735,-0.00012088,0.00011242,-0.00000
 472,0.00001993,0.00004462,-0.00018891,0.00009905,0.00002780,-0.0000745
 2,0.00006970,0.00004295,-0.00047468,-0.00006849,-0.00061682,0.00012507
 ,-0.00000737,-0.00003941,-0.00002397,0.00000509,0.00000731,-0.00002489
 ,-0.00001251,0.00004116,-0.00004005,-0.00002193,-0.00006823,-0.0000090
 2,0.00000353,0.00000018,0.00004310,0.00004536,0.00009870,-0.00000231,0
 .00000425,0.00001355,0.00000759,-0.00000876,0.00000980,0.00001374,0.00
 000834,-0.00002688,-0.00005484,0.00002968,-0.00014739,-0.00003569,-0.0
 0003144,-0.00005901,0.00027519,0.00020126,0.00296579,-0.00372935,0.001
 18688,0.02370191,-0.02373965,-0.00082062,-0.07669080,-0.00438860,-0.00
 112994,0.01452893,0.00083357,-0.00027483,0.00989119,0.00020567,-0.0000
 5426,-0.00253957,0.00013318,0.00008653,-0.00168071,0.03122048,0.001291
 79,0.03277945,-0.00002054,0.00030064,-0.00158732,0.00126720,-0.0171226
 0,0.00090681,-0.00733014,-0.00642427,-0.00264657,-0.05092121,0.0155383
 8,0.02384993,0.00032069,0.00186924,0.00088878,0.00208110,0.00511641,0.
 00042602,0.00168684,0.00241804,0.00158852,0.02644316,0.00894087,-0.001
 02666,-0.00043910,-0.00047168,0.00069632,0.00014339,0.00000335,0.00016
 019,-0.00172899,0.00314479,-0.00059398,-0.00009881,-0.00041410,-0.0004
 0447,0.00021836,0.00015792,-0.00020647,0.00027995,0.00104279,0.0003808
 5,0.00004233,-0.00003666,0.00006405,0.00002628,0.00032499,-0.00000117,
 0.00366574,-0.00115454,0.00213347,0.01890623,0.00595070,-0.01131797,-0
 .00062323,-0.00068021,-0.00006370,-0.00945011,-0.00794646,-0.00161438,
 0.00684878,-0.00696287,0.00057964,0.00998459,0.02723425,-0.00059330,-0
 .07493233,-0.07300033,-0.00332815,-0.19341352,-0.16664086,0.00261251,-
 0.00023196,0.00017207,-0.00007515,0.00055942,-0.00122239,0.00027185,-0
 .01099008,-0.00716830,-0.00047050,0.27770594,-0.00011280,0.00030268,-0
 .00166240,0.00011678,-0.00945815,0.00229368,-0.01364719,-0.00293545,-0
 .00173425,-0.01984945,0.01836759,0.00786952,0.00017430,0.00131386,0.00
 072346,0.00355970,0.00136288,-0.00111675,0.00280483,-0.00039929,0.0014
 7220,-0.00973871,-0.08973941,0.00077193,-0.00235475,-0.00025757,0.0007
 7733,0.00040334,0.00001904,0.00010233,-0.00034587,0.00263424,0.0000586
 6,0.00003896,-0.00008892,-0.00039310,0.00044703,0.00012188,-0.00004541
 ,0.00046943,0.00049555,0.00007168,0.00016329,-0.00011245,-0.00007509,-
 0.00005029,0.00022637,0.00004364,0.00211611,-0.00116273,0.00096731,0.0
 3158517,-0.01593096,-0.01503449,-0.00068525,-0.00022735,0.00034222,0.0
 0846085,-0.00259825,0.00136123,0.00018837,-0.00449955,-0.00003243,0.01
 038480,0.01530360,0.00036793,-0.04786566,-0.01105399,-0.00138121,-0.17
 430957,-0.37889111,-0.00213152,-0.00155371,-0.00338553,-0.00027269,-0.
 00014641,-0.00015094,0.00002550,-0.00728415,-0.00252996,-0.00049261,0.
 21703084,0.48327391,-0.00003494,-0.00026123,0.00045183,0.00060582,0.00
 804628,-0.00198967,-0.00025821,-0.00123137,-0.00511133,0.02629990,-0.0
 0645656,-0.00347284,-0.00032659,-0.00047910,0.00024974,-0.00110423,0.0
 0164981,0.00188264,0.00087041,0.00075404,0.00065673,-0.00027267,0.0038
 4529,0.01850894,0.00124523,0.00025477,-0.00048254,-0.00010682,0.000028
 98,0.00002538,0.00083890,-0.00141009,0.00091943,-0.00016461,-0.0000012
 4,0.00003060,-0.00010084,-0.00016162,0.00008386,-0.00004932,-0.0002006
 0,0.00016711,-0.00004058,0.00006388,0.00005232,0.00000580,-0.00014351,
 -0.00000098,-0.00160187,0.00049436,-0.00153626,-0.01207222,-0.00423946
 ,-0.00548208,0.00010375,0.00011973,-0.00021886,-0.00133622,-0.00005591
 ,0.00351182,0.00043515,0.00016193,-0.00187579,-0.00069699,0.00051594,0
 .01117751,-0.00088771,-0.00101355,0.01457729,-0.00075259,-0.00776639,-
 0.07696375,0.00003409,0.00033372,0.00027694,0.00004254,0.00005995,-0.0
 0062817,-0.00004604,-0.00003138,-0.00170720,-0.01062915,0.00712333,0.0
 4689733\\-0.00000253,-0.00001364,-0.00000629,-0.00000207,0.00001186,0.
 00001191,-0.00000643,-0.00000422,0.00000850,0.00002185,-0.00001364,-0.
 00001222,-0.00000205,0.00000031,0.00000083,0.00001826,0.00000804,-0.00
 001307,0.00000703,-0.00000049,0.00000057,-0.00001474,0.00003567,-0.000
 02101,-0.00001184,0.00000844,0.00000032,-0.00000155,0.00000140,-0.0000
 0553,-0.00000095,0.00000157,0.00001787,-0.00000116,-0.00000358,0.00000
 103,0.00000812,-0.00000210,0.00000159,-0.00000865,0.00000483,0.0000036
 5,0.00000156,-0.00000019,-0.00000097,0.00000073,0.00000135,0.00000097,
 0.00000337,0.00000041,0.00000119,-0.00001894,-0.00000057,0.00000785,0.
 00000791,-0.00000271,-0.00000548,-0.00000897,-0.00002066,0.00000991,-0
 .00000056,-0.00000234,0.00000573,0.00000124,0.00001188,-0.00001395,-0.
 00001153,0.00000733,0.00000324,0.00001984,-0.00004551,0.00000119,-0.00
 000089,0.00000435,-0.00000618,0.00000045,0.00000015,-0.00000139,0.0000
 0158,-0.00000260,0.00000365,0.00000091,0.00001463,0.00000612\\\@
 The archive entry for this job was punched.


 SILVERMAN'S PARADOX - IF MURPHY'S LAW CAN GO WRONG, IT WILL.
 Job cpu time:       0 days  9 hours 58 minutes 30.6 seconds.
 Elapsed time:       0 days  0 hours 15 minutes  6.2 seconds.
 File lengths (MBytes):  RWF=    600 Int=      0 D2E=      0 Chk=     20 Scr=      1
 Normal termination of Gaussian 16 at Fri Oct 18 12:01:36 2024.
