 Entering Gaussian System, Link 0=g16
 Input=UridineSsllaPBE0aVDZ.gjf
 Output=UridineSsllaPBE0aVDZ.log
 Initial command:
 /sw/contrib/chem-src/g16/c01/g16/l1.exe "/scr/Gau-26249.inp" -scrdir="/scr/"
 Entering Link 1 = /sw/contrib/chem-src/g16/c01/g16/l1.exe PID=     26250.
  
 Copyright (c) 1988-2019, Gaussian, Inc.  All Rights Reserved.
  
 This is part of the Gaussian(R) 16 program.  It is based on
 the Gaussian(R) 09 system (copyright 2009, Gaussian, Inc.),
 the Gaussian(R) 03 system (copyright 2003, Gaussian, Inc.),
 the Gaussian(R) 98 system (copyright 1998, Gaussian, Inc.),
 the Gaussian(R) 94 system (copyright 1995, Gaussian, Inc.),
 the Gaussian 92(TM) system (copyright 1992, Gaussian, Inc.),
 the Gaussian 90(TM) system (copyright 1990, Gaussian, Inc.),
 the Gaussian 88(TM) system (copyright 1988, Gaussian, Inc.),
 the Gaussian 86(TM) system (copyright 1986, Carnegie Mellon
 University), and the Gaussian 82(TM) system (copyright 1983,
 Carnegie Mellon University). Gaussian is a federally registered
 trademark of Gaussian, Inc.
  
 This software contains proprietary and confidential information,
 including trade secrets, belonging to Gaussian, Inc.
  
 This software is provided under written license and may be
 used, copied, transmitted, or stored only in accord with that
 written license.
  
 The following legend is applicable only to US Government
 contracts under FAR:
  
                    RESTRICTED RIGHTS LEGEND
  
 Use, reproduction and disclosure by the US Government is
 subject to restrictions as set forth in subparagraphs (a)
 and (c) of the Commercial Computer Software - Restricted
 Rights clause in FAR 52.227-19.
  
 Gaussian, Inc.
 340 Quinnipiac St., Bldg. 40, Wallingford CT 06492
  
  
 ---------------------------------------------------------------
 Warning -- This program may not be used in any manner that
 competes with the business of Gaussian, Inc. or will provide
 assistance to any competitor of Gaussian, Inc.  The licensee
 of this program is prohibited from giving any competitor of
 Gaussian, Inc. access to this program.  By using this program,
 the user acknowledges that Gaussian, Inc. is engaged in the
 business of creating and licensing software in the field of
 computational chemistry and represents and warrants to the
 licensee that it is not a competitor of Gaussian, Inc. and that
 it will not use this program in any manner prohibited above.
 ---------------------------------------------------------------
  

 Cite this work as:
 Gaussian 16, Revision C.01,
 M. J. Frisch, G. W. Trucks, H. B. Schlegel, G. E. Scuseria, 
 M. A. Robb, J. R. Cheeseman, G. Scalmani, V. Barone, 
 G. A. Petersson, H. Nakatsuji, X. Li, M. Caricato, A. V. Marenich, 
 J. Bloino, B. G. Janesko, R. Gomperts, B. Mennucci, H. P. Hratchian, 
 J. V. Ortiz, A. F. Izmaylov, J. L. Sonnenberg, D. Williams-Young, 
 F. Ding, F. Lipparini, F. Egidi, J. Goings, B. Peng, A. Petrone, 
 T. Henderson, D. Ranasinghe, V. G. Zakrzewski, J. Gao, N. Rega, 
 G. Zheng, W. Liang, M. Hada, M. Ehara, K. Toyota, R. Fukuda, 
 J. Hasegawa, M. Ishida, T. Nakajima, Y. Honda, O. Kitao, H. Nakai, 
 T. Vreven, K. Throssell, J. A. Montgomery, Jr., J. E. Peralta, 
 F. Ogliaro, M. J. Bearpark, J. J. Heyd, E. N. Brothers, K. N. Kudin, 
 V. N. Staroverov, T. A. Keith, R. Kobayashi, J. Normand, 
 K. Raghavachari, A. P. Rendell, J. C. Burant, S. S. Iyengar, 
 J. Tomasi, M. Cossi, J. M. Millam, M. Klene, C. Adamo, R. Cammi, 
 J. W. Ochterski, R. L. Martin, K. Morokuma, O. Farkas, 
 J. B. Foresman, and D. J. Fox, Gaussian, Inc., Wallingford CT, 2019.
 
 ******************************************
 Gaussian 16:  EM64L-G16RevC.01  3-Jul-2019
                17-Oct-2024 
 ******************************************
 %nprocshared=40
 Will use up to   40 processors via shared memory.
 %mem=50gb
 ------------------------------------------------------
 # PBE1PBE/aug-cc-pVDZ opt freq EmpiricalDispersion=GD3
 ------------------------------------------------------
 1/18=20,19=15,26=3,38=1/1,3;
 2/9=110,12=2,17=6,18=5,40=1/2;
 3/5=16,7=10,11=2,25=1,30=1,71=1,74=-13,124=31/1,2,3;
 4//1;
 5/5=2,38=5/2;
 6/7=2,8=2,9=2,10=2,28=1/1;
 7//1,2,3,16;
 1/18=20,19=15,26=3/3(2);
 2/9=110/2;
 99//99;
 2/9=110/2;
 3/5=16,7=10,11=2,25=1,30=1,71=1,74=-13,124=31/1,2,3;
 4/5=5,16=3,69=1/1;
 5/5=2,38=5/2;
 7//1,2,3,16;
 1/18=20,19=15,26=3/3(-5);
 2/9=110/2;
 6/7=2,8=2,9=2,10=2,19=2,28=1/1;
 99/9=1/99;
 ----
 blah
 ----
 Symbolic Z-matrix:
 Charge =  0 Multiplicity = 1
 C                    -3.72009  -1.71809   0.37658 
 C                    -2.24247  -1.96234   0.6113 
 C                    -1.60704  -0.77892  -0.13996 
 O                    -1.88094  -3.2534    0.10224 
 H                    -1.99905  -1.93207   1.6783 
 O                    -2.5487    0.30947  -0.12176 
 H                    -1.43496  -1.04911  -1.19019 
 N                    -0.31355  -0.37247   0.42242 
 C                    -3.83004  -0.19844   0.32382 
 H                    -4.36383  -2.18802   1.12561 
 O                    -4.08957  -2.27235  -0.89849 
 C                    -4.1667    0.43626   1.67741 
 H                    -4.5731    0.12481  -0.41365 
 O                    -3.27819  -0.00851   2.69995 
 H                    -5.1864    0.1741    1.97647 
 H                    -4.07912   1.52578   1.61401 
 H                    -3.59964  -3.1213   -0.95039 
 H                    -0.90645  -3.24063  -0.0329 
 H                    -3.52408   0.46702   3.51382 
 C                    -0.15911   0.82424   1.096 
 C                     1.01476   1.20549   1.60407 
 C                     2.17974   0.32438   1.44052 
 N                     1.9508   -0.84147   0.77078 
 C                     0.74833  -1.25201   0.26234 
 H                    -1.03331   1.45941   1.20427 
 H                     1.15746   2.13757   2.13345 
 H                     2.73402  -1.46553   0.65789 
 O                     3.27622   0.63221   1.89123 
 O                     0.64028  -2.35539  -0.27258 
 

 GradGradGradGradGradGradGradGradGradGradGradGradGradGradGradGradGradGrad
 Berny optimization.
 Initialization pass.
                           ----------------------------
                           !    Initial Parameters    !
                           ! (Angstroms and Degrees)  !
 --------------------------                            --------------------------
 ! Name  Definition              Value          Derivative Info.                !
 --------------------------------------------------------------------------------
 ! R1    R(1,2)                  1.516          estimate D2E/DX2                !
 ! R2    R(1,9)                  1.5245         estimate D2E/DX2                !
 ! R3    R(1,10)                 1.0937         estimate D2E/DX2                !
 ! R4    R(1,11)                 1.4386         estimate D2E/DX2                !
 ! R5    R(2,3)                  1.539          estimate D2E/DX2                !
 ! R6    R(2,4)                  1.4341         estimate D2E/DX2                !
 ! R7    R(2,5)                  1.0948         estimate D2E/DX2                !
 ! R8    R(3,6)                  1.4393         estimate D2E/DX2                !
 ! R9    R(3,7)                  1.098          estimate D2E/DX2                !
 ! R10   R(3,8)                  1.4679         estimate D2E/DX2                !
 ! R11   R(4,18)                 0.9839         estimate D2E/DX2                !
 ! R12   R(6,9)                  1.4486         estimate D2E/DX2                !
 ! R13   R(8,20)                 1.3819         estimate D2E/DX2                !
 ! R14   R(8,24)                 1.3881         estimate D2E/DX2                !
 ! R15   R(9,12)                 1.5324         estimate D2E/DX2                !
 ! R16   R(9,13)                 1.0957         estimate D2E/DX2                !
 ! R17   R(11,17)                0.9815         estimate D2E/DX2                !
 ! R18   R(12,14)                1.4258         estimate D2E/DX2                !
 ! R19   R(12,15)                1.0945         estimate D2E/DX2                !
 ! R20   R(12,16)                1.0949         estimate D2E/DX2                !
 ! R21   R(14,19)                0.9741         estimate D2E/DX2                !
 ! R22   R(20,21)                1.3347         estimate D2E/DX2                !
 ! R23   R(20,25)                1.086          estimate D2E/DX2                !
 ! R24   R(21,22)                1.4698         estimate D2E/DX2                !
 ! R25   R(21,26)                1.0814         estimate D2E/DX2                !
 ! R26   R(22,23)                1.3639         estimate D2E/DX2                !
 ! R27   R(22,28)                1.2248         estimate D2E/DX2                !
 ! R28   R(23,24)                1.3686         estimate D2E/DX2                !
 ! R29   R(23,27)                1.0078         estimate D2E/DX2                !
 ! R30   R(24,29)                1.231          estimate D2E/DX2                !
 ! A1    A(2,1,9)              103.6655         estimate D2E/DX2                !
 ! A2    A(2,1,10)             113.4794         estimate D2E/DX2                !
 ! A3    A(2,1,11)             108.9959         estimate D2E/DX2                !
 ! A4    A(9,1,10)             114.1753         estimate D2E/DX2                !
 ! A5    A(9,1,11)             109.5638         estimate D2E/DX2                !
 ! A6    A(10,1,11)            106.8752         estimate D2E/DX2                !
 ! A7    A(1,2,3)              101.7104         estimate D2E/DX2                !
 ! A8    A(1,2,4)              109.6215         estimate D2E/DX2                !
 ! A9    A(1,2,5)              111.2944         estimate D2E/DX2                !
 ! A10   A(3,2,4)              114.5117         estimate D2E/DX2                !
 ! A11   A(3,2,5)              111.2644         estimate D2E/DX2                !
 ! A12   A(4,2,5)              108.3473         estimate D2E/DX2                !
 ! A13   A(2,3,6)              107.7683         estimate D2E/DX2                !
 ! A14   A(2,3,7)              110.0228         estimate D2E/DX2                !
 ! A15   A(2,3,8)              112.9373         estimate D2E/DX2                !
 ! A16   A(6,3,7)              107.5            estimate D2E/DX2                !
 ! A17   A(6,3,8)              111.2411         estimate D2E/DX2                !
 ! A18   A(7,3,8)              107.247          estimate D2E/DX2                !
 ! A19   A(2,4,18)             106.6633         estimate D2E/DX2                !
 ! A20   A(3,6,9)              108.5091         estimate D2E/DX2                !
 ! A21   A(3,8,20)             121.6695         estimate D2E/DX2                !
 ! A22   A(3,8,24)             117.0317         estimate D2E/DX2                !
 ! A23   A(20,8,24)            121.2943         estimate D2E/DX2                !
 ! A24   A(1,9,6)              107.2391         estimate D2E/DX2                !
 ! A25   A(1,9,12)             113.4608         estimate D2E/DX2                !
 ! A26   A(1,9,13)             111.4863         estimate D2E/DX2                !
 ! A27   A(6,9,12)             108.7119         estimate D2E/DX2                !
 ! A28   A(6,9,13)             106.822          estimate D2E/DX2                !
 ! A29   A(12,9,13)            108.8652         estimate D2E/DX2                !
 ! A30   A(1,11,17)            104.5904         estimate D2E/DX2                !
 ! A31   A(9,12,14)            111.5537         estimate D2E/DX2                !
 ! A32   A(9,12,15)            110.2929         estimate D2E/DX2                !
 ! A33   A(9,12,16)            110.086          estimate D2E/DX2                !
 ! A34   A(14,12,15)           108.0531         estimate D2E/DX2                !
 ! A35   A(14,12,16)           107.5838         estimate D2E/DX2                !
 ! A36   A(15,12,16)           109.1895         estimate D2E/DX2                !
 ! A37   A(12,14,19)           106.8342         estimate D2E/DX2                !
 ! A38   A(8,20,21)            122.0861         estimate D2E/DX2                !
 ! A39   A(8,20,25)            117.7183         estimate D2E/DX2                !
 ! A40   A(21,20,25)           120.1956         estimate D2E/DX2                !
 ! A41   A(20,21,22)           118.9148         estimate D2E/DX2                !
 ! A42   A(20,21,26)           123.2719         estimate D2E/DX2                !
 ! A43   A(22,21,26)           117.8132         estimate D2E/DX2                !
 ! A44   A(21,22,23)           115.7236         estimate D2E/DX2                !
 ! A45   A(21,22,28)           121.1953         estimate D2E/DX2                !
 ! A46   A(23,22,28)           123.0798         estimate D2E/DX2                !
 ! A47   A(22,23,24)           125.8976         estimate D2E/DX2                !
 ! A48   A(22,23,27)           116.9931         estimate D2E/DX2                !
 ! A49   A(24,23,27)           117.0953         estimate D2E/DX2                !
 ! A50   A(8,24,23)            116.0545         estimate D2E/DX2                !
 ! A51   A(8,24,29)            123.4311         estimate D2E/DX2                !
 ! A52   A(23,24,29)           120.4937         estimate D2E/DX2                !
 ! D1    D(9,1,2,3)            -32.6031         estimate D2E/DX2                !
 ! D2    D(9,1,2,4)           -154.1849         estimate D2E/DX2                !
 ! D3    D(9,1,2,5)             85.9722         estimate D2E/DX2                !
 ! D4    D(10,1,2,3)          -157.0137         estimate D2E/DX2                !
 ! D5    D(10,1,2,4)            81.4045         estimate D2E/DX2                !
 ! D6    D(10,1,2,5)           -38.4384         estimate D2E/DX2                !
 ! D7    D(11,1,2,3)            84.0225         estimate D2E/DX2                !
 ! D8    D(11,1,2,4)           -37.5592         estimate D2E/DX2                !
 ! D9    D(11,1,2,5)          -157.4022         estimate D2E/DX2                !
 ! D10   D(2,1,9,6)             26.8371         estimate D2E/DX2                !
 ! D11   D(2,1,9,12)           -93.2185         estimate D2E/DX2                !
 ! D12   D(2,1,9,13)           143.4389         estimate D2E/DX2                !
 ! D13   D(10,1,9,6)           150.7952         estimate D2E/DX2                !
 ! D14   D(10,1,9,12)           30.7396         estimate D2E/DX2                !
 ! D15   D(10,1,9,13)          -92.603          estimate D2E/DX2                !
 ! D16   D(11,1,9,6)           -89.3888         estimate D2E/DX2                !
 ! D17   D(11,1,9,12)          150.5556         estimate D2E/DX2                !
 ! D18   D(11,1,9,13)           27.213          estimate D2E/DX2                !
 ! D19   D(2,1,11,17)           40.1257         estimate D2E/DX2                !
 ! D20   D(9,1,11,17)          152.9249         estimate D2E/DX2                !
 ! D21   D(10,1,11,17)         -82.8822         estimate D2E/DX2                !
 ! D22   D(1,2,3,6)             28.4959         estimate D2E/DX2                !
 ! D23   D(1,2,3,7)            -88.4316         estimate D2E/DX2                !
 ! D24   D(1,2,3,8)            151.7749         estimate D2E/DX2                !
 ! D25   D(4,2,3,6)            146.6227         estimate D2E/DX2                !
 ! D26   D(4,2,3,7)             29.6953         estimate D2E/DX2                !
 ! D27   D(4,2,3,8)            -90.0983         estimate D2E/DX2                !
 ! D28   D(5,2,3,6)            -90.1008         estimate D2E/DX2                !
 ! D29   D(5,2,3,7)            152.9717         estimate D2E/DX2                !
 ! D30   D(5,2,3,8)             33.1782         estimate D2E/DX2                !
 ! D31   D(1,2,4,18)           159.5928         estimate D2E/DX2                !
 ! D32   D(3,2,4,18)            46.0536         estimate D2E/DX2                !
 ! D33   D(5,2,4,18)           -78.7775         estimate D2E/DX2                !
 ! D34   D(2,3,6,9)            -12.4361         estimate D2E/DX2                !
 ! D35   D(7,3,6,9)            106.1209         estimate D2E/DX2                !
 ! D36   D(8,3,6,9)           -136.7437         estimate D2E/DX2                !
 ! D37   D(2,3,8,20)          -110.1099         estimate D2E/DX2                !
 ! D38   D(2,3,8,24)            69.1328         estimate D2E/DX2                !
 ! D39   D(6,3,8,20)            11.2233         estimate D2E/DX2                !
 ! D40   D(6,3,8,24)          -169.534          estimate D2E/DX2                !
 ! D41   D(7,3,8,20)           128.5127         estimate D2E/DX2                !
 ! D42   D(7,3,8,24)           -52.2446         estimate D2E/DX2                !
 ! D43   D(3,6,9,1)             -8.9742         estimate D2E/DX2                !
 ! D44   D(3,6,9,12)           114.0651         estimate D2E/DX2                !
 ! D45   D(3,6,9,13)          -128.6088         estimate D2E/DX2                !
 ! D46   D(3,8,20,21)         -179.6141         estimate D2E/DX2                !
 ! D47   D(3,8,20,25)            0.4002         estimate D2E/DX2                !
 ! D48   D(24,8,20,21)           1.1753         estimate D2E/DX2                !
 ! D49   D(24,8,20,25)        -178.8104         estimate D2E/DX2                !
 ! D50   D(3,8,24,23)          178.746          estimate D2E/DX2                !
 ! D51   D(3,8,24,29)           -2.9019         estimate D2E/DX2                !
 ! D52   D(20,8,24,23)          -2.0083         estimate D2E/DX2                !
 ! D53   D(20,8,24,29)         176.3438         estimate D2E/DX2                !
 ! D54   D(1,9,12,14)           51.8557         estimate D2E/DX2                !
 ! D55   D(1,9,12,15)          -68.2306         estimate D2E/DX2                !
 ! D56   D(1,9,12,16)          171.2151         estimate D2E/DX2                !
 ! D57   D(6,9,12,14)          -67.36           estimate D2E/DX2                !
 ! D58   D(6,9,12,15)          172.5538         estimate D2E/DX2                !
 ! D59   D(6,9,12,16)           51.9995         estimate D2E/DX2                !
 ! D60   D(13,9,12,14)         176.6233         estimate D2E/DX2                !
 ! D61   D(13,9,12,15)          56.5371         estimate D2E/DX2                !
 ! D62   D(13,9,12,16)         -64.0172         estimate D2E/DX2                !
 ! D63   D(9,12,14,19)         177.2504         estimate D2E/DX2                !
 ! D64   D(15,12,14,19)        -61.3537         estimate D2E/DX2                !
 ! D65   D(16,12,14,19)         56.4182         estimate D2E/DX2                !
 ! D66   D(8,20,21,22)           0.0491         estimate D2E/DX2                !
 ! D67   D(8,20,21,26)         179.9402         estimate D2E/DX2                !
 ! D68   D(25,20,21,22)       -179.9656         estimate D2E/DX2                !
 ! D69   D(25,20,21,26)         -0.0745         estimate D2E/DX2                !
 ! D70   D(20,21,22,23)         -0.3234         estimate D2E/DX2                !
 ! D71   D(20,21,22,28)       -179.9183         estimate D2E/DX2                !
 ! D72   D(26,21,22,23)        179.7796         estimate D2E/DX2                !
 ! D73   D(26,21,22,28)          0.1847         estimate D2E/DX2                !
 ! D74   D(21,22,23,24)         -0.6546         estimate D2E/DX2                !
 ! D75   D(21,22,23,27)       -179.2466         estimate D2E/DX2                !
 ! D76   D(28,22,23,24)        178.9319         estimate D2E/DX2                !
 ! D77   D(28,22,23,27)          0.3399         estimate D2E/DX2                !
 ! D78   D(22,23,24,8)           1.7955         estimate D2E/DX2                !
 ! D79   D(22,23,24,29)       -176.6085         estimate D2E/DX2                !
 ! D80   D(27,23,24,8)        -179.6138         estimate D2E/DX2                !
 ! D81   D(27,23,24,29)          1.9821         estimate D2E/DX2                !
 --------------------------------------------------------------------------------
 Trust Radius=3.00D-01 FncErr=1.00D-07 GrdErr=1.00D-06 EigMax=2.50D+02 EigMin=1.00D-04
 Number of steps in this run=    173 maximum allowed number of steps=    174.
 GradGradGradGradGradGradGradGradGradGradGradGradGradGradGradGradGradGrad

                          Input orientation:                          
 ---------------------------------------------------------------------
 Center     Atomic      Atomic             Coordinates (Angstroms)
 Number     Number       Type             X           Y           Z
 ---------------------------------------------------------------------
      1          6           0       -3.720091   -1.718090    0.376579
      2          6           0       -2.242470   -1.962335    0.611300
      3          6           0       -1.607043   -0.778918   -0.139959
      4          8           0       -1.880936   -3.253404    0.102239
      5          1           0       -1.999048   -1.932069    1.678296
      6          8           0       -2.548701    0.309475   -0.121764
      7          1           0       -1.434957   -1.049105   -1.190185
      8          7           0       -0.313550   -0.372474    0.422425
      9          6           0       -3.830036   -0.198437    0.323822
     10          1           0       -4.363826   -2.188020    1.125612
     11          8           0       -4.089570   -2.272355   -0.898485
     12          6           0       -4.166699    0.436258    1.677409
     13          1           0       -4.573099    0.124813   -0.413654
     14          8           0       -3.278195   -0.008510    2.699951
     15          1           0       -5.186404    0.174099    1.976472
     16          1           0       -4.079119    1.525783    1.614014
     17          1           0       -3.599644   -3.121301   -0.950387
     18          1           0       -0.906452   -3.240625   -0.032904
     19          1           0       -3.524084    0.467019    3.513816
     20          6           0       -0.159111    0.824238    1.095999
     21          6           0        1.014758    1.205488    1.604066
     22          6           0        2.179742    0.324377    1.440521
     23          7           0        1.950802   -0.841471    0.770783
     24          6           0        0.748326   -1.252009    0.262336
     25          1           0       -1.033310    1.459407    1.204275
     26          1           0        1.157460    2.137571    2.133445
     27          1           0        2.734020   -1.465532    0.657891
     28          8           0        3.276220    0.632207    1.891227
     29          8           0        0.640284   -2.355387   -0.272576
 ---------------------------------------------------------------------
                    Distance matrix (angstroms):
                    1          2          3          4          5
     1  C    0.000000
     2  C    1.515953   0.000000
     3  C    2.369351   1.539036   0.000000
     4  O    2.411420   1.434123   2.501351   0.000000
     5  H    2.168465   1.094829   2.188487   2.060056   0.000000
     6  O    2.394059   2.406716   1.439322   3.631831   2.926919
     7  H    2.850285   2.175182   1.097994   2.593876   3.053851
     8  N    3.662964   2.506804   1.467855   3.295296   2.617337
     9  C    1.524538   2.390471   2.343875   3.630554   2.862272
    10  H    1.093746   2.194448   3.344711   2.889132   2.441956
    11  O    1.438581   2.405690   2.994772   2.615717   3.335548
    12  C    2.555940   3.254611   3.366202   4.617302   3.210558
    13  H    2.179078   3.292195   3.112736   4.350430   3.902917
    14  O    2.918217   3.041812   3.383986   4.385177   2.525881
    15  H    2.879255   3.885202   4.266069   5.117289   3.831983
    16  H    3.490394   4.067638   3.807785   5.473399   4.035786
    17  H    1.935032   2.371495   3.180253   2.019760   3.299417
    18  H    3.225268   1.958052   2.561697   0.983893   2.415427
    19  H    3.828233   3.996110   4.310159   5.308516   3.383858
    20  C    4.434137   3.512878   2.488817   4.536453   3.364769
    21  C    5.698493   4.650830   3.722007   5.524694   4.351184
    22  C    6.333377   5.047040   4.249108   5.574999   4.755036
    23  N    5.751772   4.343421   3.673095   4.576744   4.196940
    24  C    4.494110   3.093735   2.435861   3.308206   3.164725
    25  H    4.242682   3.677228   2.673244   4.913607   3.558013
    26  H    6.460897   5.539466   4.617007   6.513084   5.170365
    27  H    6.465173   5.001443   4.466859   4.980266   4.864238
    28  O    7.534349   6.231035   5.473870   6.700351   5.869353
    29  O    4.454259   3.040723   2.748331   2.702493   3.309256
                    6          7          8          9         10
     6  O    0.000000
     7  H    2.056134   0.000000
     8  N    2.399395   2.077473   0.000000
     9  C    1.448565   2.958422   3.522171   0.000000
    10  H    3.329881   3.903629   4.493931   2.210484   0.000000
    11  O    3.105386   2.937414   4.428621   2.421266   2.044333
    12  C    2.423018   4.229871   4.132286   1.532442   2.688898
    13  H    2.053652   3.439334   4.369220   1.095674   2.786096
    14  O    2.931783   4.428715   3.756157   2.446751   2.899552
    15  H    3.373188   5.059377   5.143784   2.170200   2.642008
    16  H    2.614289   4.635210   4.382097   2.167849   3.756584
    17  H    3.682570   3.006221   4.498786   3.196846   2.400991
    18  H    3.912555   2.534044   2.963975   4.234325   3.795204
    19  H    3.767443   5.365697   4.535303   3.272996   3.668504
    20  C    2.730946   3.219291   1.381909   3.888164   5.172447
    21  C    4.059503   4.346508   2.377108   5.204043   6.377616
    22  C    4.979872   4.676870   2.781838   6.134964   7.016380
    23  N    4.729360   3.918147   2.338505   5.833641   6.466346
    24  C    3.668262   2.630154   1.388088   4.698425   5.268345
    25  H    2.318864   3.491044   2.117813   3.368282   4.939863
    26  H    4.707816   5.284132   3.375172   5.797136   7.085977
    27  H    5.627223   4.579210   3.246213   6.693576   7.149837
    28  O    6.171384   5.875125   4.006646   7.324316   8.179863
    29  O    4.158588   2.618207   2.307546   4.999189   5.198467
                   11         12         13         14         15
    11  O    0.000000
    12  C    3.738685   0.000000
    13  H    2.493045   2.152836   0.000000
    14  O    4.328056   1.425780   3.374772   0.000000
    15  H    3.931102   1.094516   2.468051   2.048910   0.000000
    16  H    4.553966   1.094876   2.513597   2.043231   1.784518
    17  H    0.981545   4.459046   3.431173   4.808093   4.684439
    18  H    3.437881   5.203254   4.991537   4.851827   5.832317
    19  H    5.224208   1.945839   4.079529   0.974149   2.283098
    20  C    5.386592   4.068087   4.717154   3.604832   5.145055
    21  C    6.664257   5.238758   6.038477   4.593931   6.297369
    22  C    7.177621   6.351845   7.005616   5.611243   7.387146
    23  N    6.428063   6.314933   6.700588   5.635417   7.309226
    24  C    5.078765   5.386106   5.538065   4.868380   6.339800
    25  H    5.261974   3.329987   4.114480   3.071048   4.415484
    26  H    7.494757   5.607949   6.586214   4.960002   6.642625
    27  H    7.045186   7.230224   7.554561   6.514571   8.195130
    28  O    8.394870   7.448567   8.196446   6.635126   8.475443
    29  O    4.771811   5.890909   5.775003   5.449607   6.738458
                   16         17         18         19         20
    16  H    0.000000
    17  H    5.329299   0.000000
    18  H    5.957919   2.847683   0.000000
    19  H    2.244614   5.728076   5.760021   0.000000
    20  C    4.015840   5.620698   4.284396   4.158905   0.000000
    21  C    5.103947   6.821953   5.112596   4.979314   1.334710
    22  C    6.375485   7.140759   4.940123   6.070628   2.416358
    23  N    6.532601   6.242396   3.816511   6.261849   2.707782
    24  C    5.731263   4.885672   2.603853   5.637434   2.414381
    25  H    3.073963   5.675519   4.861790   3.538753   1.085996
    26  H    5.297721   7.732774   6.154494   5.158781   2.129436
    27  H    7.502066   6.741174   4.108672   7.145273   3.715533
    28  O    7.414603   8.333132   6.016299   6.993155   3.531396
    29  O    6.394956   4.361541   1.798189   6.296404   3.552751
                   21         22         23         24         25
    21  C    0.000000
    22  C    1.469793   0.000000
    23  N    2.400121   1.363878   0.000000
    24  C    2.812564   2.433529   1.368580   0.000000
    25  H    2.102115   3.415817   3.793004   3.378350   0.000000
    26  H    1.081381   2.193828   3.370598   3.893288   2.474416
    27  H    3.314431   2.030642   1.007783   2.035936   4.800684
    28  O    2.350600   1.224810   2.276807   3.548775   4.441645
    29  O    4.042505   3.533520   2.257874   1.230953   4.419802
                   26         27         28         29
    26  H    0.000000
    27  H    4.200614   0.000000
    28  O    2.610352   2.493112   0.000000
    29  O    5.122800   2.457913   4.533863   0.000000
 Stoichiometry    C9H12N2O6
 Framework group  C1[X(C9H12N2O6)]
 Deg. of freedom    81
 Full point group                 C1      NOp   1
 Largest Abelian subgroup         C1      NOp   1
 Largest concise Abelian subgroup C1      NOp   1
                         Standard orientation:                         
 ---------------------------------------------------------------------
 Center     Atomic      Atomic             Coordinates (Angstroms)
 Number     Number       Type             X           Y           Z
 ---------------------------------------------------------------------
      1          6           0       -2.726809   -0.408668    0.259661
      2          6           0       -1.309556   -0.835663    0.587046
      3          6           0       -0.550551   -0.394680   -0.677105
      4          8           0       -1.277723   -2.247283    0.838099
      5          1           0       -0.933983   -0.318941    1.476199
      6          8           0       -1.247728    0.733201   -1.236993
      7          1           0       -0.567708   -1.198063   -1.425351
      8          7           0        0.857653   -0.073212   -0.415920
      9          6           0       -2.538682    0.843611   -0.589235
     10          1           0       -3.352573   -0.260252    1.144348
     11          8           0       -3.354841   -1.435148   -0.528646
     12          6           0       -2.571389    2.142288    0.223627
     13          1           0       -3.288778    0.905080   -1.385526
     14          8           0       -1.668504    2.093111    1.326001
     15          1           0       -3.577478    2.318768    0.616826
     16          1           0       -2.277922    2.987974   -0.406807
     17          1           0       -3.053498   -2.276986   -0.123760
     18          1           0       -0.344668   -2.534585    0.715990
     19          1           0       -1.711789    2.961617    1.765079
     20          6           0        1.329198    1.224281   -0.477810
     21          6           0        2.609341    1.525058   -0.249295
     22          6           0        3.546656    0.441088    0.077414
     23          7           0        3.009288   -0.811513    0.126278
     24          6           0        1.695474   -1.129944   -0.087039
     25          1           0        0.618877    2.008796   -0.721463
     26          1           0        2.998994    2.532830   -0.293483
     27          1           0        3.632789   -1.567921    0.360200
     28          8           0        4.729847    0.669928    0.296167
     29          8           0        1.304832   -2.289993    0.043079
 ---------------------------------------------------------------------
 Rotational constants (GHZ):           0.8623942           0.3289743           0.2639209
 Standard basis: Aug-CC-pVDZ (5D, 7F)
 There are   533 symmetry adapted cartesian basis functions of A   symmetry.
 There are   499 symmetry adapted basis functions of A   symmetry.
   499 basis functions,   863 primitive gaussians,   533 cartesian basis functions
    64 alpha electrons       64 beta electrons
       nuclear repulsion energy      1332.9972899125 Hartrees.
 NAtoms=   29 NActive=   29 NUniq=   29 SFac= 1.00D+00 NAtFMM=   60 NAOKFM=F Big=F
 Integral buffers will be    131072 words long.
 Raffenetti 2 integral format.
 Two-electron integral symmetry is turned on.
 Nuclear repulsion after empirical dispersion term =     1332.9770502997 Hartrees.
 One-electron integrals computed using PRISM.
 NBasis=   499 RedAO= T EigKep=  3.32D-06  NBF=   499
 NBsUse=   499 1.00D-06 EigRej= -1.00D+00 NBFU=   499
 ExpMin= 2.97D-02 ExpMax= 1.17D+04 ExpMxC= 4.01D+02 IAcc=3 IRadAn=         5 AccDes= 0.00D+00
 Harris functional with IExCor= 1009 and IRadAn=       5 diagonalized for initial guess.
 HarFok:  IExCor= 1009 AccDes= 0.00D+00 IRadAn=         5 IDoV= 1 UseB2=F ITyADJ=14
 ICtDFT=  3500011 ScaDFX=  1.000000  1.000000  1.000000  1.000000
 FoFCou: FMM=F IPFlag=           0 FMFlag=      100000 FMFlg1=           0
         NFxFlg=           0 DoJE=T BraDBF=F KetDBF=T FulRan=T
         wScrn=  0.000000 ICntrl=       500 IOpCl=  0 I1Cent=   200000004 NGrid=           0
         NMat0=    1 NMatS0=      1 NMatT0=    0 NMatD0=    1 NMtDS0=    0 NMtDT0=    0
 Petite list used in FoFCou.
 Requested convergence on RMS density matrix=1.00D-08 within 128 cycles.
 Requested convergence on MAX density matrix=1.00D-06.
 Requested convergence on             energy=1.00D-06.
 No special actions if energy rises.
 SCF Done:  E(RPBE1PBE) =  -910.211400991     A.U. after   14 cycles
            NFock= 14  Conv=0.52D-08     -V/T= 2.0056

 **********************************************************************

            Population analysis using the SCF Density.

 **********************************************************************

 Orbital symmetries:
       Occupied  (A) (A) (A) (A) (A) (A) (A) (A) (A) (A) (A) (A)
                 (A) (A) (A) (A) (A) (A) (A) (A) (A) (A) (A) (A)
                 (A) (A) (A) (A) (A) (A) (A) (A) (A) (A) (A) (A)
                 (A) (A) (A) (A) (A) (A) (A) (A) (A) (A) (A) (A)
                 (A) (A) (A) (A) (A) (A) (A) (A) (A) (A) (A) (A)
                 (A) (A) (A) (A)
       Virtual   (A) (A) (A) (A) (A) (A) (A) (A) (A) (A) (A) (A)
                 (A) (A) (A) (A) (A) (A) (A) (A) (A) (A) (A) (A)
                 (A) (A) (A) (A) (A) (A) (A) (A) (A) (A) (A) (A)
                 (A) (A) (A) (A) (A) (A) (A) (A) (A) (A) (A) (A)
                 (A) (A) (A) (A) (A) (A) (A) (A) (A) (A) (A) (A)
                 (A) (A) (A) (A) (A) (A) (A) (A) (A) (A) (A) (A)
                 (A) (A) (A) (A) (A) (A) (A) (A) (A) (A) (A) (A)
                 (A) (A) (A) (A) (A) (A) (A) (A) (A) (A) (A) (A)
                 (A) (A) (A) (A) (A) (A) (A) (A) (A) (A) (A) (A)
                 (A) (A) (A) (A) (A) (A) (A) (A) (A) (A) (A) (A)
                 (A) (A) (A) (A) (A) (A) (A) (A) (A) (A) (A) (A)
                 (A) (A) (A) (A) (A) (A) (A) (A) (A) (A) (A) (A)
                 (A) (A) (A) (A) (A) (A) (A) (A) (A) (A) (A) (A)
                 (A) (A) (A) (A) (A) (A) (A) (A) (A) (A) (A) (A)
                 (A) (A) (A) (A) (A) (A) (A) (A) (A) (A) (A) (A)
                 (A) (A) (A) (A) (A) (A) (A) (A) (A) (A) (A) (A)
                 (A) (A) (A) (A) (A) (A) (A) (A) (A) (A) (A) (A)
                 (A) (A) (A) (A) (A) (A) (A) (A) (A) (A) (A) (A)
                 (A) (A) (A) (A) (A) (A) (A) (A) (A) (A) (A) (A)
                 (A) (A) (A) (A) (A) (A) (A) (A) (A) (A) (A) (A)
                 (A) (A) (A) (A) (A) (A) (A) (A) (A) (A) (A) (A)
                 (A) (A) (A) (A) (A) (A) (A) (A) (A) (A) (A) (A)
                 (A) (A) (A) (A) (A) (A) (A) (A) (A) (A) (A) (A)
                 (A) (A) (A) (A) (A) (A) (A) (A) (A) (A) (A) (A)
                 (A) (A) (A) (A) (A) (A) (A) (A) (A) (A) (A) (A)
                 (A) (A) (A) (A) (A) (A) (A) (A) (A) (A) (A) (A)
                 (A) (A) (A) (A) (A) (A) (A) (A) (A) (A) (A) (A)
                 (A) (A) (A) (A) (A) (A) (A) (A) (A) (A) (A) (A)
                 (A) (A) (A) (A) (A) (A) (A) (A) (A) (A) (A) (A)
                 (A) (A) (A) (A) (A) (A) (A) (A) (A) (A) (A) (A)
                 (A) (A) (A) (A) (A) (A) (A) (A) (A) (A) (A) (A)
                 (A) (A) (A) (A) (A) (A) (A) (A) (A) (A) (A) (A)
                 (A) (A) (A) (A) (A) (A) (A) (A) (A) (A) (A) (A)
                 (A) (A) (A) (A) (A) (A) (A) (A) (A) (A) (A) (A)
                 (A) (A) (A) (A) (A) (A) (A) (A) (A) (A) (A) (A)
                 (A) (A) (A) (A) (A) (A) (A) (A) (A) (A) (A) (A)
                 (A) (A) (A)
 The electronic state is 1-A.
 Alpha  occ. eigenvalues --  -19.26765 -19.25493 -19.23342 -19.23329 -19.22869
 Alpha  occ. eigenvalues --  -19.20453 -14.48902 -14.47307 -10.40937 -10.35708
 Alpha  occ. eigenvalues --  -10.35104 -10.31364 -10.31350 -10.30466 -10.30279
 Alpha  occ. eigenvalues --  -10.30160 -10.25556  -1.14036  -1.11303  -1.08656
 Alpha  occ. eigenvalues --   -1.07995  -1.06998  -1.04158  -1.02766  -0.98555
 Alpha  occ. eigenvalues --   -0.84472  -0.82372  -0.79754  -0.73495  -0.72312
 Alpha  occ. eigenvalues --   -0.69094  -0.65315  -0.63115  -0.60300  -0.59143
 Alpha  occ. eigenvalues --   -0.57655  -0.55797  -0.55282  -0.52919  -0.52059
 Alpha  occ. eigenvalues --   -0.51625  -0.50822  -0.49036  -0.48359  -0.47481
 Alpha  occ. eigenvalues --   -0.46103  -0.44663  -0.44204  -0.44023  -0.43426
 Alpha  occ. eigenvalues --   -0.42242  -0.41115  -0.39441  -0.38140  -0.37732
 Alpha  occ. eigenvalues --   -0.35145  -0.33452  -0.32024  -0.31825  -0.31169
 Alpha  occ. eigenvalues --   -0.30602  -0.29903  -0.28615  -0.26409
 Alpha virt. eigenvalues --   -0.04507  -0.02217  -0.01531   0.00019   0.00321
 Alpha virt. eigenvalues --    0.00537   0.01601   0.02108   0.02510   0.03053
 Alpha virt. eigenvalues --    0.03481   0.03926   0.05322   0.05735   0.05821
 Alpha virt. eigenvalues --    0.06136   0.07092   0.07238   0.07397   0.07627
 Alpha virt. eigenvalues --    0.08154   0.08806   0.09125   0.09201   0.09564
 Alpha virt. eigenvalues --    0.10153   0.10324   0.10472   0.10764   0.10976
 Alpha virt. eigenvalues --    0.11294   0.11571   0.11700   0.11915   0.12174
 Alpha virt. eigenvalues --    0.12637   0.13115   0.13316   0.13489   0.13714
 Alpha virt. eigenvalues --    0.14861   0.15073   0.15857   0.15954   0.16001
 Alpha virt. eigenvalues --    0.16321   0.16670   0.17283   0.17734   0.17782
 Alpha virt. eigenvalues --    0.18377   0.18629   0.19156   0.19775   0.20023
 Alpha virt. eigenvalues --    0.20553   0.21095   0.21309   0.21559   0.22166
 Alpha virt. eigenvalues --    0.22237   0.22307   0.22739   0.23490   0.23744
 Alpha virt. eigenvalues --    0.24474   0.24751   0.25090   0.25546   0.25976
 Alpha virt. eigenvalues --    0.26184   0.26299   0.26567   0.26846   0.26928
 Alpha virt. eigenvalues --    0.27109   0.27322   0.28268   0.28359   0.28767
 Alpha virt. eigenvalues --    0.29398   0.29572   0.29736   0.29959   0.30257
 Alpha virt. eigenvalues --    0.30998   0.31183   0.31455   0.31844   0.32407
 Alpha virt. eigenvalues --    0.32925   0.33272   0.33867   0.34137   0.34369
 Alpha virt. eigenvalues --    0.34571   0.35070   0.35500   0.35832   0.36386
 Alpha virt. eigenvalues --    0.36630   0.37165   0.37631   0.38043   0.38450
 Alpha virt. eigenvalues --    0.38848   0.39058   0.39979   0.40428   0.40803
 Alpha virt. eigenvalues --    0.41395   0.42010   0.42646   0.43061   0.43327
 Alpha virt. eigenvalues --    0.43861   0.44353   0.45226   0.45951   0.46107
 Alpha virt. eigenvalues --    0.46795   0.46964   0.47582   0.48426   0.48775
 Alpha virt. eigenvalues --    0.49789   0.49945   0.50352   0.50473   0.50904
 Alpha virt. eigenvalues --    0.52066   0.52460   0.52687   0.53230   0.53612
 Alpha virt. eigenvalues --    0.54446   0.54855   0.55158   0.56055   0.56191
 Alpha virt. eigenvalues --    0.56381   0.57190   0.58085   0.58526   0.59176
 Alpha virt. eigenvalues --    0.59805   0.59978   0.60896   0.61582   0.61945
 Alpha virt. eigenvalues --    0.62649   0.63672   0.63831   0.64264   0.64499
 Alpha virt. eigenvalues --    0.64880   0.65800   0.66524   0.66945   0.67145
 Alpha virt. eigenvalues --    0.67606   0.68097   0.68990   0.69149   0.69342
 Alpha virt. eigenvalues --    0.69628   0.70189   0.70553   0.70934   0.71224
 Alpha virt. eigenvalues --    0.71660   0.71863   0.72514   0.72933   0.74273
 Alpha virt. eigenvalues --    0.74576   0.75713   0.76268   0.76472   0.77358
 Alpha virt. eigenvalues --    0.78197   0.78711   0.79304   0.79527   0.80747
 Alpha virt. eigenvalues --    0.80973   0.81571   0.82516   0.83192   0.83445
 Alpha virt. eigenvalues --    0.84100   0.84304   0.84817   0.86191   0.86322
 Alpha virt. eigenvalues --    0.87312   0.88201   0.88851   0.90075   0.90707
 Alpha virt. eigenvalues --    0.91406   0.91848   0.93121   0.93500   0.94379
 Alpha virt. eigenvalues --    0.94790   0.96549   0.96655   0.97406   0.98664
 Alpha virt. eigenvalues --    0.99554   1.00939   1.01522   1.02787   1.02914
 Alpha virt. eigenvalues --    1.03467   1.04352   1.05393   1.06926   1.07485
 Alpha virt. eigenvalues --    1.08635   1.09352   1.09929   1.11194   1.11841
 Alpha virt. eigenvalues --    1.12780   1.13633   1.14716   1.15051   1.16739
 Alpha virt. eigenvalues --    1.18070   1.18725   1.18891   1.19228   1.20137
 Alpha virt. eigenvalues --    1.20511   1.21899   1.22630   1.23462   1.24282
 Alpha virt. eigenvalues --    1.24890   1.25679   1.26942   1.28763   1.29370
 Alpha virt. eigenvalues --    1.30069   1.31225   1.31773   1.32846   1.34206
 Alpha virt. eigenvalues --    1.35132   1.37567   1.38038   1.38795   1.39336
 Alpha virt. eigenvalues --    1.40221   1.42334   1.42712   1.43273   1.44015
 Alpha virt. eigenvalues --    1.45096   1.46327   1.47399   1.48445   1.48642
 Alpha virt. eigenvalues --    1.49004   1.50300   1.50670   1.52243   1.53132
 Alpha virt. eigenvalues --    1.53580   1.54892   1.55914   1.56611   1.57615
 Alpha virt. eigenvalues --    1.59089   1.59629   1.59845   1.60412   1.62029
 Alpha virt. eigenvalues --    1.63099   1.64048   1.64352   1.65997   1.67206
 Alpha virt. eigenvalues --    1.68114   1.69230   1.69561   1.71580   1.72526
 Alpha virt. eigenvalues --    1.72681   1.73967   1.74203   1.75516   1.76856
 Alpha virt. eigenvalues --    1.77132   1.77900   1.78643   1.80812   1.81418
 Alpha virt. eigenvalues --    1.82205   1.82722   1.83675   1.85045   1.85284
 Alpha virt. eigenvalues --    1.85686   1.87423   1.89086   1.90486   1.91445
 Alpha virt. eigenvalues --    1.92381   1.92917   1.94753   1.95200   1.96336
 Alpha virt. eigenvalues --    1.96971   1.97988   1.99737   2.00625   2.01794
 Alpha virt. eigenvalues --    2.03051   2.03452   2.04934   2.05705   2.06376
 Alpha virt. eigenvalues --    2.07901   2.08082   2.09466   2.09977   2.10474
 Alpha virt. eigenvalues --    2.11231   2.12998   2.13689   2.14931   2.16287
 Alpha virt. eigenvalues --    2.17129   2.17849   2.18743   2.20233   2.22462
 Alpha virt. eigenvalues --    2.23275   2.24419   2.25136   2.26998   2.27736
 Alpha virt. eigenvalues --    2.28467   2.31812   2.33008   2.33326   2.35614
 Alpha virt. eigenvalues --    2.36972   2.38143   2.39265   2.40603   2.41794
 Alpha virt. eigenvalues --    2.43304   2.43854   2.46515   2.47041   2.47561
 Alpha virt. eigenvalues --    2.48835   2.49092   2.51614   2.52189   2.54649
 Alpha virt. eigenvalues --    2.56313   2.56566   2.58045   2.59255   2.61361
 Alpha virt. eigenvalues --    2.63119   2.63458   2.66872   2.69176   2.69763
 Alpha virt. eigenvalues --    2.72824   2.73582   2.75164   2.76520   2.77814
 Alpha virt. eigenvalues --    2.79371   2.81855   2.83816   2.87522   2.89343
 Alpha virt. eigenvalues --    2.90664   2.91485   2.94882   2.96257   2.98583
 Alpha virt. eigenvalues --    3.00251   3.11237   3.14843   3.16577   3.20766
 Alpha virt. eigenvalues --    3.21671   3.28557   3.31919   3.34649   3.37114
 Alpha virt. eigenvalues --    3.39713   3.43002   3.43611   3.43984   3.45356
 Alpha virt. eigenvalues --    3.47012   3.49421   3.50027   3.50507   3.53853
 Alpha virt. eigenvalues --    3.54353   3.54879   3.56204   3.56852   3.59432
 Alpha virt. eigenvalues --    3.59662   3.61319   3.62869   3.65733   3.66888
 Alpha virt. eigenvalues --    3.67710   3.69684   3.72161   3.75330   3.75559
 Alpha virt. eigenvalues --    3.77194   3.83626   3.84398   3.90443   3.97440
 Alpha virt. eigenvalues --    4.05423   4.07340   4.12871   4.38417   4.55141
          Condensed to atoms (all electrons):
               1          2          3          4          5          6
     1  C   11.105372  -3.082777  -0.223301   0.022129   0.243472  -0.074009
     2  C   -3.082777   9.207917  -1.613687  -0.381681  -0.934312  -0.143723
     3  C   -0.223301  -1.613687  11.841703   0.256227   0.178772  -0.103266
     4  O    0.022129  -0.381681   0.256227   8.678091  -0.184355   0.016891
     5  H    0.243472  -0.934312   0.178772  -0.184355   2.504622   0.021439
     6  O   -0.074009  -0.143723  -0.103266   0.016891   0.021439   9.497639
     7  H   -0.184765   0.228377  -0.523630  -0.039325   0.159636  -0.213443
     8  N    0.320107   0.318429  -1.195323   0.003225  -0.235267  -0.088424
     9  C   -2.099979   0.895507  -3.081147   0.023658  -0.177277   0.168344
    10  H   -1.354071   0.741646   0.167574   0.003340  -0.130078   0.015969
    11  O   -0.634396   0.295132  -0.089325  -0.020493  -0.011501   0.001852
    12  C   -0.016763  -0.124074   0.392003  -0.013804   0.058783  -0.075579
    13  H    0.259573   0.095785   0.437188  -0.002749  -0.002712  -0.224170
    14  O    0.027741  -0.014837  -0.046531   0.004015  -0.012377  -0.015423
    15  H    0.045195  -0.009882   0.065467  -0.001256   0.015543   0.076424
    16  H    0.099287  -0.024201  -0.080110  -0.000423  -0.005643  -0.019746
    17  H    0.229807  -0.253219   0.024446   0.056755   0.032876   0.005208
    18  H    0.013245   0.025591  -0.063527   0.306828  -0.015373  -0.001385
    19  H   -0.012373  -0.002932  -0.010687   0.000043  -0.001226  -0.006211
    20  C    0.093545  -0.135999  -1.163781  -0.001366   0.046405   0.232259
    21  C   -0.047230   0.127141  -0.181603   0.005166  -0.049135  -0.025123
    22  C    0.007642  -0.026508  -0.134119  -0.002999   0.015121   0.000490
    23  N    0.029972   0.015829  -0.116554  -0.008863   0.003528   0.005898
    24  C   -0.196238   0.021201   0.101323   0.015991   0.057499  -0.080915
    25  H    0.166994  -0.189400   0.170374   0.002265  -0.007717  -0.160511
    26  H   -0.003334  -0.000134   0.018521   0.000257  -0.000793  -0.001361
    27  H   -0.000378  -0.004792   0.003178   0.000197   0.001296  -0.000064
    28  O   -0.000633   0.001579   0.002170  -0.000004   0.000412   0.000608
    29  O    0.026368  -0.002272   0.122934  -0.054427   0.007522  -0.003704
               7          8          9         10         11         12
     1  C   -0.184765   0.320107  -2.099979  -1.354071  -0.634396  -0.016763
     2  C    0.228377   0.318429   0.895507   0.741646   0.295132  -0.124074
     3  C   -0.523630  -1.195323  -3.081147   0.167574  -0.089325   0.392003
     4  O   -0.039325   0.003225   0.023658   0.003340  -0.020493  -0.013804
     5  H    0.159636  -0.235267  -0.177277  -0.130078  -0.011501   0.058783
     6  O   -0.213443  -0.088424   0.168344   0.015969   0.001852  -0.075579
     7  H    2.192681  -0.326148   0.004112   0.008418   0.018895   0.034738
     8  N   -0.326148   8.460097   0.384927  -0.024567   0.008149  -0.053683
     9  C    0.004112   0.384927  10.535130  -0.020659   0.258393  -0.442502
    10  H    0.008418  -0.024567  -0.020659   2.148329  -0.048505  -0.070185
    11  O    0.018895   0.008149   0.258393  -0.048505   8.755688  -0.015301
    12  C    0.034738  -0.053683  -0.442502  -0.070185  -0.015301   5.007724
    13  H    0.015994  -0.044472  -1.057434   0.037211  -0.050429  -0.004298
    14  O    0.001773   0.022394  -0.168862   0.025677   0.005674   0.197641
    15  H   -0.000110   0.004402  -0.213435  -0.040019   0.005144   0.167730
    16  H    0.002883   0.004884  -0.016390   0.029267   0.000235   0.031483
    17  H    0.007828  -0.002707  -0.087654  -0.046716   0.271569   0.007281
    18  H    0.019387  -0.015502   0.011082   0.001923  -0.002396   0.000186
    19  H   -0.000711   0.001071   0.085681  -0.007228  -0.000040  -0.082500
    20  C   -0.069188   0.221958   0.300206  -0.010266   0.004403  -0.106349
    21  C   -0.030614  -0.218091   0.161918  -0.000127  -0.000362  -0.031878
    22  C    0.003970  -0.158705  -0.019201  -0.000577   0.000292  -0.000837
    23  N   -0.006752   0.014033   0.009773   0.000659   0.000125  -0.003210
    24  C    0.171039  -0.375873  -0.208970   0.002683   0.014316   0.025568
    25  H    0.016123  -0.023299  -0.181120  -0.000353  -0.002568   0.053236
    26  H   -0.001403   0.052269   0.002398   0.000037   0.000037  -0.000530
    27  H    0.003019   0.063012  -0.001765  -0.000137   0.000045   0.000334
    28  O    0.000112  -0.006718   0.000641  -0.000030   0.000001  -0.000012
    29  O    0.038308  -0.178737   0.007255   0.001210  -0.000878  -0.000830
              13         14         15         16         17         18
     1  C    0.259573   0.027741   0.045195   0.099287   0.229807   0.013245
     2  C    0.095785  -0.014837  -0.009882  -0.024201  -0.253219   0.025591
     3  C    0.437188  -0.046531   0.065467  -0.080110   0.024446  -0.063527
     4  O   -0.002749   0.004015  -0.001256  -0.000423   0.056755   0.306828
     5  H   -0.002712  -0.012377   0.015543  -0.005643   0.032876  -0.015373
     6  O   -0.224170  -0.015423   0.076424  -0.019746   0.005208  -0.001385
     7  H    0.015994   0.001773  -0.000110   0.002883   0.007828   0.019387
     8  N   -0.044472   0.022394   0.004402   0.004884  -0.002707  -0.015502
     9  C   -1.057434  -0.168862  -0.213435  -0.016390  -0.087654   0.011082
    10  H    0.037211   0.025677  -0.040019   0.029267  -0.046716   0.001923
    11  O   -0.050429   0.005674   0.005144   0.000235   0.271569  -0.002396
    12  C   -0.004298   0.197641   0.167730   0.031483   0.007281   0.000186
    13  H    2.111210   0.041315  -0.095128  -0.026746  -0.011518   0.001015
    14  O    0.041315   8.335819  -0.169076   0.001692  -0.000312  -0.000428
    15  H   -0.095128  -0.169076   1.776294  -0.294620   0.002856  -0.000711
    16  H   -0.026746   0.001692  -0.294620   1.617275   0.000420   0.000031
    17  H   -0.011518  -0.000312   0.002856   0.000420   0.564728  -0.007239
    18  H    0.001015  -0.000428  -0.000711   0.000031  -0.007239   0.530655
    19  H    0.003620   0.359533  -0.006618  -0.049968  -0.000111   0.000208
    20  C   -0.044834   0.002107  -0.015732   0.047063   0.004942  -0.023318
    21  C    0.001430  -0.014087   0.001077  -0.006825  -0.002072   0.015559
    22  C   -0.000716   0.006952   0.000281   0.000467   0.000780  -0.007050
    23  N    0.000016  -0.000503  -0.000043  -0.000384   0.001150  -0.004760
    24  C    0.001330   0.010585   0.003114  -0.000356   0.001094   0.004030
    25  H   -0.003351   0.004680   0.004547   0.011249   0.000832  -0.000568
    26  H    0.000001   0.001528  -0.000149  -0.000130  -0.000072  -0.000198
    27  H   -0.000093   0.000324   0.000037   0.000022   0.000086  -0.001046
    28  O    0.000009  -0.000146   0.000001  -0.000021  -0.000010   0.000341
    29  O    0.000307  -0.001021  -0.000027  -0.000077  -0.000136   0.028762
              19         20         21         22         23         24
     1  C   -0.012373   0.093545  -0.047230   0.007642   0.029972  -0.196238
     2  C   -0.002932  -0.135999   0.127141  -0.026508   0.015829   0.021201
     3  C   -0.010687  -1.163781  -0.181603  -0.134119  -0.116554   0.101323
     4  O    0.000043  -0.001366   0.005166  -0.002999  -0.008863   0.015991
     5  H   -0.001226   0.046405  -0.049135   0.015121   0.003528   0.057499
     6  O   -0.006211   0.232259  -0.025123   0.000490   0.005898  -0.080915
     7  H   -0.000711  -0.069188  -0.030614   0.003970  -0.006752   0.171039
     8  N    0.001071   0.221958  -0.218091  -0.158705   0.014033  -0.375873
     9  C    0.085681   0.300206   0.161918  -0.019201   0.009773  -0.208970
    10  H   -0.007228  -0.010266  -0.000127  -0.000577   0.000659   0.002683
    11  O   -0.000040   0.004403  -0.000362   0.000292   0.000125   0.014316
    12  C   -0.082500  -0.106349  -0.031878  -0.000837  -0.003210   0.025568
    13  H    0.003620  -0.044834   0.001430  -0.000716   0.000016   0.001330
    14  O    0.359533   0.002107  -0.014087   0.006952  -0.000503   0.010585
    15  H   -0.006618  -0.015732   0.001077   0.000281  -0.000043   0.003114
    16  H   -0.049968   0.047063  -0.006825   0.000467  -0.000384  -0.000356
    17  H   -0.000111   0.004942  -0.002072   0.000780   0.001150   0.001094
    18  H    0.000208  -0.023318   0.015559  -0.007050  -0.004760   0.004030
    19  H    0.559961  -0.004787   0.005910  -0.001350   0.000104  -0.001690
    20  C   -0.004787   9.396235  -2.223493   0.180291   0.247189  -1.326743
    21  C    0.005910  -2.223493   9.448500  -1.685952  -0.056300   0.577638
    22  C   -0.001350   0.180291  -1.685952   7.623599   0.239305  -0.404930
    23  N    0.000104   0.247189  -0.056300   0.239305   7.168945  -0.355387
    24  C   -0.001690  -1.326743   0.577638  -0.404930  -0.355387   7.261298
    25  H    0.000934  -0.745729  -0.049542  -0.138624   0.021416   0.018334
    26  H    0.000019   0.459005  -0.865985   0.218061  -0.059619  -0.039521
    27  H   -0.000048  -0.038600   0.028044  -0.163816   0.432112  -0.281247
    28  O   -0.000014   0.078775  -0.103020   0.140174  -0.115260   0.041829
    29  O   -0.000010  -0.068835   0.032837  -0.025727  -0.282552   0.348195
              25         26         27         28         29
     1  C    0.166994  -0.003334  -0.000378  -0.000633   0.026368
     2  C   -0.189400  -0.000134  -0.004792   0.001579  -0.002272
     3  C    0.170374   0.018521   0.003178   0.002170   0.122934
     4  O    0.002265   0.000257   0.000197  -0.000004  -0.054427
     5  H   -0.007717  -0.000793   0.001296   0.000412   0.007522
     6  O   -0.160511  -0.001361  -0.000064   0.000608  -0.003704
     7  H    0.016123  -0.001403   0.003019   0.000112   0.038308
     8  N   -0.023299   0.052269   0.063012  -0.006718  -0.178737
     9  C   -0.181120   0.002398  -0.001765   0.000641   0.007255
    10  H   -0.000353   0.000037  -0.000137  -0.000030   0.001210
    11  O   -0.002568   0.000037   0.000045   0.000001  -0.000878
    12  C    0.053236  -0.000530   0.000334  -0.000012  -0.000830
    13  H   -0.003351   0.000001  -0.000093   0.000009   0.000307
    14  O    0.004680   0.001528   0.000324  -0.000146  -0.001021
    15  H    0.004547  -0.000149   0.000037   0.000001  -0.000027
    16  H    0.011249  -0.000130   0.000022  -0.000021  -0.000077
    17  H    0.000832  -0.000072   0.000086  -0.000010  -0.000136
    18  H   -0.000568  -0.000198  -0.001046   0.000341   0.028762
    19  H    0.000934   0.000019  -0.000048  -0.000014  -0.000010
    20  C   -0.745729   0.459005  -0.038600   0.078775  -0.068835
    21  C   -0.049542  -0.865985   0.028044  -0.103020   0.032837
    22  C   -0.138624   0.218061  -0.163816   0.140174  -0.025727
    23  N    0.021416  -0.059619   0.432112  -0.115260  -0.282552
    24  C    0.018334  -0.039521  -0.281247   0.041829   0.348195
    25  H    2.972601  -0.219972  -0.001205   0.002898   0.000141
    26  H   -0.219972   2.056248   0.011037  -0.022649   0.001170
    27  H   -0.001205   0.011037   1.106463  -0.051289   0.000280
    28  O    0.002898  -0.022649  -0.051289   8.697905  -0.001838
    29  O    0.000141   0.001170   0.000280  -0.001838   8.699607
 Mulliken charges:
               1
     1  C    1.239798
     2  C    0.970295
     3  C    0.844709
     4  O   -0.683332
     5  H   -0.579164
     6  O   -0.805963
     7  H   -0.531203
     8  N    0.068559
     9  C    0.927366
    10  H   -0.430427
    11  O   -0.763754
    12  C    1.065627
    13  H   -0.437356
    14  O   -0.605847
    15  H   -0.321305
    16  H   -0.320622
    17  H    0.199110
    18  H    0.184658
    19  H    0.171417
    20  C    0.664632
    21  C    1.186220
    22  C    0.333687
    23  N   -0.179866
    24  C    0.594803
    25  H   -0.722667
    26  H   -0.604737
    27  H   -0.105004
    28  O   -0.665810
    29  O   -0.693825
 Sum of Mulliken charges =  -0.00000
 Mulliken charges with hydrogens summed into heavy atoms:
               1
     1  C    0.809371
     2  C    0.391131
     3  C    0.313507
     4  O   -0.498674
     6  O   -0.805963
     8  N    0.068559
     9  C    0.490010
    11  O   -0.564645
    12  C    0.423700
    14  O   -0.434430
    20  C   -0.058035
    21  C    0.581483
    22  C    0.333687
    23  N   -0.284870
    24  C    0.594803
    28  O   -0.665810
    29  O   -0.693825
 Electronic spatial extent (au):  <R**2>=           4081.5513
 Charge=             -0.0000 electrons
 Dipole moment (field-independent basis, Debye):
    X=             -3.0914    Y=              3.6107    Z=              0.5385  Tot=              4.7837
 Quadrupole moment (field-independent basis, Debye-Ang):
   XX=           -118.2370   YY=            -91.4544   ZZ=            -99.7704
   XY=            -15.0898   XZ=             -5.3910   YZ=              1.9376
 Traceless Quadrupole moment (field-independent basis, Debye-Ang):
   XX=            -15.0831   YY=             11.6996   ZZ=              3.3835
   XY=            -15.0898   XZ=             -5.3910   YZ=              1.9376
 Octapole moment (field-independent basis, Debye-Ang**2):
  XXX=           -132.7201  YYY=             44.1211  ZZZ=              8.5841  XYY=            -14.9932
  XXY=            -10.3178  XXZ=              5.1015  XZZ=             -2.2517  YZZ=              3.1656
  YYZ=             10.1395  XYZ=             -8.6273
 Hexadecapole moment (field-independent basis, Debye-Ang**3):
 XXXX=          -4345.9432 YYYY=          -1137.3671 ZZZZ=           -344.6995 XXXY=           -292.1540
 XXXZ=            -98.4439 YYYX=            -27.6152 YYYZ=             55.1749 ZZZX=             -0.1052
 ZZZY=             29.1751 XXYY=           -728.8028 XXZZ=           -653.2109 YYZZ=           -248.5003
 XXYZ=            -24.9973 YYXZ=            -19.7742 ZZXY=            -27.4027
 N-N= 1.332977050300D+03 E-N=-4.797430014907D+03  KE= 9.051699278306D+02
 Calling FoFJK, ICntrl=      2127 FMM=F ISym2X=0 I1Cent= 0 IOpClX= 0 NMat=1 NMatS=1 NMatT=0.
 ***** Axes restored to original set *****
 -------------------------------------------------------------------
 Center     Atomic                   Forces (Hartrees/Bohr)
 Number     Number              X              Y              Z
 -------------------------------------------------------------------
      1        6          -0.008620961   -0.011018637   -0.021420762
      2        6           0.009029722   -0.016444368   -0.004247847
      3        6          -0.011347849    0.004759691   -0.008188968
      4        8           0.000352703    0.014109456    0.002902418
      5        1          -0.000442919    0.006742820    0.002499043
      6        8           0.014506222   -0.022994537    0.006565451
      7        1           0.001927351   -0.003373537    0.000345794
      8        7           0.003350641    0.006179373    0.002608140
      9        6           0.005266656    0.006680650    0.015951005
     10        1           0.000323824    0.003893542    0.008312692
     11        8           0.008101175   -0.000449469    0.008516175
     12        6           0.003638168   -0.001834131    0.003320196
     13        1          -0.002087900   -0.002034177   -0.000280554
     14        8           0.000192700    0.002611245    0.006172001
     15        1          -0.007333674   -0.000605583   -0.005036936
     16        1          -0.003020336    0.004297093   -0.007145995
     17        1          -0.004458713    0.011741852   -0.000814439
     18        1          -0.009445665    0.002092544   -0.000974514
     19        1           0.005082962   -0.007873113   -0.010216341
     20        6          -0.009389186    0.000075522   -0.001708606
     21        6           0.017597560   -0.015053896   -0.003479094
     22        6           0.004292752    0.044089647    0.024270872
     23        7          -0.007516646   -0.004241227   -0.006519840
     24        6          -0.006836992   -0.005029179   -0.000423337
     25        1          -0.004768198   -0.005881822   -0.004264798
     26        1           0.000163716    0.001921772    0.000977375
     27        1           0.002179335   -0.004904768   -0.001396709
     28        8           0.001924757   -0.011746972   -0.005878697
     29        8          -0.002661206    0.004290209   -0.000443724
 -------------------------------------------------------------------
 Cartesian Forces:  Max     0.044089647 RMS     0.009149651

 GradGradGradGradGradGradGradGradGradGradGradGradGradGradGradGradGradGrad
 Berny optimization.
 FormGI is forming the generalized inverse of G from B-inverse, IUseBI=4.
 Internal  Forces:  Max     0.021652055 RMS     0.005443515
 Search for a local minimum.
 Step number   1 out of a maximum of  173
 All quantities printed in internal units (Hartrees-Bohrs-Radians)
 Mixed Optimization -- RFO/linear search
 Second derivative matrix not updated -- first step.
 ITU=  0
     Eigenvalues ---    0.00337   0.00572   0.00732   0.00794   0.01181
     Eigenvalues ---    0.01240   0.01351   0.01449   0.01594   0.01790
     Eigenvalues ---    0.01972   0.01997   0.02094   0.02140   0.02340
     Eigenvalues ---    0.02537   0.03114   0.03681   0.04300   0.04844
     Eigenvalues ---    0.04952   0.05101   0.05327   0.05600   0.05706
     Eigenvalues ---    0.06104   0.06531   0.06856   0.07690   0.08179
     Eigenvalues ---    0.09925   0.11614   0.13184   0.13880   0.15996
     Eigenvalues ---    0.16000   0.16000   0.16000   0.16000   0.16000
     Eigenvalues ---    0.16282   0.16869   0.18130   0.20131   0.22084
     Eigenvalues ---    0.22359   0.23436   0.24608   0.24988   0.24998
     Eigenvalues ---    0.24999   0.26269   0.28905   0.29199   0.29586
     Eigenvalues ---    0.33905   0.34165   0.34255   0.34261   0.34296
     Eigenvalues ---    0.34383   0.34913   0.35280   0.35828   0.35998
     Eigenvalues ---    0.36821   0.38037   0.39781   0.40403   0.41602
     Eigenvalues ---    0.45431   0.46324   0.46346   0.49734   0.50636
     Eigenvalues ---    0.51086   0.51467   0.52538   0.56988   0.90690
     Eigenvalues ---    0.93284
 RFO step:  Lambda=-1.93830634D-02 EMin= 3.36806534D-03
 Linear search not attempted -- first point.
 Iteration  1 RMS(Cart)=  0.10487686 RMS(Int)=  0.00251853
 Iteration  2 RMS(Cart)=  0.00461074 RMS(Int)=  0.00044393
 Iteration  3 RMS(Cart)=  0.00000829 RMS(Int)=  0.00044390
 Iteration  4 RMS(Cart)=  0.00000000 RMS(Int)=  0.00044390
 Variable       Old X    -DE/DX   Delta X   Delta X   Delta X     New X
                                 (Linear)    (Quad)   (Total)
    R1        2.86474   0.00232   0.00000   0.01328   0.01303   2.87777
    R2        2.88096  -0.00559   0.00000  -0.02024  -0.02004   2.86092
    R3        2.06688   0.00383   0.00000   0.01054   0.01054   2.07742
    R4        2.71852  -0.01211   0.00000  -0.02904  -0.02904   2.68949
    R5        2.90836  -0.00285   0.00000  -0.00880  -0.00880   2.89956
    R6        2.71010  -0.01756   0.00000  -0.04148  -0.04148   2.66862
    R7        2.06893   0.00252   0.00000   0.00697   0.00697   2.07590
    R8        2.71992  -0.02165   0.00000  -0.05278  -0.05281   2.66711
    R9        2.07491   0.00080   0.00000   0.00224   0.00224   2.07714
   R10        2.77384   0.00265   0.00000   0.00699   0.00699   2.78083
   R11        1.85929  -0.00919   0.00000  -0.01749  -0.01749   1.84180
   R12        2.73739  -0.00274   0.00000  -0.00945  -0.00936   2.72803
   R13        2.61143  -0.00369   0.00000  -0.00841  -0.00843   2.60300
   R14        2.62311  -0.01090   0.00000  -0.02334  -0.02341   2.59970
   R15        2.89590  -0.01250   0.00000  -0.04013  -0.04013   2.85576
   R16        2.07052   0.00100   0.00000   0.00278   0.00278   2.07331
   R17        1.85485  -0.01234   0.00000  -0.02327  -0.02327   1.83158
   R18        2.69433   0.00203   0.00000   0.00465   0.00465   2.69899
   R19        2.06834   0.00560   0.00000   0.01546   0.01546   2.08379
   R20        2.06902   0.00445   0.00000   0.01229   0.01229   2.08131
   R21        1.84087  -0.01366   0.00000  -0.02508  -0.02508   1.81580
   R22        2.52224   0.01718   0.00000   0.02859   0.02863   2.55087
   R23        2.05223  -0.00003   0.00000  -0.00007  -0.00007   2.05216
   R24        2.77751  -0.01052   0.00000  -0.02613  -0.02607   2.75144
   R25        2.04351   0.00216   0.00000   0.00571   0.00571   2.04922
   R26        2.57736   0.02148   0.00000   0.04070   0.04072   2.61807
   R27        2.31456  -0.00339   0.00000  -0.00356  -0.00356   2.31099
   R28        2.58624   0.00521   0.00000   0.00968   0.00964   2.59588
   R29        1.90443   0.00489   0.00000   0.01012   0.01012   1.91456
   R30        2.32616  -0.00342   0.00000  -0.00369  -0.00369   2.32247
    A1        1.80930  -0.00363   0.00000  -0.01316  -0.01332   1.79599
    A2        1.98059  -0.00010   0.00000  -0.01279  -0.01374   1.96685
    A3        1.90234   0.00347   0.00000   0.02116   0.02058   1.92292
    A4        1.99273  -0.00092   0.00000  -0.02255  -0.02280   1.96993
    A5        1.91225  -0.00247   0.00000  -0.03141  -0.03099   1.88126
    A6        1.86532   0.00358   0.00000   0.05674   0.05657   1.92189
    A7        1.77518   0.00034   0.00000   0.00728   0.00709   1.78227
    A8        1.91326  -0.00041   0.00000  -0.01886  -0.01860   1.89465
    A9        1.94245  -0.00197   0.00000  -0.01167  -0.01185   1.93061
   A10        1.99861  -0.00122   0.00000  -0.00454  -0.00463   1.99398
   A11        1.94193  -0.00115   0.00000  -0.02499  -0.02495   1.91698
   A12        1.89102   0.00398   0.00000   0.04812   0.04820   1.93922
   A13        1.88091  -0.00198   0.00000  -0.01873  -0.01883   1.86208
   A14        1.92026  -0.00261   0.00000   0.00154   0.00110   1.92136
   A15        1.97113   0.00889   0.00000   0.03181   0.03010   2.00123
   A16        1.87623   0.00395   0.00000   0.03913   0.03953   1.91575
   A17        1.94152  -0.00920   0.00000  -0.07741  -0.07683   1.86469
   A18        1.87181   0.00079   0.00000   0.02496   0.02492   1.89673
   A19        1.86163  -0.00249   0.00000  -0.01388  -0.01388   1.84775
   A20        1.89384   0.00770   0.00000   0.03321   0.03332   1.92716
   A21        2.12353  -0.00324   0.00000  -0.00920  -0.00917   2.11436
   A22        2.04259   0.00242   0.00000   0.01182   0.01185   2.05444
   A23        2.11699   0.00082   0.00000  -0.00253  -0.00261   2.11437
   A24        1.87168  -0.00356   0.00000  -0.01659  -0.01663   1.85505
   A25        1.98026   0.00342   0.00000   0.01391   0.01421   1.99447
   A26        1.94580  -0.00189   0.00000  -0.02132  -0.02155   1.92425
   A27        1.89738   0.00108   0.00000   0.01518   0.01502   1.91240
   A28        1.86440   0.00217   0.00000   0.01298   0.01281   1.87721
   A29        1.90006  -0.00120   0.00000  -0.00319  -0.00317   1.89689
   A30        1.82545   0.00086   0.00000   0.00480   0.00480   1.83025
   A31        1.94698  -0.01399   0.00000  -0.05591  -0.05570   1.89128
   A32        1.92497  -0.00185   0.00000  -0.02701  -0.02670   1.89827
   A33        1.92136  -0.00234   0.00000  -0.02956  -0.02922   1.89214
   A34        1.88588   0.00930   0.00000   0.05725   0.05596   1.94185
   A35        1.87769   0.00961   0.00000   0.06011   0.05880   1.93649
   A36        1.90572  -0.00009   0.00000  -0.00062  -0.00296   1.90276
   A37        1.86461   0.00433   0.00000   0.02414   0.02414   1.88875
   A38        2.13080   0.00243   0.00000   0.00707   0.00710   2.13791
   A39        2.05457  -0.01013   0.00000  -0.05325  -0.05327   2.00130
   A40        2.09781   0.00770   0.00000   0.04618   0.04615   2.14396
   A41        2.07546   0.00293   0.00000   0.01421   0.01432   2.08978
   A42        2.15150  -0.00161   0.00000  -0.00791  -0.00798   2.14352
   A43        2.05623  -0.00132   0.00000  -0.00630  -0.00637   2.04986
   A44        2.01976  -0.01127   0.00000  -0.03813  -0.03802   1.98174
   A45        2.11526   0.02049   0.00000   0.07421   0.07415   2.18941
   A46        2.14815  -0.00922   0.00000  -0.03607  -0.03612   2.11203
   A47        2.19733   0.00662   0.00000   0.02842   0.02841   2.22574
   A48        2.04191  -0.00086   0.00000  -0.00054  -0.00054   2.04137
   A49        2.04370  -0.00577   0.00000  -0.02796  -0.02797   2.01573
   A50        2.02553  -0.00156   0.00000  -0.00949  -0.00976   2.01578
   A51        2.15428  -0.00316   0.00000  -0.00952  -0.00965   2.14463
   A52        2.10301   0.00476   0.00000   0.01989   0.01975   2.12276
    D1       -0.56903  -0.00132   0.00000  -0.01410  -0.01409  -0.58312
    D2       -2.69103   0.00010   0.00000  -0.00410  -0.00402  -2.69506
    D3        1.50050  -0.00334   0.00000  -0.04435  -0.04431   1.45618
    D4       -2.74041   0.00239   0.00000   0.03059   0.03033  -2.71007
    D5        1.42078   0.00381   0.00000   0.04059   0.04039   1.46117
    D6       -0.67088   0.00037   0.00000   0.00033   0.00010  -0.67077
    D7        1.46647  -0.00445   0.00000  -0.04740  -0.04747   1.41900
    D8       -0.65553  -0.00303   0.00000  -0.03740  -0.03741  -0.69294
    D9       -2.74719  -0.00647   0.00000  -0.07765  -0.07770  -2.82489
   D10        0.46840   0.00137   0.00000   0.01877   0.01854   0.48694
   D11       -1.62697   0.00036   0.00000   0.00262   0.00255  -1.62442
   D12        2.50348   0.00083   0.00000   0.01292   0.01291   2.51639
   D13        2.63187  -0.00185   0.00000  -0.01989  -0.02007   2.61180
   D14        0.53651  -0.00286   0.00000  -0.03605  -0.03606   0.50045
   D15       -1.61623  -0.00239   0.00000  -0.02574  -0.02570  -1.64193
   D16       -1.56013   0.00035   0.00000   0.01521   0.01500  -1.54513
   D17        2.62769  -0.00066   0.00000  -0.00094  -0.00100   2.62670
   D18        0.47496  -0.00019   0.00000   0.00937   0.00937   0.48432
   D19        0.70032   0.00115   0.00000  -0.02944  -0.02864   0.67168
   D20        2.66904  -0.00259   0.00000  -0.05021  -0.05001   2.61903
   D21       -1.44657  -0.00294   0.00000  -0.06083  -0.06183  -1.50840
   D22        0.49735   0.00025   0.00000  -0.00478  -0.00488   0.49246
   D23       -1.54342  -0.00192   0.00000  -0.04169  -0.04187  -1.58530
   D24        2.64897  -0.00700   0.00000  -0.09557  -0.09594   2.55304
   D25        2.55905  -0.00062   0.00000  -0.02498  -0.02492   2.53413
   D26        0.51828  -0.00278   0.00000  -0.06190  -0.06191   0.45637
   D27       -1.57251  -0.00786   0.00000  -0.11578  -0.11597  -1.68849
   D28       -1.57256   0.00286   0.00000   0.01596   0.01592  -1.55664
   D29        2.66986   0.00069   0.00000  -0.02096  -0.02107   2.64879
   D30        0.57907  -0.00438   0.00000  -0.07484  -0.07513   0.50394
   D31        2.78542  -0.00183   0.00000  -0.05688  -0.05674   2.72868
   D32        0.80379  -0.00127   0.00000  -0.05098  -0.05091   0.75288
   D33       -1.37493  -0.00201   0.00000  -0.05268  -0.05289  -1.42781
   D34       -0.21705   0.00109   0.00000   0.01841   0.01880  -0.19825
   D35        1.85216  -0.00092   0.00000   0.03122   0.03099   1.88315
   D36       -2.38663  -0.00270   0.00000   0.04193   0.04016  -2.34647
   D37       -1.92178   0.00224   0.00000   0.04506   0.04543  -1.87635
   D38        1.20660   0.00252   0.00000   0.05286   0.05320   1.25980
   D39        0.19588  -0.00074   0.00000  -0.01326  -0.01313   0.18275
   D40       -2.95893  -0.00046   0.00000  -0.00547  -0.00537  -2.96429
   D41        2.24297  -0.00057   0.00000   0.00627   0.00581   2.24878
   D42       -0.91184  -0.00029   0.00000   0.01406   0.01357  -0.89827
   D43       -0.15663  -0.00268   0.00000  -0.02697  -0.02758  -0.18421
   D44        1.99081  -0.00006   0.00000  -0.01122  -0.01172   1.97909
   D45       -2.24465   0.00025   0.00000  -0.00017  -0.00040  -2.24504
   D46       -3.13486   0.00071   0.00000   0.01655   0.01650  -3.11836
   D47        0.00698   0.00046   0.00000   0.01150   0.01160   0.01858
   D48        0.02051   0.00041   0.00000   0.00832   0.00836   0.02887
   D49       -3.12083   0.00016   0.00000   0.00327   0.00346  -3.11737
   D50        3.11971  -0.00083   0.00000  -0.02279  -0.02259   3.09712
   D51       -0.05065   0.00063   0.00000   0.01271   0.01252  -0.03813
   D52       -0.03505  -0.00058   0.00000  -0.01508  -0.01488  -0.04993
   D53        3.07778   0.00088   0.00000   0.02041   0.02023   3.09802
   D54        0.90505  -0.00015   0.00000   0.01188   0.01201   0.91706
   D55       -1.19085  -0.00143   0.00000  -0.00543  -0.00535  -1.19620
   D56        2.98827   0.00137   0.00000   0.03178   0.03200   3.02026
   D57       -1.17565   0.00144   0.00000   0.01357   0.01344  -1.16222
   D58        3.01163   0.00015   0.00000  -0.00374  -0.00393   3.00771
   D59        0.90756   0.00296   0.00000   0.03347   0.03342   0.94098
   D60        3.08266  -0.00108   0.00000  -0.00840  -0.00843   3.07423
   D61        0.98676  -0.00237   0.00000  -0.02571  -0.02579   0.96097
   D62       -1.11731   0.00044   0.00000   0.01150   0.01156  -1.10575
   D63        3.09360  -0.00001   0.00000   0.00189   0.00185   3.09545
   D64       -1.07082  -0.00487   0.00000  -0.02862  -0.03080  -1.10163
   D65        0.98468   0.00509   0.00000   0.03316   0.03537   1.02006
   D66        0.00086   0.00010   0.00000   0.00194   0.00198   0.00283
   D67        3.14055  -0.00013   0.00000  -0.00366  -0.00369   3.13686
   D68       -3.14099   0.00035   0.00000   0.00710   0.00727  -3.13373
   D69       -0.00130   0.00012   0.00000   0.00150   0.00160   0.00030
   D70       -0.00564  -0.00016   0.00000  -0.00382  -0.00378  -0.00942
   D71       -3.14017  -0.00016   0.00000  -0.00630  -0.00641   3.13661
   D72        3.13775   0.00006   0.00000   0.00148   0.00159   3.13934
   D73        0.00322   0.00006   0.00000  -0.00100  -0.00104   0.00219
   D74       -0.01143  -0.00016   0.00000  -0.00456  -0.00462  -0.01605
   D75       -3.12844   0.00008   0.00000   0.00021   0.00017  -3.12827
   D76        3.12295  -0.00002   0.00000  -0.00153  -0.00163   3.12132
   D77        0.00593   0.00021   0.00000   0.00323   0.00317   0.00910
   D78        0.03134   0.00060   0.00000   0.01404   0.01409   0.04543
   D79       -3.08240  -0.00068   0.00000  -0.01984  -0.02003  -3.10243
   D80       -3.13485   0.00042   0.00000   0.00961   0.00969  -3.12517
   D81        0.03460  -0.00085   0.00000  -0.02426  -0.02443   0.01016
         Item               Value     Threshold  Converged?
 Maximum Force            0.021652     0.000450     NO 
 RMS     Force            0.005444     0.000300     NO 
 Maximum Displacement     0.475170     0.001800     NO 
 RMS     Displacement     0.104510     0.001200     NO 
 Predicted change in Energy=-1.118280D-02
 GradGradGradGradGradGradGradGradGradGradGradGradGradGradGradGradGradGrad

                          Input orientation:                          
 ---------------------------------------------------------------------
 Center     Atomic      Atomic             Coordinates (Angstroms)
 Number     Number       Type             X           Y           Z
 ---------------------------------------------------------------------
      1          6           0       -3.750525   -1.706021    0.381378
      2          6           0       -2.276171   -2.021890    0.594856
      3          6           0       -1.588793   -0.878999   -0.163850
      4          8           0       -2.011555   -3.306728    0.071977
      5          1           0       -2.019670   -1.968383    1.661669
      6          8           0       -2.473473    0.220149   -0.129345
      7          1           0       -1.404344   -1.175097   -1.206201
      8          7           0       -0.320676   -0.424279    0.428249
      9          6           0       -3.770964   -0.192542    0.350472
     10          1           0       -4.392551   -2.125966    1.168756
     11          8           0       -4.172676   -2.172706   -0.895154
     12          6           0       -4.044263    0.452571    1.689455
     13          1           0       -4.518489    0.162533   -0.369848
     14          8           0       -3.124807   -0.082224    2.642593
     15          1           0       -5.087375    0.241886    1.978358
     16          1           0       -3.913826    1.541127    1.584228
     17          1           0       -3.714094   -3.018142   -1.014959
     18          1           0       -1.057593   -3.322135   -0.127116
     19          1           0       -3.272635    0.359364    3.483090
     20          6           0       -0.232068    0.786376    1.079266
     21          6           0        0.922815    1.241916    1.609221
     22          6           0        2.133948    0.441557    1.497341
     23          7           0        1.943791   -0.760445    0.835198
     24          6           0        0.771663   -1.252838    0.314942
     25          1           0       -1.162486    1.344343    1.127199
     26          1           0        0.999451    2.195955    2.118991
     27          1           0        2.751468   -1.364394    0.738476
     28          8           0        3.233202    0.753992    1.932738
     29          8           0        0.717966   -2.358287   -0.219418
 ---------------------------------------------------------------------
                    Distance matrix (angstroms):
                    1          2          3          4          5
     1  C    0.000000
     2  C    1.522848   0.000000
     3  C    2.377883   1.534382   0.000000
     4  O    2.383696   1.412173   2.475523   0.000000
     5  H    2.168834   1.098519   2.169086   2.078065   0.000000
     6  O    2.366819   2.364347   1.411374   3.562690   2.864148
     7  H    2.882161   2.172774   1.099177   2.558572   3.038520
     8  N    3.661820   2.530629   1.471554   3.360731   2.606178
     9  C    1.513933   2.375004   2.344701   3.587650   2.817780
    10  H    1.099326   2.195281   3.345420   2.875111   2.428654
    11  O    1.423215   2.416528   2.980761   2.625222   3.348810
    12  C    2.541037   3.232221   3.352186   4.569515   3.156069
    13  H    2.155366   3.275721   3.116143   4.302987   3.861601
    14  O    2.853303   2.945457   3.297016   4.271397   2.396068
    15  H    2.851641   3.865440   4.252707   5.068296   3.794259
    16  H    3.466625   4.044238   3.783988   5.422844   3.988795
    17  H    1.916441   2.377319   3.133246   2.040429   3.337275
    18  H    3.181552   1.922710   2.500487   0.974638   2.440899
    19  H    3.756969   3.873655   4.203456   5.163937   3.210281
    20  C    4.367910   3.507046   2.481837   4.575446   3.335179
    21  C    5.660215   4.681333   3.735001   5.627061   4.355111
    22  C    6.362742   5.131491   4.285116   5.767712   4.804931
    23  N    5.790104   4.411020   3.673051   4.765589   4.225068
    24  C    4.545325   3.155803   2.437365   3.467536   3.180758
    25  H    4.069264   3.585416   2.606106   4.844261   3.463319
    26  H    6.388035   5.553639   4.622306   6.598177   5.163908
    27  H    6.520747   5.072483   4.459558   5.186836   4.897024
    28  O    7.565105   6.312578   5.505812   6.889075   5.922623
    29  O    4.555636   3.121068   2.740897   2.904262   3.344423
                    6          7          8          9         10
     6  O    0.000000
     7  H    2.061400   0.000000
     8  N    2.315326   2.099878   0.000000
     9  C    1.443614   2.998255   3.458936   0.000000
    10  H    3.297300   3.933695   4.474847   2.189541   0.000000
    11  O    3.033070   2.958992   4.432414   2.373606   2.076116
[...]
 -0.02213428,-0.01338117,0.02429539,0.02560264,0.01655003,-0.13139237,0
 .04947221,-0.00315331,0.76734511,0.00032361,-0.00019571,-0.00030589,0.
 00125180,-0.00219450,-0.00103566,0.00130633,-0.00572031,-0.00455842,-0
 .00525232,0.00093314,0.00108353,0.00014501,0.00012820,0.00003123,0.001
 66141,0.00163575,0.00109873,-0.00036372,0.00005539,0.00084888,0.014113
 80,0.03235036,0.01471777,-0.00010791,-0.00037854,0.00028350,-0.0000660
 3,0.00002736,0.00003902,-0.00068403,0.00049783,0.00011702,-0.00022710,
 -0.00011179,-0.00022567,0.00012804,0.00013443,-0.00008315,0.00050091,0
 .00053850,0.00019423,0.00005982,-0.00000469,0.00003204,-0.00004475,0.0
 0011897,0.00003872,0.00074682,-0.00011364,0.00026851,0.00614813,0.0028
 7669,-0.00022474,-0.00022135,-0.00014396,0.00005954,-0.00641829,-0.017
 13179,-0.00947334,0.02057188,-0.03298188,-0.01258779,0.01616532,-0.203
 98605,-0.06413981,-0.13466942,0.64513708,0.00013488,-0.00019863,-0.000
 09426,-0.00007934,-0.00186435,-0.00149076,0.00099997,-0.00193115,0.002
 88821,-0.00367467,0.00070643,0.00087125,0.00004297,0.00010879,-0.00006
 699,-0.00018086,0.00068812,0.00049833,0.00066310,0.00000797,0.00034163
 ,-0.01631661,0.01595712,0.01191400,0.00013287,-0.00010143,-0.00018637,
 -0.00012212,-0.00000100,0.00004292,-0.00049551,0.00025231,0.00002307,-
 0.00022309,-0.00006321,-0.00028008,-0.00003935,0.00008205,0.00001830,0
 .00037263,0.00025428,0.00040538,0.00003663,-0.00001114,0.00005655,0.00
 000725,0.00005286,0.00003282,0.00048550,-0.00001516,0.00018495,0.00431
 749,0.00208185,0.00037361,-0.00020869,-0.00002371,-0.00002776,-0.00603
 058,-0.01450459,-0.00844563,0.01365841,-0.01109609,0.00934891,-0.01733
 078,-0.05195133,-0.08285684,0.16350484,0.21131367,0.20934968,-0.000564
 06,0.00094237,-0.00076008,0.00054344,-0.00337785,-0.00064711,-0.038872
 13,0.01544484,-0.00560179,-0.00455689,0.00217490,0.00106661,-0.0003081
 9,-0.00013397,0.00120548,0.00046413,-0.00273707,-0.00180144,0.00137779
 ,0.00160963,0.00023833,-0.21997441,0.04644573,-0.02946358,-0.00215665,
 0.00027449,0.00045858,0.00059543,-0.00000965,0.00000026,0.00103704,0.0
 0055266,0.00080366,-0.00016849,0.00022300,-0.00012719,0.00010982,-0.00
 010512,0.00008219,0.00042098,-0.00031819,-0.00074044,0.00017820,0.0000
 4577,-0.00010901,-0.00007904,-0.00007345,0.00004160,-0.00021123,-0.000
 46628,-0.00011273,0.00495434,-0.00090045,-0.00126047,0.00025285,-0.000
 08051,0.00022273,0.03262893,0.05472754,0.03523543,-0.03817916,0.003222
 00,-0.01136417,0.02328181,-0.08686285,-0.02709263,-0.26929894,0.001137
 46,-0.06427514,0.63461260,-0.00103311,-0.00016823,0.00214749,-0.008064
 48,0.01090950,0.00154817,0.01299767,0.02091864,0.01770274,0.01678071,-
 0.00611081,-0.00308735,-0.00036576,0.00000018,0.00002780,-0.00942301,-
 0.00246278,-0.00243826,-0.00431310,-0.00111839,-0.00512612,0.06398461,
 -0.15960905,-0.01961235,0.00263880,0.00121489,-0.00280738,-0.00049902,
 -0.00015594,-0.00009617,0.00125395,-0.00204435,-0.00082105,0.00070876,
 -0.00008052,0.00062824,-0.00092010,-0.00038142,0.00036268,-0.00139208,
 -0.00076852,0.00005109,-0.00030615,-0.00000938,0.00006160,0.00010937,-
 0.00019960,-0.00017604,-0.00199520,0.00075593,-0.00070269,-0.01922373,
 -0.01051462,-0.00221660,0.00032348,0.00023961,-0.00022427,0.01964866,-
 0.04694672,-0.01412782,0.01163370,0.00332171,0.00509078,-0.03481861,0.
 00368110,-0.00239835,-0.04092962,-0.14388226,-0.04990694,-0.00330698,0
 .85063645,-0.00018564,0.00002688,0.00077745,-0.00250132,0.00504165,0.0
 0298022,-0.00742370,0.01453518,0.00479546,0.00756030,-0.00215791,-0.00
 142753,0.00010910,-0.00001509,-0.00034244,-0.00471339,-0.00176395,-0.0
 0071824,-0.00303981,-0.00061021,-0.00183799,-0.02110157,-0.02526384,-0
 .08848649,0.00025308,0.00055441,-0.00143034,-0.00006689,-0.00002235,-0
 .00011850,0.00061624,-0.00071858,-0.00053372,0.00045531,-0.00004238,0.
 00044560,-0.00038705,-0.00022271,0.00018821,-0.00079930,-0.00028421,-0
 .00043292,-0.00010790,0.00003658,-0.00005872,-0.00001474,-0.00003037,-
 0.00006836,-0.00089630,0.00022130,-0.00024136,-0.00832635,-0.00436481,
 -0.00141069,0.00030717,0.00002951,-0.00002358,0.01985646,-0.00282122,0
 .00372664,-0.00707803,0.00213699,-0.00086194,-0.00401420,-0.01931882,-
 0.02301860,-0.08224978,-0.03708236,-0.09967535,0.13113701,0.26904138,0
 .36806951,-0.00004717,-0.00025519,-0.00003997,-0.00009274,-0.00000125,
 0.00007372,-0.00047857,-0.00059269,-0.00028707,-0.00027530,0.00033855,
 0.00000347,0.00003541,0.00002959,-0.00002733,-0.00297512,-0.00245936,-
 0.00229835,-0.00000423,0.00033586,0.00014393,0.00685396,-0.00002401,0.
 00093588,-0.00130706,-0.00075019,0.00007597,-0.00002586,0.00005090,0.0
 0002614,-0.00001479,0.00022373,0.00014095,-0.00004846,-0.00087790,0.00
 045491,0.00010788,0.00002330,-0.00003385,-0.00088472,-0.00020842,-0.00
 024196,0.00003584,0.00033492,-0.00013584,-0.00030572,0.00047838,0.0000
 5681,0.00005097,-0.00003487,-0.00000538,0.00023977,0.00004047,0.000023
 89,0.00010979,0.00003829,0.00016305,-0.26633687,0.14439552,-0.00737512
 ,-0.01118945,0.01328276,-0.00005617,-0.00110568,-0.00099376,-0.0045715
 4,-0.00010527,-0.00072921,-0.00006691,0.00097855,-0.00060725,-0.001249
 26,0.27750443,0.00008801,-0.00019318,-0.00017557,-0.00012117,-0.000340
 21,-0.00026381,0.00300636,-0.00175175,0.00091779,-0.00034490,0.0002686
 8,0.00013513,0.00004864,0.00000559,-0.00003368,0.00052955,0.00180490,0
 .00112867,-0.00005883,0.00002079,0.00006609,0.02724823,-0.01945653,-0.
 00183514,-0.00140327,-0.00026234,0.00042094,-0.00001298,0.00009308,-0.
 00001495,0.00001164,0.00017617,0.00009071,-0.00084666,0.00039832,-0.00
 036655,0.00013162,0.00003172,0.00002367,0.00079669,0.00018786,-0.00027
 140,0.00012659,-0.00004768,-0.00005455,0.00002827,-0.00011426,0.000062
 64,0.00005731,-0.00004392,-0.00000483,0.00038455,0.00013317,0.00000465
 ,0.00004221,0.00007357,0.00004032,0.13587609,-0.14261952,-0.00125814,-
 0.00957461,0.01136851,-0.00161624,-0.00055418,0.00046320,-0.00547962,0
 .00014889,0.00056708,0.00070873,-0.00477445,-0.00098469,-0.00387844,-0
 .15064229,0.15258946,0.00018398,0.00007049,-0.00018333,0.00018213,-0.0
 0010838,0.00038376,0.00192887,-0.00027389,-0.00115456,-0.00016432,0.00
 028307,-0.00008231,0.00001053,0.00007986,-0.00006788,-0.00059248,-0.00
 009332,-0.00162046,-0.00037896,-0.00000282,-0.00000817,0.01295556,-0.0
 1012222,0.00345502,-0.00133590,0.00001956,0.00095815,0.00005182,0.0001
 4218,-0.00001711,0.00001209,0.00005051,-0.00003111,0.00102733,0.000063
 34,0.00061581,0.00015166,-0.00000927,-0.00007846,-0.00083401,-0.000476
 24,-0.00053776,-0.00012797,-0.00005673,-0.00015423,0.00003875,-0.00004
 298,0.00010383,0.00001526,-0.00003756,0.00000111,0.00022237,0.00003983
 ,0.00004715,0.00031488,0.00027784,-0.00023256,-0.01114394,0.00105781,-
 0.04583423,-0.01013625,0.00567660,0.00765209,-0.00456099,-0.00539924,0
 .00817465,0.00013220,0.00036320,-0.00062206,-0.00281385,-0.00253372,0.
 00176692,0.01232576,0.00859553,0.03430759,0.00001201,-0.00005317,0.000
 02037,-0.00002015,0.00017696,-0.00013042,0.00133241,-0.00091879,-0.000
 58003,0.00004430,-0.00012217,0.00003892,0.00000639,-0.00002754,0.00000
 226,-0.00019817,0.00032567,0.00020766,-0.00037163,-0.00014570,-0.00016
 390,-0.00402923,-0.00082429,-0.00418525,0.00015470,0.00003175,-0.00013
 324,-0.00002936,-0.00000646,0.00000407,-0.00004008,0.00000325,0.000016
 84,-0.00006404,-0.00005375,-0.00004717,-0.00002678,-0.00000045,0.00001
 214,0.00008633,0.00009191,0.00010577,0.00000895,0.00001339,0.00001902,
 -0.00001512,0.00002433,-0.00001615,0.00002137,0.00001740,-0.00000098,-
 0.00009532,0.00000885,-0.00001969,-0.00008814,-0.00007305,0.00001593,0
 .00205933,-0.02506279,-0.01020255,-0.05208820,-0.01184974,-0.01336432,
 0.00760827,0.02229454,0.01207252,-0.00437435,0.00413800,-0.00042219,-0
 .00261479,0.00025763,-0.00063775,0.00037211,-0.00045761,0.00164002,0.0
 5024345,0.00001043,0.00001542,-0.00005006,0.00018141,-0.00001561,0.000
 00602,0.00055416,0.00018735,-0.00065172,-0.00006992,0.00003139,0.00005
 535,0.00000040,-0.00000961,0.00001686,-0.00004872,0.00005596,0.0000677
 9,-0.00021046,-0.00006770,-0.00007157,-0.00048513,0.00382512,-0.001967
 00,0.00006392,0.00002891,-0.00003924,0.00000295,-0.00000979,0.00000384
 ,-0.00000376,0.00001422,0.00003017,-0.00007013,0.00003147,-0.00007851,
 -0.00000695,0.00000014,0.00000948,0.00013420,0.00002922,0.00011638,0.0
 0001450,-0.00000094,0.00001669,0.00000258,-0.00000496,0.00000044,0.000
 00912,0.00000009,-0.00000270,0.00006148,0.00002290,-0.00000906,-0.0001
 1180,-0.00003840,0.00000795,0.00220577,-0.00422534,-0.00068017,-0.0122
 4422,-0.30046780,-0.12692528,-0.00711684,-0.01093343,-0.00761519,0.003
 29651,-0.00118959,-0.00081103,0.00162884,0.00008956,0.00066197,-0.0007
 9001,-0.00039946,0.00202483,0.01408865,0.31176824,-0.00000100,-0.00009
 545,0.00011997,-0.00045095,0.00008051,-0.00024616,0.00004508,-0.000908
 68,0.00162617,0.00005899,-0.00010804,-0.00003335,0.00001666,0.00001447
 ,-0.00002399,-0.00001025,0.00013422,0.00006113,0.00024153,0.00008303,0
 .00015999,-0.00418124,-0.00222329,0.00553037,-0.00001987,-0.00005154,-
 0.00004545,-0.00003376,0.00001826,-0.00000773,-0.00001447,-0.00000155,
 -0.00005447,0.00002686,-0.00005057,0.00003087,-0.00000732,-0.00000086,
 -0.00000018,-0.00001248,0.00004495,-0.00012028,0.00000252,0.00000628,-
 0.00000694,-0.00001130,0.00001455,0.00000529,0.00000343,0.00000156,0.0
 0001346,-0.00005685,0.00000492,-0.00000274,0.00007963,0.00002563,0.000
 03198,0.00217790,-0.00950158,-0.00471624,-0.01365240,-0.12655012,-0.08
 762107,-0.00109328,0.00157951,0.00141935,-0.00073345,-0.00051452,0.002
 42659,-0.00002921,0.00017774,-0.00016938,0.00148371,0.00217526,-0.0040
 5881,0.01521597,0.13462063,0.08720924,-0.00006552,0.00000669,0.0000006
 8,-0.00008760,0.00022109,0.00005713,0.00023132,0.00118862,0.00043389,0
 .00051418,-0.00003704,-0.00004871,-0.00003561,-0.00002869,0.00003275,-
 0.00030392,-0.00002041,-0.00000334,-0.00006393,-0.00003715,-0.00009555
 ,-0.00237433,-0.00369836,-0.00391192,-0.00003776,0.00006063,-0.0001275
 4,0.00000794,-0.00000497,-0.00000225,0.00010692,-0.00001703,0.00004127
 ,-0.00005748,0.00001412,-0.00005685,-0.00002683,-0.00002209,0.00002640
 ,0.00010907,-0.00000773,0.00002480,0.00002132,0.00000387,0.00000421,-0
 .00000347,-0.00000973,0.00000375,-0.00008800,-0.00000173,-0.00004205,-
 0.00057926,-0.00032384,-0.00001752,-0.00002533,-0.00000612,0.00001425,
 0.00036353,-0.00062326,0.00006118,0.00072579,-0.00157939,-0.00171671,0
 .01243917,-0.00102819,0.00323593,-0.29393268,0.18860484,-0.00666811,-0
 .02125329,0.02176261,0.00283316,-0.00011815,0.00000175,0.00007861,0.00
 048541,-0.00036589,-0.00010439,0.30328475,0.00002486,-0.00000452,0.000
 05481,-0.00001498,0.00023544,-0.00000727,0.00039371,0.00089159,0.00018
 034,-0.00000424,-0.00022064,-0.00002403,-0.00000734,0.00000198,-0.0000
 1623,-0.00072327,0.00004052,0.00003944,-0.00004554,-0.00004356,-0.0000
 4335,-0.00416103,0.00040937,-0.00325698,0.00017025,0.00008579,-0.00019
 932,-0.00003102,-0.00000934,0.00000340,-0.00005367,-0.00005412,-0.0000
 3654,-0.00000395,-0.00000996,-0.00000583,-0.00005849,-0.00001339,0.000
 02143,-0.00003285,-0.00001439,0.00006265,-0.00001255,-0.00000052,0.000
 01587,0.00000879,-0.00000149,-0.00000471,0.00001309,0.00003483,0.00000
 844,0.00002678,0.00014311,0.00003552,-0.00000292,0.00001071,-0.0000203
 9,-0.00095965,-0.00097147,-0.00043424,-0.00233419,-0.00365825,-0.00411
 234,0.02810534,-0.01433389,0.00232485,0.19429957,-0.21571721,-0.023683
 68,-0.00941337,0.01608459,0.00447174,-0.00000577,-0.00002648,0.0001563
 1,0.00120201,-0.00040745,0.00006785,-0.20417126,0.21704859,0.00000200,
 0.00001172,0.00005222,-0.00010356,0.00014444,0.00004647,-0.00024906,0.
 00031250,0.00116234,0.00028874,-0.00008574,-0.00010549,0.00001443,-0.0
 0002277,-0.00002197,-0.00022573,-0.00001461,-0.00015846,0.00000912,0.0
 0005362,-0.00002253,-0.00399291,-0.00277361,0.00218350,-0.00000207,0.0
 0002618,-0.00004172,-0.00000233,-0.00000172,-0.00000936,-0.00000065,-0
 .00003378,-0.00006057,0.00003048,-0.00002989,0.00003013,-0.00003052,-0
 .00000405,0.00001419,-0.00002227,0.00003874,-0.00006321,-0.00000626,0.
 00000191,0.00000231,-0.00000790,0.00000893,-0.00000664,-0.00002355,0.0
 0001083,0.00001151,-0.00032235,-0.00015697,0.00002981,0.00001515,-0.00
 002130,0.00002074,-0.00013607,-0.00032314,-0.00094177,-0.00204323,-0.0
 0401390,0.00140193,0.01610927,-0.00783771,0.00307496,-0.00488317,-0.02
 444626,-0.02988642,-0.01034761,0.01393115,0.00157506,0.00008367,0.0001
 6413,-0.00028496,0.00062789,-0.00042734,0.00024910,0.00327487,0.021439
 98,0.02745434,0.00037796,-0.00017150,0.00056862,-0.00063059,0.00132492
 ,-0.00068369,0.00424897,-0.00063409,0.00158943,-0.00082894,-0.00121124
 ,-0.00003917,0.00012068,0.00008502,-0.00019430,-0.00285971,0.00004631,
 -0.00004435,-0.00084299,-0.00028308,-0.00026051,-0.00080161,-0.0108030
 0,-0.00480179,0.00162755,0.00024314,-0.00086474,-0.00029890,-0.0000435
 4,0.00002693,-0.00075467,-0.00034726,-0.00046914,0.00032362,-0.0001017
 4,0.00021263,-0.00027264,0.00002454,0.00004153,-0.00077909,-0.00024513
 ,0.00040605,-0.00020075,-0.00004435,0.00009314,0.00013547,0.00001115,-
 0.00005130,0.00037859,0.00023122,0.00018682,0.00091532,0.00100016,0.00
 000487,0.00009337,0.00013349,-0.00031835,0.00580774,0.01790327,0.00858
 711,-0.06549689,-0.00055756,-0.02822721,-0.58284252,-0.09562359,-0.204
 54519,-0.02034392,-0.04457157,-0.03293947,0.00371903,0.00525322,0.0010
 6936,-0.00090581,-0.00114064,0.00012375,0.00096005,-0.00027786,0.00080
 538,-0.00309663,-0.00286198,-0.00076476,0.66461185,0.00010093,-0.00009
 265,-0.00002380,0.00016104,-0.00033846,-0.00027734,0.00089815,-0.00011
 093,0.00035743,-0.00108512,0.00019221,0.00020676,0.00005883,0.00000054
 ,-0.00004608,-0.00060979,0.00075859,0.00032488,-0.00003243,-0.00003140
 ,0.00013700,-0.00720982,0.00787805,0.00120485,0.00007579,-0.00000789,-
 0.00021063,-0.00005114,-0.00000054,0.00001049,-0.00023891,0.00010409,-
 0.00001906,-0.00008857,-0.00010178,-0.00008241,-0.00005781,0.00001529,
 0.00001969,0.00016742,0.00022786,0.00009104,0.00001278,0.00000886,0.00
 002774,-0.00001974,0.00006145,0.00000465,0.00020109,-0.00000371,0.0000
 7533,0.00123936,0.00054950,0.00006357,-0.00008976,-0.00007699,0.000026
 03,0.00329657,-0.00944117,-0.00489558,0.01947307,0.02323206,0.00650797
 ,-0.09933258,-0.11966375,-0.05170714,-0.06804645,-0.02083593,-0.039574
 12,0.02132826,-0.00376488,0.00164502,0.00029191,0.00022261,0.00141557,
 -0.00299300,0.00163490,0.00071623,0.00038774,0.00393640,0.00376642,0.1
 3828381,0.11949014,0.00015037,-0.00010248,0.00014603,-0.00002415,0.000
 38646,-0.00039141,0.00181009,-0.00020515,0.00033288,-0.00066703,-0.000
 39608,0.00012396,0.00005185,0.00000925,-0.00005132,-0.00124592,0.00037
 871,0.00020789,-0.00037084,-0.00003031,0.00002416,-0.00348627,0.000170
 66,-0.00104502,0.00060808,0.00007194,-0.00044064,-0.00012939,-0.000018
 83,0.00001696,-0.00032979,-0.00006476,-0.00009654,-0.00004384,-0.00002
 937,-0.00006399,-0.00011488,0.00001795,0.00002998,-0.00003603,0.000020
 17,0.00028754,-0.00004216,-0.00001900,0.00005281,0.00004273,0.00001181
 ,-0.00000918,0.00020930,0.00007405,0.00007124,0.00076037,0.00056475,-0
 .00007796,-0.00006242,0.00003125,-0.00013195,0.00217102,-0.00048854,0.
 00434806,-0.01907006,0.00021884,0.01658786,-0.20613391,-0.05047496,-0.
 16385442,-0.04339066,-0.03196824,-0.00943636,0.00867099,-0.00324398,0.
 00804542,0.00068045,0.00097811,-0.00204312,-0.00038876,0.00159189,-0.0
 0149746,0.00047077,0.00259313,-0.00266104,0.26298439,0.08283737,0.1549
 9551,0.00063559,-0.00017268,-0.00026165,0.00239415,-0.00569230,-0.0029
 2060,0.00195721,-0.00184197,-0.00035892,-0.01629772,-0.00396500,0.0010
 1957,0.00008404,0.00033168,0.00003438,-0.00067510,0.00187761,0.0012716
 5,-0.00014506,0.00052656,0.00119656,0.01234957,0.04663231,0.01748238,0
 .00052843,0.00001354,-0.00017270,-0.00007947,-0.00000328,0.00003657,-0
 .00114873,0.00066861,-0.00018775,-0.00023141,-0.00012935,-0.00026260,-
 0.00002394,0.00013691,-0.00001536,0.00027709,0.00030273,0.00048480,-0.
 00000139,-0.00002610,0.00010813,0.00003860,0.00009014,0.00004062,0.001
 22065,-0.00013288,0.00074063,-0.00353021,0.00598029,0.00207258,-0.0001
 7938,-0.00001109,-0.00007455,-0.00913402,-0.00645833,-0.00774523,0.007
 20563,-0.00219151,0.00164074,-0.00562128,0.02012894,0.00508594,-0.0035
 6541,-0.06364749,-0.03528312,-0.10691769,-0.03015498,-0.01940421,-0.00
 006775,0.00140518,0.00069306,0.00066026,-0.00045322,0.00025457,0.00386
 039,0.00065367,0.00270837,-0.00236456,-0.00612163,-0.00307430,0.118771
 51,0.00044128,0.00050071,-0.00156541,0.00358552,-0.01016356,-0.0022825
 8,-0.01220115,-0.00531291,-0.00544866,-0.02065719,0.00469498,0.0023643
 5,0.00035155,0.00025244,0.00018019,0.00311306,0.00179426,0.00013694,0.
 00223125,0.00044975,0.00212529,0.03441753,-0.06731159,-0.02721557,-0.0
 0221714,-0.00087904,0.00102109,0.00033632,0.00003944,0.00011047,-0.001
 12716,0.00175364,0.00071310,-0.00050966,-0.00005854,-0.00061981,0.0003
 5281,0.00027658,-0.00011276,0.00116310,0.00079572,0.00019318,0.0002371
 5,0.00002203,-0.00003571,-0.00010194,0.00022269,0.00015277,0.00189109,
 -0.00071496,0.00080677,0.01619954,0.00520851,0.00194583,-0.00036102,-0
 .00023271,0.00019242,0.00633970,0.00473155,0.00247754,-0.00057047,-0.0
 0392660,-0.00162462,0.00341338,0.01158186,0.00294761,-0.03451495,-0.04
 041292,-0.03647661,-0.03719727,-0.52865000,-0.19980535,-0.00089200,-0.
 00216466,-0.00116017,-0.00008581,0.00003519,0.00024060,-0.00026907,-0.
 00343626,0.00028224,-0.00562211,-0.00384247,-0.00291466,0.04225364,0.6
 3474687,-0.00008444,0.00017407,-0.00044633,0.00166287,-0.00169115,-0.0
 0149919,-0.00277221,-0.00130447,-0.00706459,-0.00409098,0.00056364,0.0
 0373121,-0.00005052,0.00006429,0.00059955,-0.00050467,0.00151934,0.001
 40599,0.00120114,0.00068090,0.00187832,0.01153850,-0.02230705,0.014247
 52,0.00010447,0.00030550,0.00023269,0.00005934,-0.00002275,0.00008242,
 -0.00010968,0.00036922,0.00063716,-0.00053195,-0.00004001,-0.00034958,
 0.00007336,0.00005229,-0.00002626,0.00062527,0.00018919,0.00028699,0.0
 0008853,0.00000993,0.00010267,-0.00001121,0.00002562,0.00003338,0.0005
 1212,-0.00017721,-0.00003489,0.00464082,0.00233624,-0.00418985,-0.0001
 8659,-0.00006201,0.00003761,-0.00199011,-0.00211535,0.00313317,0.00222
 735,-0.00174353,-0.00111327,-0.00241913,0.00729088,0.00970407,-0.02197
 104,-0.04384373,-0.00570731,-0.02261640,-0.20125175,-0.17151431,-0.000
 28355,-0.00025946,-0.00045496,0.00029303,0.00009861,-0.00027925,0.0022
 0129,0.00036915,-0.00304446,-0.00249606,-0.00260190,-0.00346987,0.0348
 9044,0.26337151,0.16308140\\0.00001350,0.00001215,0.00001495,-0.000000
 70,-0.00000018,-0.00000249,-0.00002322,-0.00000340,-0.00000921,-0.0000
 1382,-0.00000627,0.00000338,-0.00000096,0.00000143,0.,0.00001277,0.000
 00274,-0.00000581,0.00000174,0.00000115,0.00000072,0.00001308,0.000005
 33,0.00001929,-0.00001423,-0.00001647,0.00000424,-0.00000167,0.0000002
 6,-0.00000175,-0.00000149,-0.00000346,-0.00001255,0.00000052,0.0000023
 8,0.00000009,0.00000252,0.00000424,0.00000152,0.00000337,0.00000430,0.
 00000216,-0.00000062,0.00000049,-0.00000127,0.00000111,0.00000136,-0.0
 0000046,-0.00000057,-0.00000037,0.00000248,0.00001042,0.00000094,-0.00
 000055,-0.00000156,-0.00000035,-0.00000119,-0.00001019,-0.00002180,-0.
 00002091,0.00000798,0.00000810,0.00000745,-0.00000787,0.00001442,-0.00
 000308,-0.00002555,-0.00002803,0.00000063,0.00001974,0.00003487,0.0000
 1173,0.00000254,0.00000343,0.00000313,0.00000213,-0.00000161,-0.000000
 19,0.00000519,0.00000494,0.00000127,0.00000778,-0.00000200,-0.00000288
 ,-0.00000197,-0.00001858,-0.00001071\\\@
 The archive entry for this job was punched.


    WHAT WE HAVE LEARNED
 IS LIKE A HANDFUL OF EARTH;
  WHAT WE HAVE YET TO LEARN
   IS LIKE THE WHOLE WORLD.

         -- AVVAYIAR
 Job cpu time:       0 days 11 hours  3 minutes  2.2 seconds.
 Elapsed time:       0 days  0 hours 16 minutes 43.8 seconds.
 File lengths (MBytes):  RWF=    632 Int=      0 D2E=      0 Chk=     21 Scr=      1
 Normal termination of Gaussian 16 at Thu Oct 17 11:24:25 2024.
