 Entering Gaussian System, Link 0=g16
 Input=PseudoUridineNarrgPBE0aVDZ.gjf
 Output=PseudoUridineNarrgPBE0aVDZ.log
 Initial command:
 /sw/contrib/chem-src/g16/c01/g16/l1.exe "/scr/Gau-56156.inp" -scrdir="/scr/"
 Entering Link 1 = /sw/contrib/chem-src/g16/c01/g16/l1.exe PID=     56157.
  
 Copyright (c) 1988-2019, Gaussian, Inc.  All Rights Reserved.
  
 This is part of the Gaussian(R) 16 program.  It is based on
 the Gaussian(R) 09 system (copyright 2009, Gaussian, Inc.),
 the Gaussian(R) 03 system (copyright 2003, Gaussian, Inc.),
 the Gaussian(R) 98 system (copyright 1998, Gaussian, Inc.),
 the Gaussian(R) 94 system (copyright 1995, Gaussian, Inc.),
 the Gaussian 92(TM) system (copyright 1992, Gaussian, Inc.),
 the Gaussian 90(TM) system (copyright 1990, Gaussian, Inc.),
 the Gaussian 88(TM) system (copyright 1988, Gaussian, Inc.),
 the Gaussian 86(TM) system (copyright 1986, Carnegie Mellon
 University), and the Gaussian 82(TM) system (copyright 1983,
 Carnegie Mellon University). Gaussian is a federally registered
 trademark of Gaussian, Inc.
  
 This software contains proprietary and confidential information,
 including trade secrets, belonging to Gaussian, Inc.
  
 This software is provided under written license and may be
 used, copied, transmitted, or stored only in accord with that
 written license.
  
 The following legend is applicable only to US Government
 contracts under FAR:
  
                    RESTRICTED RIGHTS LEGEND
  
 Use, reproduction and disclosure by the US Government is
 subject to restrictions as set forth in subparagraphs (a)
 and (c) of the Commercial Computer Software - Restricted
 Rights clause in FAR 52.227-19.
  
 Gaussian, Inc.
 340 Quinnipiac St., Bldg. 40, Wallingford CT 06492
  
  
 ---------------------------------------------------------------
 Warning -- This program may not be used in any manner that
 competes with the business of Gaussian, Inc. or will provide
 assistance to any competitor of Gaussian, Inc.  The licensee
 of this program is prohibited from giving any competitor of
 Gaussian, Inc. access to this program.  By using this program,
 the user acknowledges that Gaussian, Inc. is engaged in the
 business of creating and licensing software in the field of
 computational chemistry and represents and warrants to the
 licensee that it is not a competitor of Gaussian, Inc. and that
 it will not use this program in any manner prohibited above.
 ---------------------------------------------------------------
  

 Cite this work as:
 Gaussian 16, Revision C.01,
 M. J. Frisch, G. W. Trucks, H. B. Schlegel, G. E. Scuseria, 
 M. A. Robb, J. R. Cheeseman, G. Scalmani, V. Barone, 
 G. A. Petersson, H. Nakatsuji, X. Li, M. Caricato, A. V. Marenich, 
 J. Bloino, B. G. Janesko, R. Gomperts, B. Mennucci, H. P. Hratchian, 
 J. V. Ortiz, A. F. Izmaylov, J. L. Sonnenberg, D. Williams-Young, 
 F. Ding, F. Lipparini, F. Egidi, J. Goings, B. Peng, A. Petrone, 
 T. Henderson, D. Ranasinghe, V. G. Zakrzewski, J. Gao, N. Rega, 
 G. Zheng, W. Liang, M. Hada, M. Ehara, K. Toyota, R. Fukuda, 
 J. Hasegawa, M. Ishida, T. Nakajima, Y. Honda, O. Kitao, H. Nakai, 
 T. Vreven, K. Throssell, J. A. Montgomery, Jr., J. E. Peralta, 
 F. Ogliaro, M. J. Bearpark, J. J. Heyd, E. N. Brothers, K. N. Kudin, 
 V. N. Staroverov, T. A. Keith, R. Kobayashi, J. Normand, 
 K. Raghavachari, A. P. Rendell, J. C. Burant, S. S. Iyengar, 
 J. Tomasi, M. Cossi, J. M. Millam, M. Klene, C. Adamo, R. Cammi, 
 J. W. Ochterski, R. L. Martin, K. Morokuma, O. Farkas, 
 J. B. Foresman, and D. J. Fox, Gaussian, Inc., Wallingford CT, 2019.
 
 ******************************************
 Gaussian 16:  EM64L-G16RevC.01  3-Jul-2019
                26-Oct-2024 
 ******************************************
 %nprocshared=40
 Will use up to   40 processors via shared memory.
 %mem=50gb
 ------------------------------------------------------
 # PBE1PBE/aug-cc-pVDZ opt freq EmpiricalDispersion=GD3
 ------------------------------------------------------
 1/18=20,19=15,26=3,38=1/1,3;
 2/9=110,12=2,17=6,18=5,40=1/2;
 3/5=16,7=10,11=2,25=1,30=1,71=1,74=-13,124=31/1,2,3;
 4//1;
 5/5=2,38=5/2;
 6/7=2,8=2,9=2,10=2,28=1/1;
 7//1,2,3,16;
 1/18=20,19=15,26=3/3(2);
 2/9=110/2;
 99//99;
 2/9=110/2;
 3/5=16,7=10,11=2,25=1,30=1,71=1,74=-13,124=31/1,2,3;
 4/5=5,16=3,69=1/1;
 5/5=2,38=5/2;
 7//1,2,3,16;
 1/18=20,19=15,26=3/3(-5);
 2/9=110/2;
 6/7=2,8=2,9=2,10=2,19=2,28=1/1;
 99/9=1/99;
 ----
 blah
 ----
 Symbolic Z-matrix:
 Charge =  0 Multiplicity = 1
 C                    -2.2964    0.20115  -0.62599 
 C                    -1.20977   1.29228  -0.61574 
 C                    -0.34178   0.92631   0.60323 
 O                    -1.77616   2.5606   -0.38054 
 H                    -0.61555   1.29834  -1.54133 
 O                    -0.97005  -0.12351   1.29378 
 H                    -0.27704   1.82273   1.23659 
 C                     1.03779   0.54754   0.31701 
 C                    -2.30292  -0.31321   0.81254 
 H                    -2.0165   -0.60688  -1.30864 
 O                    -3.57286   0.73403  -0.94739 
 C                    -2.65238  -1.77985   0.96148 
 H                    -3.0066    0.29704   1.40499 
 O                    -1.95196  -2.6136    0.06938 
 H                    -3.72457  -1.90722   0.75465 
 H                    -2.4736   -2.07027   2.01145 
 H                    -3.77935   0.51655  -1.8601 
 H                    -2.70802   2.48674  -0.63785 
 H                    -1.04589  -2.28475  -0.01916 
 C                     2.07698   1.21657   0.91849 
 N                     3.37461   0.9022    0.72406 
 C                     3.72279  -0.20322  -0.14807 
 N                     2.59921  -0.83797  -0.70129 
 C                     1.27567  -0.53405  -0.51758 
 H                     1.77431   2.03518   1.56967 
 H                     4.17299   1.45341   1.21087 
 H                     2.78171  -1.62561  -1.31217 
 O                     4.84221  -0.59754  -0.41546 
 O                     0.37611  -1.16389  -1.05646 
 

 GradGradGradGradGradGradGradGradGradGradGradGradGradGradGradGradGradGrad
 Berny optimization.
 Initialization pass.
                           ----------------------------
                           !    Initial Parameters    !
                           ! (Angstroms and Degrees)  !
 --------------------------                            --------------------------
 ! Name  Definition              Value          Derivative Info.                !
 --------------------------------------------------------------------------------
 ! R1    R(1,2)                  1.54           estimate D2E/DX2                !
 ! R2    R(1,9)                  1.5277         estimate D2E/DX2                !
 ! R3    R(1,10)                 1.0942         estimate D2E/DX2                !
 ! R4    R(1,11)                 1.4201         estimate D2E/DX2                !
 ! R5    R(2,3)                  1.5405         estimate D2E/DX2                !
 ! R6    R(2,4)                  1.4088         estimate D2E/DX2                !
 ! R7    R(2,5)                  1.0999         estimate D2E/DX2                !
 ! R8    R(3,6)                  1.4049         estimate D2E/DX2                !
 ! R9    R(3,7)                  1.0995         estimate D2E/DX2                !
 ! R10   R(3,8)                  1.459          estimate D2E/DX2                !
 ! R11   R(4,18)                 0.9696         estimate D2E/DX2                !
 ! R12   R(6,9)                  1.4297         estimate D2E/DX2                !
 ! R13   R(8,20)                 1.3745         estimate D2E/DX2                !
 ! R14   R(8,24)                 1.3867         estimate D2E/DX2                !
 ! R15   R(9,12)                 1.515          estimate D2E/DX2                !
 ! R16   R(9,13)                 1.1039         estimate D2E/DX2                !
 ! R17   R(11,17)                0.9607         estimate D2E/DX2                !
 ! R18   R(12,14)                1.4077         estimate D2E/DX2                !
 ! R19   R(12,15)                1.0994         estimate D2E/DX2                !
 ! R20   R(12,16)                1.104          estimate D2E/DX2                !
 ! R21   R(14,19)                0.968          estimate D2E/DX2                !
 ! R22   R(20,21)                1.3493         estimate D2E/DX2                !
 ! R23   R(20,25)                1.0889         estimate D2E/DX2                !
 ! R24   R(21,22)                1.4504         estimate D2E/DX2                !
 ! R25   R(21,26)                1.0855         estimate D2E/DX2                !
 ! R26   R(22,23)                1.4041         estimate D2E/DX2                !
 ! R27   R(22,28)                1.2166         estimate D2E/DX2                !
 ! R28   R(23,24)                1.3704         estimate D2E/DX2                !
 ! R29   R(23,27)                1.0133         estimate D2E/DX2                !
 ! R30   R(24,29)                1.2232         estimate D2E/DX2                !
 ! A1    A(2,1,9)              103.6092         estimate D2E/DX2                !
 ! A2    A(2,1,10)             110.2975         estimate D2E/DX2                !
 ! A3    A(2,1,11)             111.7087         estimate D2E/DX2                !
 ! A4    A(9,1,10)             109.8717         estimate D2E/DX2                !
 ! A5    A(9,1,11)             109.6104         estimate D2E/DX2                !
 ! A6    A(10,1,11)            111.4591         estimate D2E/DX2                !
 ! A7    A(1,2,3)              103.5632         estimate D2E/DX2                !
 ! A8    A(1,2,4)              110.8129         estimate D2E/DX2                !
 ! A9    A(1,2,5)              112.3028         estimate D2E/DX2                !
 ! A10   A(3,2,4)              107.9568         estimate D2E/DX2                !
 ! A11   A(3,2,5)              111.2703         estimate D2E/DX2                !
 ! A12   A(4,2,5)              110.6537         estimate D2E/DX2                !
 ! A13   A(2,3,6)              108.3297         estimate D2E/DX2                !
 ! A14   A(2,3,7)              107.1751         estimate D2E/DX2                !
 ! A15   A(2,3,8)              116.0543         estimate D2E/DX2                !
 ! A16   A(6,3,7)              110.6354         estimate D2E/DX2                !
 ! A17   A(6,3,8)              108.9835         estimate D2E/DX2                !
 ! A18   A(7,3,8)              105.6046         estimate D2E/DX2                !
 ! A19   A(2,4,18)             105.8732         estimate D2E/DX2                !
 ! A20   A(3,6,9)              110.5246         estimate D2E/DX2                !
 ! A21   A(3,8,20)             120.1774         estimate D2E/DX2                !
 ! A22   A(3,8,24)             118.8664         estimate D2E/DX2                !
 ! A23   A(20,8,24)            120.8849         estimate D2E/DX2                !
 ! A24   A(1,9,6)              105.5629         estimate D2E/DX2                !
 ! A25   A(1,9,12)             114.8019         estimate D2E/DX2                !
 ! A26   A(1,9,13)             108.781          estimate D2E/DX2                !
 ! A27   A(6,9,12)             108.0828         estimate D2E/DX2                !
 ! A28   A(6,9,13)             109.8934         estimate D2E/DX2                !
 ! A29   A(12,9,13)            109.5941         estimate D2E/DX2                !
 ! A30   A(1,11,17)            108.8606         estimate D2E/DX2                !
 ! A31   A(9,12,14)            113.3463         estimate D2E/DX2                !
 ! A32   A(9,12,15)            108.5796         estimate D2E/DX2                !
 ! A33   A(9,12,16)            108.1079         estimate D2E/DX2                !
 ! A34   A(14,12,15)           107.3026         estimate D2E/DX2                !
 ! A35   A(14,12,16)           111.4907         estimate D2E/DX2                !
 ! A36   A(15,12,16)           107.8431         estimate D2E/DX2                !
 ! A37   A(12,14,19)           108.8144         estimate D2E/DX2                !
 ! A38   A(8,20,21)            123.4115         estimate D2E/DX2                !
 ! A39   A(8,20,25)            114.6739         estimate D2E/DX2                !
 ! A40   A(21,20,25)           121.9137         estimate D2E/DX2                !
 ! A41   A(20,21,22)           119.6753         estimate D2E/DX2                !
 ! A42   A(20,21,26)           121.6306         estimate D2E/DX2                !
 ! A43   A(22,21,26)           118.6929         estimate D2E/DX2                !
 ! A44   A(21,22,23)           112.9144         estimate D2E/DX2                !
 ! A45   A(21,22,28)           126.874          estimate D2E/DX2                !
 ! A46   A(23,22,28)           120.2113         estimate D2E/DX2                !
 ! A47   A(22,23,24)           128.3025         estimate D2E/DX2                !
 ! A48   A(22,23,27)           116.4104         estimate D2E/DX2                !
 ! A49   A(24,23,27)           115.2863         estimate D2E/DX2                !
 ! A50   A(8,24,23)            114.7935         estimate D2E/DX2                !
 ! A51   A(8,24,29)            122.7233         estimate D2E/DX2                !
 ! A52   A(23,24,29)           122.4814         estimate D2E/DX2                !
 ! D1    D(9,1,2,3)             21.7061         estimate D2E/DX2                !
 ! D2    D(9,1,2,4)            -93.8241         estimate D2E/DX2                !
 ! D3    D(9,1,2,5)            141.8587         estimate D2E/DX2                !
 ! D4    D(10,1,2,3)           -95.838          estimate D2E/DX2                !
 ! D5    D(10,1,2,4)           148.6318         estimate D2E/DX2                !
 ! D6    D(10,1,2,5)            24.3146         estimate D2E/DX2                !
 ! D7    D(11,1,2,3)           139.6148         estimate D2E/DX2                !
 ! D8    D(11,1,2,4)            24.0846         estimate D2E/DX2                !
 ! D9    D(11,1,2,5)          -100.2326         estimate D2E/DX2                !
 ! D10   D(2,1,9,6)            -29.2126         estimate D2E/DX2                !
 ! D11   D(2,1,9,12)          -148.1361         estimate D2E/DX2                !
 ! D12   D(2,1,9,13)            88.6787         estimate D2E/DX2                !
 ! D13   D(10,1,9,6)            88.6282         estimate D2E/DX2                !
 ! D14   D(10,1,9,12)          -30.2954         estimate D2E/DX2                !
 ! D15   D(10,1,9,13)         -153.4806         estimate D2E/DX2                !
 ! D16   D(11,1,9,6)          -148.5705         estimate D2E/DX2                !
 ! D17   D(11,1,9,12)           92.506          estimate D2E/DX2                !
 ! D18   D(11,1,9,13)          -30.6792         estimate D2E/DX2                !
 ! D19   D(2,1,11,17)          103.0691         estimate D2E/DX2                !
 ! D20   D(9,1,11,17)         -142.6819         estimate D2E/DX2                !
 ! D21   D(10,1,11,17)         -20.8267         estimate D2E/DX2                !
 ! D22   D(1,2,3,6)             -7.1993         estimate D2E/DX2                !
 ! D23   D(1,2,3,7)           -126.6042         estimate D2E/DX2                !
 ! D24   D(1,2,3,8)            115.7173         estimate D2E/DX2                !
 ! D25   D(4,2,3,6)            110.3436         estimate D2E/DX2                !
 ! D26   D(4,2,3,7)             -9.0614         estimate D2E/DX2                !
 ! D27   D(4,2,3,8)           -126.7399         estimate D2E/DX2                !
 ! D28   D(5,2,3,6)           -128.0524         estimate D2E/DX2                !
 ! D29   D(5,2,3,7)            112.5427         estimate D2E/DX2                !
 ! D30   D(5,2,3,8)             -5.1358         estimate D2E/DX2                !
 ! D31   D(1,2,4,18)           -22.4224         estimate D2E/DX2                !
 ! D32   D(3,2,4,18)          -135.1859         estimate D2E/DX2                !
 ! D33   D(5,2,4,18)           102.8291         estimate D2E/DX2                !
 ! D34   D(2,3,6,9)            -11.7595         estimate D2E/DX2                !
 ! D35   D(7,3,6,9)            105.4445         estimate D2E/DX2                !
 ! D36   D(8,3,6,9)           -138.8646         estimate D2E/DX2                !
 ! D37   D(2,3,8,20)           124.1365         estimate D2E/DX2                !
 ! D38   D(2,3,8,24)           -58.9058         estimate D2E/DX2                !
 ! D39   D(6,3,8,20)          -113.2902         estimate D2E/DX2                !
 ! D40   D(6,3,8,24)            63.6676         estimate D2E/DX2                !
 ! D41   D(7,3,8,20)             5.5933         estimate D2E/DX2                !
 ! D42   D(7,3,8,24)          -177.449          estimate D2E/DX2                !
 ! D43   D(3,6,9,1)             26.0696         estimate D2E/DX2                !
 ! D44   D(3,6,9,12)           149.3687         estimate D2E/DX2                !
 ! D45   D(3,6,9,13)           -91.0722         estimate D2E/DX2                !
 ! D46   D(3,8,20,21)          178.4966         estimate D2E/DX2                !
 ! D47   D(3,8,20,25)           -1.8184         estimate D2E/DX2                !
 ! D48   D(24,8,20,21)           1.6011         estimate D2E/DX2                !
 ! D49   D(24,8,20,25)        -178.7139         estimate D2E/DX2                !
 ! D50   D(3,8,24,23)         -178.3621         estimate D2E/DX2                !
 ! D51   D(3,8,24,29)            2.1161         estimate D2E/DX2                !
 ! D52   D(20,8,24,23)          -1.4266         estimate D2E/DX2                !
 ! D53   D(20,8,24,29)         179.0516         estimate D2E/DX2                !
 ! D54   D(1,9,12,14)           47.2559         estimate D2E/DX2                !
 ! D55   D(1,9,12,15)          -71.8771         estimate D2E/DX2                !
 ! D56   D(1,9,12,16)          171.3777         estimate D2E/DX2                !
 ! D57   D(6,9,12,14)          -70.2473         estimate D2E/DX2                !
 ! D58   D(6,9,12,15)          170.6196         estimate D2E/DX2                !
 ! D59   D(6,9,12,16)           53.8745         estimate D2E/DX2                !
 ! D60   D(13,9,12,14)         170.0048         estimate D2E/DX2                !
 ! D61   D(13,9,12,15)          50.8718         estimate D2E/DX2                !
 ! D62   D(13,9,12,16)         -65.8733         estimate D2E/DX2                !
 ! D63   D(9,12,14,19)          38.3458         estimate D2E/DX2                !
 ! D64   D(15,12,14,19)        158.2097         estimate D2E/DX2                !
 ! D65   D(16,12,14,19)        -83.9139         estimate D2E/DX2                !
 ! D66   D(8,20,21,22)          -0.6908         estimate D2E/DX2                !
 ! D67   D(8,20,21,26)         179.7179         estimate D2E/DX2                !
 ! D68   D(25,20,21,22)        179.6463         estimate D2E/DX2                !
 ! D69   D(25,20,21,26)          0.0551         estimate D2E/DX2                !
 ! D70   D(20,21,22,23)         -0.2334         estimate D2E/DX2                !
 ! D71   D(20,21,22,28)        179.9645         estimate D2E/DX2                !
 ! D72   D(26,21,22,23)        179.3699         estimate D2E/DX2                !
 ! D73   D(26,21,22,28)         -0.4323         estimate D2E/DX2                !
 ! D74   D(21,22,23,24)          0.3094         estimate D2E/DX2                !
 ! D75   D(21,22,23,27)       -179.3529         estimate D2E/DX2                !
 ! D76   D(28,22,23,24)       -179.8738         estimate D2E/DX2                !
 ! D77   D(28,22,23,27)          0.464          estimate D2E/DX2                !
 ! D78   D(22,23,24,8)           0.506          estimate D2E/DX2                !
 ! D79   D(22,23,24,29)       -179.9709         estimate D2E/DX2                !
 ! D80   D(27,23,24,8)        -179.8285         estimate D2E/DX2                !
 ! D81   D(27,23,24,29)         -0.3055         estimate D2E/DX2                !
 --------------------------------------------------------------------------------
 Trust Radius=3.00D-01 FncErr=1.00D-07 GrdErr=1.00D-06 EigMax=2.50D+02 EigMin=1.00D-04
 Number of steps in this run=    173 maximum allowed number of steps=    174.
 GradGradGradGradGradGradGradGradGradGradGradGradGradGradGradGradGradGrad

                          Input orientation:                          
 ---------------------------------------------------------------------
 Center     Atomic      Atomic             Coordinates (Angstroms)
 Number     Number       Type             X           Y           Z
 ---------------------------------------------------------------------
      1          6           0       -2.296403    0.201147   -0.625986
      2          6           0       -1.209768    1.292284   -0.615735
      3          6           0       -0.341776    0.926306    0.603225
      4          8           0       -1.776156    2.560603   -0.380540
      5          1           0       -0.615552    1.298340   -1.541325
      6          8           0       -0.970051   -0.123512    1.293777
      7          1           0       -0.277040    1.822727    1.236594
      8          6           0        1.037790    0.547535    0.317007
      9          6           0       -2.302917   -0.313213    0.812536
     10          1           0       -2.016505   -0.606884   -1.308639
     11          8           0       -3.572864    0.734031   -0.947394
     12          6           0       -2.652383   -1.779852    0.961482
     13          1           0       -3.006601    0.297037    1.404991
     14          8           0       -1.951963   -2.613601    0.069380
     15          1           0       -3.724565   -1.907218    0.754645
     16          1           0       -2.473595   -2.070266    2.011452
     17          1           0       -3.779348    0.516550   -1.860103
     18          1           0       -2.708018    2.486737   -0.637852
     19          1           0       -1.045888   -2.284751   -0.019157
     20          6           0        2.076976    1.216567    0.918492
     21          7           0        3.374608    0.902202    0.724064
     22          6           0        3.722794   -0.203215   -0.148071
     23          7           0        2.599211   -0.837969   -0.701290
     24          6           0        1.275671   -0.534050   -0.517583
     25          1           0        1.774308    2.035184    1.569670
     26          1           0        4.172987    1.453411    1.210872
     27          1           0        2.781709   -1.625612   -1.312169
     28          8           0        4.842214   -0.597544   -0.415457
     29          8           0        0.376107   -1.163885   -1.056457
 ---------------------------------------------------------------------
                    Distance matrix (angstroms):
                    1          2          3          4          5
     1  C    0.000000
     2  C    1.539955   0.000000
     3  C    2.420203   1.540524   0.000000
     4  O    2.428566   1.408810   2.386664   0.000000
     5  H    2.206114   1.099930   2.193731   2.070684   0.000000
     6  O    2.355866   2.389179   1.404888   3.264600   3.191416
     7  H    3.190071   2.140671   1.099508   2.325281   2.847175
     8  C    3.482250   2.544833   1.458969   3.529491   2.598200
     9  C    1.527728   2.410924   2.329440   3.155903   3.314357
    10  H    1.094199   2.176644   2.968268   3.309397   2.376277
    11  O    1.420078   2.450687   3.589055   2.624090   3.068696
    12  C    2.563422   3.742562   3.576387   4.626915   4.459595
    13  H    2.153705   2.881399   2.853086   3.134621   3.924347
    14  O    2.919757   4.034374   3.925383   5.196703   4.436626
    15  H    2.896721   4.294061   4.415320   5.004635   5.021259
    16  H    3.485225   4.450406   3.937918   5.258611   5.236607
    17  H    1.954904   2.958540   4.248857   3.221807   3.274511
    18  H    2.322389   1.916236   3.094240   0.969553   2.570402
    19  H    2.848108   3.630143   3.345747   4.913384   3.916724
    20  C    4.747940   3.627985   2.456421   4.282586   3.647889
    21  N    5.871497   4.792048   3.718426   5.522754   4.605463
    22  C    6.051665   5.175461   4.284973   6.158830   4.797611
    23  N    5.005244   4.365045   3.669309   5.549505   3.950212
    24  C    3.648558   3.085861   2.450507   4.348483   2.825319
    25  H    4.975468   3.772612   2.577099   4.084750   3.991574
    26  H    6.840703   5.686520   4.585865   6.257058   5.525282
    27  H    5.440139   4.993098   4.465107   6.258311   4.488139
    28  O    7.186243   6.343347   5.498507   7.333344   5.886354
    29  O    3.031654   2.956688   2.763838   4.354413   2.698340
                    6          7          8          9         10
     6  O    0.000000
     7  H    2.066732   0.000000
     8  C    2.331482   2.049520   0.000000
     9  C    1.429724   2.974263   3.485220   0.000000
    10  H    2.846275   3.925170   3.647482   2.160476   0.000000
    11  O    3.540178   4.100917   4.784519   2.409738   2.085858
    12  C    2.384140   4.323947   4.410154   1.515038   2.633181
    13  H    2.082490   3.131548   4.195659   1.103893   3.026739
    14  O    2.943441   4.883519   4.358064   2.442792   2.435162
    15  H    3.325600   5.101979   5.375627   2.136653   2.977495
    16  H    2.562334   4.536590   4.696153   2.133955   3.656969
    17  H    4.271860   4.854049   5.286359   3.164072   2.161905
    18  H    3.683086   3.140718   4.324736   3.179222   3.240160
    19  H    2.529921   4.363418   3.532218   2.481692   2.328111
    20  C    3.349780   2.451532   1.374516   4.640573   5.004166
    21  N    4.500303   3.800603   2.398375   5.806837   5.955948
    22  C    4.909997   4.692591   2.826512   6.102791   5.869363
    23  N    4.150948   4.371215   2.322625   5.157315   4.661235
    24  C    2.914247   3.323018   1.386706   3.824170   3.386665
    25  H    3.502512   2.089044   2.079597   4.765709   5.443845
    26  H    5.380000   4.465400   3.383647   6.724356   6.993037
    27  H    4.808634   5.267180   3.227698   5.664820   4.905168
    28  O    6.076892   5.898622   4.039969   7.255461   6.916638
    29  O    2.901399   3.821588   2.291983   3.375492   2.469502
                   11         12         13         14         15
    11  O    0.000000
    12  C    3.287963   0.000000
    13  H    2.458726   2.153053   0.000000
    14  O    3.855877   1.407683   3.371636   0.000000
    15  H    3.145814   1.099353   2.407730   2.027482   0.000000
    16  H    4.222232   1.103967   2.501202   2.083016   1.780751
    17  H    0.960714   3.808524   3.362464   4.106103   3.565748
    18  H    1.978826   4.556835   3.009509   5.204349   4.720091
    19  H    4.044784   1.948692   3.540935   0.967963   2.813647
    20  C    5.969511   5.598858   5.188928   5.623480   6.591112
    21  N    7.147686   6.601091   6.445907   6.415749   7.634922
    22  C    7.398917   6.660313   6.924378   6.169288   7.692963
    23  N    6.373873   5.588488   6.095062   4.945704   6.576715
    24  C    5.030016   4.378272   4.767059   3.884157   5.339149
    25  H    6.051517   5.875371   5.089731   6.143872   6.815013
    26  H    8.073031   7.556577   7.274707   7.440336   8.594958
    27  H    6.788341   5.892592   6.677130   5.029160   6.832468
    28  O    8.536368   7.711212   8.106676   7.103548   8.744946
    29  O    4.382733   3.690968   4.431222   2.964641   4.544023
                   16         17         18         19         20
    16  H    0.000000
    17  H    4.835860   0.000000
    18  H    5.276366   2.554072   0.000000
    19  H    2.491530   4.325295   5.090438   0.000000
    20  C    5.718875   6.519750   5.189577   4.784422   0.000000
    21  N    6.685388   7.616149   6.431478   5.499985   1.349250
    22  C    6.822364   7.728599   6.987923   5.204780   2.421168
    23  N    5.883102   6.622959   6.262937   3.980607   2.667872
    24  C    4.776293   5.334729   5.000940   2.950088   2.401887
    25  H    5.924067   6.701693   5.016802   5.398121   1.088933
    26  H    7.565334   8.576026   7.199568   6.536320   2.129517
    27  H    6.233971   6.923623   6.892258   4.093512   3.681097
    28  O    7.847284   8.812465   8.158937   6.137871   3.566085
    29  O    4.284203   4.553846   4.797301   2.086720   3.529863
                   21         22         23         24         25
    21  N    0.000000
    22  C    1.450448   0.000000
    23  N    2.379300   1.404066   0.000000
    24  C    2.830202   2.496878   1.370355   0.000000
    25  H    2.135336   3.428945   3.754029   3.347570   0.000000
    26  H    1.085460   2.189477   3.373953   3.915610   2.494165
    27  H    3.299639   2.064940   1.013341   2.022628   4.766684
    28  O    2.387805   1.216590   2.273888   3.568570   4.503780
    29  O    4.053391   3.598384   2.274765   1.223230   4.368701
                   26         27         28         29
    26  H    0.000000
    27  H    4.216844   0.000000
    28  O    2.701708   2.471173   0.000000
    29  O    5.138805   2.462824   4.547278   0.000000
 Stoichiometry    C9H12N2O6
 Framework group  C1[X(C9H12N2O6)]
 Deg. of freedom    81
 Full point group                 C1      NOp   1
 Largest Abelian subgroup         C1      NOp   1
 Largest concise Abelian subgroup C1      NOp   1
                         Standard orientation:                         
 ---------------------------------------------------------------------
 Center     Atomic      Atomic             Coordinates (Angstroms)
 Number     Number       Type             X           Y           Z
 ---------------------------------------------------------------------
      1          6           0        2.315636   -0.205890   -0.623131
      2          6           0        1.224404   -1.292473   -0.619914
      3          6           0        0.354396   -0.927159    0.597808
      4          8           0        1.784772   -2.563989   -0.387575
      5          1           0        0.632876   -1.292754   -1.547244
      6          8           0        0.985052    0.117557    1.293906
      7          1           0        0.284046   -1.825534    1.227800
      8          6           0       -1.022725   -0.541575    0.308925
      9          6           0        2.320104    0.303347    0.817220
     10          1           0        2.041130    0.605722   -1.303723
     11          8           0        3.590782   -0.743001   -0.942715
     12          6           0        2.675287    1.767966    0.972386
     13          1           0        3.019484   -0.311951    1.409550
     14          8           0        1.980985    2.607806    0.081216
     15          1           0        3.748595    1.891549    0.769122
     16          1           0        2.494651    2.055415    2.022856
     17          1           0        3.800845   -0.523164   -1.854042
     18          1           0        2.717684   -2.493136   -0.641912
     19          1           0        1.073800    2.283088   -0.011123
     20          6           0       -2.066465   -1.208350    0.905006
     21          7           0       -3.362191   -0.887841    0.707922
     22          6           0       -3.703182    0.222110   -0.161294
     23          7           0       -2.575331    0.854082   -0.708986
     24          6           0       -1.253622    0.543947   -0.522510
     25          1           0       -1.769141   -2.030532    1.554152
     26          1           0       -4.164297   -1.437403    1.190446
     27          1           0       -2.752734    1.644642   -1.317594
     28          8           0       -4.820150    0.622090   -0.430533
     29          8           0       -0.349850    1.171892   -1.056526
 ---------------------------------------------------------------------
 Rotational constants (GHZ):           0.9208949           0.3017560           0.2621004
 Standard basis: Aug-CC-pVDZ (5D, 7F)
 There are   533 symmetry adapted cartesian basis functions of A   symmetry.
 There are   499 symmetry adapted basis functions of A   symmetry.
   499 basis functions,   863 primitive gaussians,   533 cartesian basis functions
    64 alpha electrons       64 beta electrons
       nuclear repulsion energy      1329.4598473654 Hartrees.
 NAtoms=   29 NActive=   29 NUniq=   29 SFac= 1.00D+00 NAtFMM=   60 NAOKFM=F Big=F
 Integral buffers will be    131072 words long.
 Raffenetti 2 integral format.
 Two-electron integral symmetry is turned on.
 Nuclear repulsion after empirical dispersion term =     1329.4394652556 Hartrees.
 One-electron integrals computed using PRISM.
 NBasis=   499 RedAO= T EigKep=  2.17D-06  NBF=   499
 NBsUse=   499 1.00D-06 EigRej= -1.00D+00 NBFU=   499
 ExpMin= 2.97D-02 ExpMax= 1.17D+04 ExpMxC= 4.01D+02 IAcc=3 IRadAn=         5 AccDes= 0.00D+00
 Harris functional with IExCor= 1009 and IRadAn=       5 diagonalized for initial guess.
 HarFok:  IExCor= 1009 AccDes= 0.00D+00 IRadAn=         5 IDoV= 1 UseB2=F ITyADJ=14
 ICtDFT=  3500011 ScaDFX=  1.000000  1.000000  1.000000  1.000000
 FoFCou: FMM=F IPFlag=           0 FMFlag=      100000 FMFlg1=           0
         NFxFlg=           0 DoJE=T BraDBF=F KetDBF=T FulRan=T
         wScrn=  0.000000 ICntrl=       500 IOpCl=  0 I1Cent=   200000004 NGrid=           0
         NMat0=    1 NMatS0=      1 NMatT0=    0 NMatD0=    1 NMtDS0=    0 NMtDT0=    0
 Petite list used in FoFCou.
 Requested convergence on RMS density matrix=1.00D-08 within 128 cycles.
 Requested convergence on MAX density matrix=1.00D-06.
 Requested convergence on             energy=1.00D-06.
 No special actions if energy rises.
 SCF Done:  E(RPBE1PBE) =  -910.208475216     A.U. after   14 cycles
            NFock= 14  Conv=0.97D-08     -V/T= 2.0053

 **********************************************************************

            Population analysis using the SCF Density.

 **********************************************************************

 Orbital symmetries:
       Occupied  (A) (A) (A) (A) (A) (A) (A) (A) (A) (A) (A) (A)
                 (A) (A) (A) (A) (A) (A) (A) (A) (A) (A) (A) (A)
                 (A) (A) (A) (A) (A) (A) (A) (A) (A) (A) (A) (A)
                 (A) (A) (A) (A) (A) (A) (A) (A) (A) (A) (A) (A)
                 (A) (A) (A) (A) (A) (A) (A) (A) (A) (A) (A) (A)
                 (A) (A) (A) (A)
       Virtual   (A) (A) (A) (A) (A) (A) (A) (A) (A) (A) (A) (A)
                 (A) (A) (A) (A) (A) (A) (A) (A) (A) (A) (A) (A)
                 (A) (A) (A) (A) (A) (A) (A) (A) (A) (A) (A) (A)
                 (A) (A) (A) (A) (A) (A) (A) (A) (A) (A) (A) (A)
                 (A) (A) (A) (A) (A) (A) (A) (A) (A) (A) (A) (A)
                 (A) (A) (A) (A) (A) (A) (A) (A) (A) (A) (A) (A)
                 (A) (A) (A) (A) (A) (A) (A) (A) (A) (A) (A) (A)
                 (A) (A) (A) (A) (A) (A) (A) (A) (A) (A) (A) (A)
                 (A) (A) (A) (A) (A) (A) (A) (A) (A) (A) (A) (A)
                 (A) (A) (A) (A) (A) (A) (A) (A) (A) (A) (A) (A)
                 (A) (A) (A) (A) (A) (A) (A) (A) (A) (A) (A) (A)
                 (A) (A) (A) (A) (A) (A) (A) (A) (A) (A) (A) (A)
                 (A) (A) (A) (A) (A) (A) (A) (A) (A) (A) (A) (A)
                 (A) (A) (A) (A) (A) (A) (A) (A) (A) (A) (A) (A)
                 (A) (A) (A) (A) (A) (A) (A) (A) (A) (A) (A) (A)
                 (A) (A) (A) (A) (A) (A) (A) (A) (A) (A) (A) (A)
                 (A) (A) (A) (A) (A) (A) (A) (A) (A) (A) (A) (A)
                 (A) (A) (A) (A) (A) (A) (A) (A) (A) (A) (A) (A)
                 (A) (A) (A) (A) (A) (A) (A) (A) (A) (A) (A) (A)
                 (A) (A) (A) (A) (A) (A) (A) (A) (A) (A) (A) (A)
                 (A) (A) (A) (A) (A) (A) (A) (A) (A) (A) (A) (A)
                 (A) (A) (A) (A) (A) (A) (A) (A) (A) (A) (A) (A)
                 (A) (A) (A) (A) (A) (A) (A) (A) (A) (A) (A) (A)
                 (A) (A) (A) (A) (A) (A) (A) (A) (A) (A) (A) (A)
                 (A) (A) (A) (A) (A) (A) (A) (A) (A) (A) (A) (A)
                 (A) (A) (A) (A) (A) (A) (A) (A) (A) (A) (A) (A)
                 (A) (A) (A) (A) (A) (A) (A) (A) (A) (A) (A) (A)
                 (A) (A) (A) (A) (A) (A) (A) (A) (A) (A) (A) (A)
                 (A) (A) (A) (A) (A) (A) (A) (A) (A) (A) (A) (A)
                 (A) (A) (A) (A) (A) (A) (A) (A) (A) (A) (A) (A)
                 (A) (A) (A) (A) (A) (A) (A) (A) (A) (A) (A) (A)
                 (A) (A) (A) (A) (A) (A) (A) (A) (A) (A) (A) (A)
                 (A) (A) (A) (A) (A) (A) (A) (A) (A) (A) (A) (A)
                 (A) (A) (A) (A) (A) (A) (A) (A) (A) (A) (A) (A)
                 (A) (A) (A) (A) (A) (A) (A) (A) (A) (A) (A) (A)
                 (A) (A) (A) (A) (A) (A) (A) (A) (A) (A) (A) (A)
                 (A) (A) (A)
 The electronic state is 1-A.
 Alpha  occ. eigenvalues --  -19.25397 -19.23646 -19.23563 -19.22300 -19.21586
 Alpha  occ. eigenvalues --  -19.20768 -14.50316 -14.47373 -10.41763 -10.35837
 Alpha  occ. eigenvalues --  -10.33144 -10.29196 -10.28852 -10.28645 -10.28230
 Alpha  occ. eigenvalues --  -10.26993 -10.25687  -1.13160  -1.10605  -1.09631
 Alpha  occ. eigenvalues --   -1.07948  -1.05220  -1.03988  -1.03123  -0.97872
 Alpha  occ. eigenvalues --   -0.86493  -0.79945  -0.77948  -0.73153  -0.71038
 Alpha  occ. eigenvalues --   -0.69659  -0.64636  -0.61838  -0.61324  -0.59240
 Alpha  occ. eigenvalues --   -0.56328  -0.55757  -0.53762  -0.52296  -0.51951
 Alpha  occ. eigenvalues --   -0.50915  -0.49567  -0.48820  -0.48621  -0.47642
 Alpha  occ. eigenvalues --   -0.45890  -0.44247  -0.43880  -0.42954  -0.42298
 Alpha  occ. eigenvalues --   -0.40624  -0.40115  -0.38304  -0.36676  -0.35213
 Alpha  occ. eigenvalues --   -0.34304  -0.33628  -0.32342  -0.31258  -0.30713
 Alpha  occ. eigenvalues --   -0.29099  -0.28216  -0.27205  -0.26669
 Alpha virt. eigenvalues --   -0.06235  -0.02638  -0.01855  -0.00941   0.00349
 Alpha virt. eigenvalues --    0.01095   0.01645   0.02597   0.02857   0.03401
 Alpha virt. eigenvalues --    0.04292   0.04441   0.04817   0.05148   0.05726
 Alpha virt. eigenvalues --    0.06049   0.06659   0.07138   0.07932   0.08121
 Alpha virt. eigenvalues --    0.08193   0.08529   0.09085   0.09702   0.09936
 Alpha virt. eigenvalues --    0.10031   0.10306   0.10587   0.11036   0.11576
 Alpha virt. eigenvalues --    0.11866   0.12157   0.12299   0.12460   0.12842
 Alpha virt. eigenvalues --    0.13072   0.13311   0.13492   0.14084   0.15200
 Alpha virt. eigenvalues --    0.15362   0.15685   0.16165   0.16434   0.16616
 Alpha virt. eigenvalues --    0.16791   0.17359   0.17598   0.18022   0.18456
 Alpha virt. eigenvalues --    0.18869   0.19097   0.19690   0.20432   0.20716
 Alpha virt. eigenvalues --    0.20827   0.21172   0.21825   0.22270   0.22535
 Alpha virt. eigenvalues --    0.22591   0.22990   0.23484   0.23687   0.23991
 Alpha virt. eigenvalues --    0.24389   0.24789   0.25210   0.25475   0.25788
 Alpha virt. eigenvalues --    0.26251   0.26326   0.26703   0.27197   0.27553
 Alpha virt. eigenvalues --    0.27951   0.28166   0.28583   0.28878   0.29031
 Alpha virt. eigenvalues --    0.29576   0.29655   0.30221   0.30693   0.31004
 Alpha virt. eigenvalues --    0.31190   0.31247   0.31608   0.32357   0.32807
 Alpha virt. eigenvalues --    0.33434   0.33754   0.34283   0.34398   0.34575
 Alpha virt. eigenvalues --    0.35092   0.36166   0.36563   0.37038   0.37268
 Alpha virt. eigenvalues --    0.37958   0.38334   0.38851   0.39466   0.39851
 Alpha virt. eigenvalues --    0.40298   0.40500   0.40999   0.41344   0.41940
 Alpha virt. eigenvalues --    0.42134   0.42955   0.43455   0.43619   0.44253
 Alpha virt. eigenvalues --    0.44703   0.45052   0.45337   0.45870   0.46151
 Alpha virt. eigenvalues --    0.46689   0.47735   0.48314   0.48376   0.49084
 Alpha virt. eigenvalues --    0.49865   0.50311   0.50952   0.51272   0.52027
 Alpha virt. eigenvalues --    0.52568   0.53524   0.54021   0.54314   0.54954
 Alpha virt. eigenvalues --    0.55164   0.55822   0.56510   0.57023   0.57188
 Alpha virt. eigenvalues --    0.57762   0.57974   0.58692   0.59052   0.59685
 Alpha virt. eigenvalues --    0.60605   0.60854   0.61191   0.62045   0.62379
 Alpha virt. eigenvalues --    0.62710   0.63649   0.64016   0.64317   0.64948
 Alpha virt. eigenvalues --    0.65260   0.65859   0.66330   0.66997   0.67313
 Alpha virt. eigenvalues --    0.67617   0.67796   0.68662   0.69440   0.69803
 Alpha virt. eigenvalues --    0.70298   0.70883   0.71195   0.71426   0.71935
 Alpha virt. eigenvalues --    0.73380   0.73502   0.73791   0.74746   0.75801
 Alpha virt. eigenvalues --    0.76193   0.76496   0.77293   0.77797   0.78198
 Alpha virt. eigenvalues --    0.78531   0.79539   0.79916   0.80038   0.80530
 Alpha virt. eigenvalues --    0.81867   0.82303   0.82953   0.83943   0.84534
 Alpha virt. eigenvalues --    0.85453   0.85841   0.86395   0.87396   0.87946
 Alpha virt. eigenvalues --    0.88226   0.88878   0.89448   0.89914   0.90266
 Alpha virt. eigenvalues --    0.92217   0.92856   0.93398   0.94061   0.95048
 Alpha virt. eigenvalues --    0.95725   0.96488   0.97780   0.98533   0.99279
 Alpha virt. eigenvalues --    1.00625   1.01550   1.02102   1.02832   1.04602
 Alpha virt. eigenvalues --    1.04788   1.06401   1.07288   1.07989   1.08453
 Alpha virt. eigenvalues --    1.09538   1.10395   1.11197   1.12176   1.13048
 Alpha virt. eigenvalues --    1.13665   1.13902   1.14603   1.14728   1.16857
 Alpha virt. eigenvalues --    1.17596   1.17929   1.19260   1.20614   1.21402
 Alpha virt. eigenvalues --    1.22735   1.23175   1.23855   1.24712   1.25996
 Alpha virt. eigenvalues --    1.26400   1.27377   1.27793   1.29763   1.30281
 Alpha virt. eigenvalues --    1.31069   1.33016   1.33212   1.34979   1.35784
 Alpha virt. eigenvalues --    1.36418   1.36826   1.37428   1.38472   1.40412
 Alpha virt. eigenvalues --    1.41044   1.42226   1.44154   1.44700   1.45574
 Alpha virt. eigenvalues --    1.46695   1.47417   1.48478   1.49760   1.50785
 Alpha virt. eigenvalues --    1.51208   1.52071   1.52500   1.53313   1.53690
 Alpha virt. eigenvalues --    1.55233   1.55402   1.56822   1.57217   1.58843
 Alpha virt. eigenvalues --    1.59212   1.60349   1.61087   1.61892   1.63531
 Alpha virt. eigenvalues --    1.64381   1.66034   1.67078   1.67884   1.68659
 Alpha virt. eigenvalues --    1.69468   1.70060   1.72329   1.74036   1.74291
 Alpha virt. eigenvalues --    1.75171   1.75790   1.76230   1.77404   1.78907
 Alpha virt. eigenvalues --    1.79463   1.80398   1.81601   1.82598   1.83797
 Alpha virt. eigenvalues --    1.84592   1.86338   1.86465   1.87153   1.87476
 Alpha virt. eigenvalues --    1.89053   1.89729   1.91785   1.93494   1.95102
 Alpha virt. eigenvalues --    1.95751   1.96469   1.96806   1.99851   1.99985
 Alpha virt. eigenvalues --    2.00519   2.01801   2.02428   2.02734   2.03429
 Alpha virt. eigenvalues --    2.04428   2.05653   2.06596   2.07402   2.07799
 Alpha virt. eigenvalues --    2.09438   2.09630   2.11462   2.12347   2.13023
 Alpha virt. eigenvalues --    2.13614   2.14091   2.15748   2.17104   2.18975
 Alpha virt. eigenvalues --    2.20821   2.22279   2.22944   2.23394   2.24554
 Alpha virt. eigenvalues --    2.25557   2.27049   2.28818   2.29201   2.31170
 Alpha virt. eigenvalues --    2.31239   2.32812   2.33852   2.34424   2.37130
 Alpha virt. eigenvalues --    2.37651   2.41806   2.41868   2.42781   2.43651
 Alpha virt. eigenvalues --    2.44095   2.44850   2.45596   2.47104   2.48017
 Alpha virt. eigenvalues --    2.49127   2.49492   2.51239   2.52921   2.53390
 Alpha virt. eigenvalues --    2.55356   2.57078   2.58313   2.59513   2.61759
 Alpha virt. eigenvalues --    2.62879   2.64936   2.67186   2.68366   2.69798
 Alpha virt. eigenvalues --    2.71834   2.74238   2.75425   2.77046   2.78535
 Alpha virt. eigenvalues --    2.81547   2.81710   2.84440   2.88929   2.89985
 Alpha virt. eigenvalues --    2.91820   2.92544   2.94450   2.97672   3.01417
 Alpha virt. eigenvalues --    3.02059   3.09312   3.16965   3.18103   3.22560
 Alpha virt. eigenvalues --    3.25830   3.30952   3.32073   3.33978   3.34701
 Alpha virt. eigenvalues --    3.41329   3.43101   3.43750   3.45521   3.46073
 Alpha virt. eigenvalues --    3.48145   3.48987   3.50425   3.52080   3.53198
 Alpha virt. eigenvalues --    3.54264   3.56175   3.57647   3.61184   3.62624
 Alpha virt. eigenvalues --    3.63763   3.64541   3.66394   3.67053   3.70687
 Alpha virt. eigenvalues --    3.73060   3.74793   3.76003   3.78533   3.79317
 Alpha virt. eigenvalues --    3.81446   3.89375   3.93810   3.99637   4.06062
 Alpha virt. eigenvalues --    4.08889   4.12608   4.25011   4.32633   5.10746
          Condensed to atoms (all electrons):
               1          2          3          4          5          6
     1  C   12.078000  -4.367959   1.443104   0.284886   0.499261  -0.188601
     2  C   -4.367959  10.990230  -3.855749  -0.662842  -0.908418   0.290438
     3  C    1.443104  -3.855749  18.763336   0.299025   0.242014  -0.457066
     4  O    0.284886  -0.662842   0.299025   8.801775  -0.110877   0.005526
     5  H    0.499261  -0.908418   0.242014  -0.110877   1.955212  -0.016531
     6  O   -0.188601   0.290438  -0.457066   0.005526  -0.016531   9.530609
     7  H    0.143203   0.324561  -1.400368  -0.003344   0.074565  -0.103855
     8  C    0.169321   0.831904  -3.660427  -0.004555  -0.277966  -0.072631
     9  C   -2.553932   1.419814  -2.771728  -0.081534   0.147818  -0.313887
    10  H   -1.443808   0.857264  -0.221314  -0.022191  -0.189526   0.124439
    11  O   -0.927707   0.465923   0.047919  -0.081409  -0.059951   0.006948
    12  C   -0.120785  -0.253346   0.557938   0.028888   0.001579   0.005062
    13  H    0.428994  -0.212080   0.177735   0.024444   0.000879  -0.027516
    14  O   -0.111694   0.044503  -0.030590  -0.000985  -0.004021  -0.025470
    15  H   -0.015672   0.077228   0.001089  -0.000711   0.001188   0.101811
    16  H   -0.070082  -0.014782  -0.024698   0.001535   0.000858  -0.078087
    17  H    0.421956  -0.277459   0.035091   0.015993   0.021776  -0.008150
    18  H   -0.217125   0.186924  -0.114363   0.270281  -0.008356   0.016676
    19  H   -0.012273  -0.003360  -0.040594   0.000079   0.000787   0.030689
    20  C    0.333248  -0.587420  -1.807550   0.001931  -0.038011  -0.034281
    21  N   -0.016306   0.019687   0.183449  -0.002052   0.005519  -0.012791
    22  C   -0.028536  -0.001783  -0.571981   0.002595  -0.001866  -0.006683
    23  N    0.032761  -0.077336   0.470432  -0.000004  -0.030340  -0.001487
    24  C   -0.636552   0.720755  -2.386662  -0.050095   0.079489   0.098565
    25  H   -0.031815   0.113910   0.021825  -0.010155   0.007044   0.044073
    26  H    0.001026  -0.003040  -0.000395  -0.000037  -0.000049  -0.000320
    27  H   -0.008713   0.005915  -0.026009   0.000205   0.001036  -0.002470
    28  O    0.000619   0.000002   0.027100  -0.000038  -0.000719   0.000176
    29  O    0.101511  -0.024816   0.067869  -0.003536   0.020312  -0.001404
               7          8          9         10         11         12
     1  C    0.143203   0.169321  -2.553932  -1.443808  -0.927707  -0.120785
     2  C    0.324561   0.831904   1.419814   0.857264   0.465923  -0.253346
     3  C   -1.400368  -3.660427  -2.771728  -0.221314   0.047919   0.557938
     4  O   -0.003344  -0.004555  -0.081534  -0.022191  -0.081409   0.028888
     5  H    0.074565  -0.277966   0.147818  -0.189526  -0.059951   0.001579
     6  O   -0.103855  -0.072631  -0.313887   0.124439   0.006948   0.005062
     7  H    2.248521   0.520542   0.056240  -0.020641  -0.015873  -0.003133
     8  C    0.520542  15.171753   0.309738  -0.044435  -0.039270  -0.259170
     9  C    0.056240   0.309738  10.767702  -0.562137   0.212791  -0.393404
    10  H   -0.020641  -0.044435  -0.562137   2.849239  -0.006273  -0.009655
    11  O   -0.015873  -0.039270   0.212791  -0.006273   8.683219   0.008086
    12  C   -0.003133  -0.259170  -0.393404  -0.009655   0.008086   5.158028
    13  H    0.022792  -0.012148  -1.089364   0.137550  -0.048430  -0.037500
    14  O   -0.000825   0.006472   0.070111   0.043580   0.010487   0.054138
    15  H   -0.003464  -0.010034  -0.159565  -0.013618   0.021745   0.127718
    16  H   -0.002837   0.028532   0.368047   0.021027   0.002349   0.062524
    17  H    0.005422   0.005003  -0.029606  -0.193443   0.279339   0.003955
    18  H   -0.012296   0.009186   0.033189   0.043747   0.057262  -0.004978
    19  H    0.001315   0.028499   0.017816  -0.009361   0.000097  -0.035898
    20  C   -0.066502  -4.119985  -0.208496   0.019529  -0.000512  -0.100803
    21  N    0.000070   0.516800   0.014331  -0.001672  -0.000005   0.006519
    22  C    0.001560  -0.094643   0.003065   0.000434   0.000764  -0.013507
    23  N   -0.015401  -0.300639  -0.056209   0.003723   0.001420   0.001776
    24  C   -0.053257  -4.189132   0.206778   0.139284   0.017797  -0.000576
    25  H   -0.097671   0.388534   0.055853   0.000756  -0.000259  -0.003776
    26  H   -0.002416   0.089845  -0.001014   0.000120   0.000008  -0.000152
    27  H    0.000774   0.182452   0.004178  -0.000794   0.000228  -0.000167
    28  O    0.000583   0.038539  -0.000219   0.000339  -0.000003   0.000346
    29  O    0.009578  -0.215324  -0.055976   0.001194  -0.001829   0.017614
              13         14         15         16         17         18
     1  C    0.428994  -0.111694  -0.015672  -0.070082   0.421956  -0.217125
     2  C   -0.212080   0.044503   0.077228  -0.014782  -0.277459   0.186924
     3  C    0.177735  -0.030590   0.001089  -0.024698   0.035091  -0.114363
     4  O    0.024444  -0.000985  -0.000711   0.001535   0.015993   0.270281
     5  H    0.000879  -0.004021   0.001188   0.000858   0.021776  -0.008356
     6  O   -0.027516  -0.025470   0.101811  -0.078087  -0.008150   0.016676
     7  H    0.022792  -0.000825  -0.003464  -0.002837   0.005422  -0.012296
     8  C   -0.012148   0.006472  -0.010034   0.028532   0.005003   0.009186
     9  C   -1.089364   0.070111  -0.159565   0.368047  -0.029606   0.033189
    10  H    0.137550   0.043580  -0.013618   0.021027  -0.193443   0.043747
    11  O   -0.048430   0.010487   0.021745   0.002349   0.279339   0.057262
    12  C   -0.037500   0.054138   0.127718   0.062524   0.003955  -0.004978
    13  H    2.212185   0.020020  -0.099047  -0.017764  -0.014341   0.006037
    14  O    0.020020   8.414615  -0.122314  -0.053534  -0.003662   0.000597
    15  H   -0.099047  -0.122314   1.646297  -0.315139  -0.004278   0.002424
    16  H   -0.017764  -0.053534  -0.315139   1.347293  -0.000605  -0.000834
    17  H   -0.014341  -0.003662  -0.004278  -0.000605   0.610709  -0.018492
    18  H    0.006037   0.000597   0.002424  -0.000834  -0.018492   0.591098
    19  H   -0.002114   0.229785   0.017671  -0.037267  -0.000132  -0.000095
    20  C    0.013597   0.004276  -0.006458  -0.000620   0.001132  -0.007954
    21  N   -0.000371  -0.000162   0.000274   0.000551  -0.000012   0.000028
    22  C    0.000544  -0.000926  -0.000563  -0.000482  -0.000176   0.000063
    23  N   -0.002232  -0.001104   0.000897  -0.002659   0.000098  -0.000513
    24  C    0.016256   0.008358  -0.009506   0.010967  -0.015521   0.012377
    25  H    0.002633   0.000013   0.000331   0.000351  -0.000520   0.001800
    26  H    0.000053  -0.000021  -0.000012  -0.000033   0.000004  -0.000006
    27  H    0.000098  -0.000019  -0.000147   0.000401  -0.000146   0.000049
    28  O   -0.000051   0.000040   0.000023  -0.000005  -0.000003   0.000018
    29  O    0.003243  -0.017867   0.004994  -0.002944   0.000041  -0.000909
              19         20         21         22         23         24
     1  C   -0.012273   0.333248  -0.016306  -0.028536   0.032761  -0.636552
     2  C   -0.003360  -0.587420   0.019687  -0.001783  -0.077336   0.720755
     3  C   -0.040594  -1.807550   0.183449  -0.571981   0.470432  -2.386662
     4  O    0.000079   0.001931  -0.002052   0.002595  -0.000004  -0.050095
     5  H    0.000787  -0.038011   0.005519  -0.001866  -0.030340   0.079489
     6  O    0.030689  -0.034281  -0.012791  -0.006683  -0.001487   0.098565
     7  H    0.001315  -0.066502   0.000070   0.001560  -0.015401  -0.053257
     8  C    0.028499  -4.119985   0.516800  -0.094643  -0.300639  -4.189132
     9  C    0.017816  -0.208496   0.014331   0.003065  -0.056209   0.206778
    10  H   -0.009361   0.019529  -0.001672   0.000434   0.003723   0.139284
    11  O    0.000097  -0.000512  -0.000005   0.000764   0.001420   0.017797
    12  C   -0.035898  -0.100803   0.006519  -0.013507   0.001776  -0.000576
    13  H   -0.002114   0.013597  -0.000371   0.000544  -0.002232   0.016256
    14  O    0.229785   0.004276  -0.000162  -0.000926  -0.001104   0.008358
    15  H    0.017671  -0.006458   0.000274  -0.000563   0.000897  -0.009506
    16  H   -0.037267  -0.000620   0.000551  -0.000482  -0.002659   0.010967
    17  H   -0.000132   0.001132  -0.000012  -0.000176   0.000098  -0.015521
    18  H   -0.000095  -0.007954   0.000028   0.000063  -0.000513   0.012377
    19  H    0.619902  -0.005009   0.000701   0.001909  -0.007393  -0.003193
    20  C   -0.005009  16.236912  -1.450704   0.164171   0.401804  -2.463125
    21  N    0.000701  -1.450704   7.880720  -0.190910  -0.071172   0.230012
    22  C    0.001909   0.164171  -0.190910   6.336448  -0.055770  -0.101389
    23  N   -0.007393   0.401804  -0.071172  -0.055770   7.810992  -0.712746
    24  C   -0.003193  -2.463125   0.230012  -0.101389  -0.712746  14.585142
    25  H    0.000331  -1.222094   0.220045  -0.058744  -0.049070   0.235181
    26  H   -0.000161  -0.243242   0.476207  -0.106584   0.010881  -0.061409
    27  H    0.000103  -0.158876   0.028492  -0.170123   0.312124  -0.154555
    28  O   -0.000232  -0.019817  -0.060685   0.071380  -0.120168   0.101986
    29  O    0.028463  -0.041999   0.002251  -0.021954  -0.163271   0.219935
              25         26         27         28         29
     1  C   -0.031815   0.001026  -0.008713   0.000619   0.101511
     2  C    0.113910  -0.003040   0.005915   0.000002  -0.024816
     3  C    0.021825  -0.000395  -0.026009   0.027100   0.067869
     4  O   -0.010155  -0.000037   0.000205  -0.000038  -0.003536
     5  H    0.007044  -0.000049   0.001036  -0.000719   0.020312
     6  O    0.044073  -0.000320  -0.002470   0.000176  -0.001404
     7  H   -0.097671  -0.002416   0.000774   0.000583   0.009578
     8  C    0.388534   0.089845   0.182452   0.038539  -0.215324
     9  C    0.055853  -0.001014   0.004178  -0.000219  -0.055976
    10  H    0.000756   0.000120  -0.000794   0.000339   0.001194
    11  O   -0.000259   0.000008   0.000228  -0.000003  -0.001829
    12  C   -0.003776  -0.000152  -0.000167   0.000346   0.017614
    13  H    0.002633   0.000053   0.000098  -0.000051   0.003243
    14  O    0.000013  -0.000021  -0.000019   0.000040  -0.017867
    15  H    0.000331  -0.000012  -0.000147   0.000023   0.004994
    16  H    0.000351  -0.000033   0.000401  -0.000005  -0.002944
    17  H   -0.000520   0.000004  -0.000146  -0.000003   0.000041
    18  H    0.001800  -0.000006   0.000049   0.000018  -0.000909
    19  H    0.000331  -0.000161   0.000103  -0.000232   0.028463
    20  C   -1.222094  -0.243242  -0.158876  -0.019817  -0.041999
    21  N    0.220045   0.476207   0.028492  -0.060685   0.002251
    22  C   -0.058744  -0.106584  -0.170123   0.071380  -0.021954
    23  N   -0.049070   0.010881   0.312124  -0.120168  -0.163271
    24  C    0.235181  -0.061409  -0.154555   0.101986   0.219935
    25  H    2.079035  -0.028599  -0.003397   0.003633  -0.006646
    26  H   -0.028599   0.811015  -0.004378   0.003449   0.001619
    27  H   -0.003397  -0.004378   1.081851  -0.001232  -0.027408
    28  O    0.003633   0.003449  -0.001232   8.510611  -0.001276
    29  O   -0.006646   0.001619  -0.027408  -0.001276   8.909617
 Mulliken charges:
               1
     1  C    0.813668
     2  C    0.901332
     3  C    1.031567
     4  O   -0.702799
     5  H   -0.412706
     6  O   -0.903784
     7  H   -0.607845
     8  C    1.003240
     9  C    0.589602
    10  H   -0.503357
    11  O   -0.634862
    12  C    1.202682
    13  H   -0.504101
    14  O   -0.533801
    15  H   -0.243166
    16  H   -0.222062
    17  H    0.166026
    18  H    0.154164
    19  H    0.178934
    20  C    1.406858
    21  N   -0.778812
    22  C    0.843687
    23  N   -0.379392
    24  C    0.154835
    25  H   -0.662599
    26  H    0.057640
    27  H   -0.059473
    28  O   -0.554395
    29  O   -0.801084
 Sum of Mulliken charges =  -0.00000
 Mulliken charges with hydrogens summed into heavy atoms:
               1
     1  C    0.310311
     2  C    0.488626
     3  C    0.423722
     4  O   -0.548635
     6  O   -0.903784
     8  C    1.003240
     9  C    0.085501
    11  O   -0.468836
    12  C    0.737454
    14  O   -0.354866
    20  C    0.744259
    21  N   -0.721172
    22  C    0.843687
    23  N   -0.438864
    24  C    0.154835
    28  O   -0.554395
    29  O   -0.801084
 Electronic spatial extent (au):  <R**2>=           4179.3092
 Charge=              0.0000 electrons
 Dipole moment (field-independent basis, Debye):
    X=             -1.3603    Y=             -3.2202    Z=              0.6718  Tot=              3.5597
 Quadrupole moment (field-independent basis, Debye-Ang):
   XX=            -99.4197   YY=           -107.2448   ZZ=            -92.2208
   XY=              6.9097   XZ=            -11.0296   YZ=             -2.8427
 Traceless Quadrupole moment (field-independent basis, Debye-Ang):
   XX=              0.2087   YY=             -7.6164   ZZ=              7.4077
   XY=              6.9097   XZ=            -11.0296   YZ=             -2.8427
 Octapole moment (field-independent basis, Debye-Ang**2):
  XXX=             99.0569  YYY=             -6.3805  ZZZ=            -16.4557  XYY=            -38.3879
  XXY=            -45.0733  XXZ=             14.1891  XZZ=              9.8305  YZZ=             -6.1400
  YYZ=              9.4566  XYZ=             22.6191
 Hexadecapole moment (field-independent basis, Debye-Ang**3):
 XXXX=          -4174.8993 YYYY=          -1193.1465 ZZZZ=           -449.6527 XXXY=            196.1155
 XXXZ=           -239.5245 YYYX=            -49.7413 YYYZ=            -22.3684 ZZZX=            -53.1296
 ZZZY=             -5.2285 XXYY=           -761.7476 XXZZ=           -582.8663 YYZZ=           -235.7835
 XXYZ=            -29.4595 YYXZ=            -10.6101 ZZXY=              0.2200
 N-N= 1.329439465256D+03 E-N=-4.791468214492D+03  KE= 9.054140780340D+02
 Calling FoFJK, ICntrl=      2127 FMM=F ISym2X=0 I1Cent= 0 IOpClX= 0 NMat=1 NMatS=1 NMatT=0.
 ***** Axes restored to original set *****
 -------------------------------------------------------------------
 Center     Atomic                   Forces (Hartrees/Bohr)
 Number     Number              X              Y              Z
 -------------------------------------------------------------------
      1        6           0.000930804    0.000022892    0.000794792
      2        6          -0.000356492    0.000975319    0.004634729
      3        6          -0.008793930    0.015316320    0.000684191
      4        8          -0.002759833    0.002047852   -0.002148339
      5        1          -0.000870601    0.000283593   -0.000918247
      6        8          -0.010511065   -0.009748330    0.003766353
      7        1          -0.007792469    0.003299867    0.001718249
      8        6           0.025445677    0.037503570    0.032182663
      9        6           0.003028014    0.000784883    0.002030930
     10        1          -0.000141016    0.000019694   -0.000073693
     11        8          -0.001753119   -0.000018981   -0.000961106
     12        6          -0.000452423    0.000868526    0.000018935
     13        1          -0.000839725    0.000261017   -0.000056138
     14        8           0.000165604   -0.001069541   -0.000156006
     15        1          -0.000139087   -0.000310298   -0.000107004
     16        1           0.000110433   -0.000048053    0.000060636
     17        1           0.000199599    0.000100435    0.000222212
     18        1           0.000340130    0.000348586   -0.000287110
     19        1          -0.000158918    0.000797636    0.000087675
     20        6          -0.031902625   -0.006838047   -0.007980408
     21        7           0.052173966   -0.006032257   -0.002577764
     22        6          -0.007164266    0.002106266    0.001996795
     23        7           0.019705939    0.003533308    0.003660007
     24        6          -0.000736619   -0.017734008   -0.014350281
     25        1           0.012157102    0.002905350    0.003214812
     26        1          -0.037275021   -0.030282642   -0.026470283
     27        1           0.005483415    0.000490590    0.000570475
     28        8          -0.008148212    0.015706638    0.012126235
     29        8           0.000054741   -0.015290185   -0.011683312
 -------------------------------------------------------------------
 Cartesian Forces:  Max     0.052173966 RMS     0.012074347

 GradGradGradGradGradGradGradGradGradGradGradGradGradGradGradGradGradGrad
 Berny optimization.
 FormGI is forming the generalized inverse of G from B-inverse, IUseBI=4.
 Internal  Forces:  Max     0.054695851 RMS     0.008977160
 Search for a local minimum.
 Step number   1 out of a maximum of  173
 All quantities printed in internal units (Hartrees-Bohrs-Radians)
 Mixed Optimization -- RFO/linear search
 Second derivative matrix not updated -- first step.
 ITU=  0
     Eigenvalues ---    0.00367   0.00567   0.00928   0.01279   0.01309
     Eigenvalues ---    0.01426   0.01550   0.01575   0.01590   0.01736
     Eigenvalues ---    0.01853   0.01947   0.02064   0.02175   0.02344
     Eigenvalues ---    0.02394   0.03057   0.03759   0.04345   0.04886
     Eigenvalues ---    0.04909   0.05069   0.05422   0.05604   0.06105
     Eigenvalues ---    0.06119   0.06142   0.06553   0.07986   0.08468
     Eigenvalues ---    0.10195   0.11680   0.13236   0.14039   0.16000
     Eigenvalues ---    0.16000   0.16000   0.16000   0.16000   0.16000
     Eigenvalues ---    0.16040   0.17536   0.19191   0.19711   0.22088
     Eigenvalues ---    0.22359   0.23426   0.24586   0.24965   0.24999
     Eigenvalues ---    0.25000   0.26526   0.27666   0.28915   0.30850
     Eigenvalues ---    0.33247   0.33255   0.33690   0.33737   0.33754
     Eigenvalues ---    0.34332   0.34936   0.35343   0.37094   0.37140
     Eigenvalues ---    0.39005   0.42449   0.42643   0.42727   0.44191
     Eigenvalues ---    0.44371   0.45418   0.46367   0.48109   0.50085
     Eigenvalues ---    0.53468   0.53795   0.54079   0.55320   0.93966
     Eigenvalues ---    0.96910
 RFO step:  Lambda=-3.40920777D-02 EMin= 3.67248213D-03
 Linear search not attempted -- first point.
 Maximum step size (   0.300) exceeded in Quadratic search.
    -- Step size scaled by   0.977
 Iteration  1 RMS(Cart)=  0.06734171 RMS(Int)=  0.00149245
 Iteration  2 RMS(Cart)=  0.00184564 RMS(Int)=  0.00016784
 Iteration  3 RMS(Cart)=  0.00000145 RMS(Int)=  0.00016784
 Iteration  4 RMS(Cart)=  0.00000000 RMS(Int)=  0.00016784
 Variable       Old X    -DE/DX   Delta X   Delta X   Delta X     New X
                                 (Linear)    (Quad)   (Total)
    R1        2.91009   0.00139   0.00000   0.00180   0.00178   2.91187
    R2        2.88699   0.00050   0.00000  -0.00077  -0.00083   2.88616
    R3        2.06774  -0.00000   0.00000  -0.00001  -0.00001   2.06772
    R4        2.68356   0.00159   0.00000   0.00340   0.00340   2.68695
    R5        2.91117   0.00214   0.00000   0.00833   0.00839   2.91956
    R6        2.66226   0.00272   0.00000   0.00559   0.00559   2.66785
    R7        2.07857   0.00030   0.00000   0.00080   0.00080   2.07937
    R8        2.65485   0.01204   0.00000   0.02650   0.02655   2.68140
    R9        2.07777   0.00322   0.00000   0.00847   0.00847   2.08624
   R10        2.75705   0.03362   0.00000   0.08106   0.08106   2.83811
   R11        1.83219  -0.00028   0.00000  -0.00048  -0.00048   1.83171
   R12        2.70179  -0.00270   0.00000  -0.00589  -0.00592   2.69587
   R13        2.59746  -0.01617   0.00000  -0.02759  -0.02720   2.57026
   R14        2.62049   0.05470   0.00000   0.10904   0.10901   2.72951
   R15        2.86301  -0.00013   0.00000  -0.00037  -0.00037   2.86263
   R16        2.08605   0.00065   0.00000   0.00173   0.00173   2.08778
   R17        1.81549  -0.00028   0.00000  -0.00046  -0.00046   1.81503
   R18        2.66014   0.00021   0.00000   0.00042   0.00042   2.66056
   R19        2.07748   0.00019   0.00000   0.00051   0.00051   2.07798
   R20        2.08619   0.00009   0.00000   0.00023   0.00023   2.08643
   R21        1.82919   0.00011   0.00000   0.00019   0.00019   1.82938
   R22        2.54971   0.01126   0.00000   0.01641   0.01682   2.56654
   R23        2.05778   0.00073   0.00000   0.00185   0.00185   2.05964
   R24        2.74095  -0.03956   0.00000  -0.09900  -0.09894   2.64201
   R25        2.05122  -0.05467   0.00000  -0.13777  -0.13777   1.91345
   R26        2.65330  -0.01815   0.00000  -0.03841  -0.03881   2.61449
   R27        2.29902  -0.01525   0.00000  -0.01485  -0.01485   2.28417
   R28        2.58960   0.01738   0.00000   0.03373   0.03331   2.62290
   R29        1.91494   0.00026   0.00000   0.00052   0.00052   1.91546
   R30        2.31157   0.01298   0.00000   0.01302   0.01302   2.32459
    A1        1.80832   0.00170   0.00000   0.00225   0.00221   1.81054
    A2        1.92505  -0.00015   0.00000   0.00021   0.00020   1.92526
    A3        1.94969  -0.00060   0.00000   0.00084   0.00086   1.95055
    A4        1.91762  -0.00040   0.00000   0.00047   0.00049   1.91811
    A5        1.91306  -0.00050   0.00000  -0.00025  -0.00025   1.91281
    A6        1.94533   0.00005   0.00000  -0.00312  -0.00312   1.94221
    A7        1.80752   0.00014   0.00000   0.00243   0.00250   1.81002
    A8        1.93405  -0.00135   0.00000  -0.00643  -0.00653   1.92752
    A9        1.96005   0.00003   0.00000  -0.00386  -0.00393   1.95613
   A10        1.88420   0.00261   0.00000   0.01857   0.01857   1.90278
   A11        1.94203  -0.00045   0.00000  -0.00064  -0.00064   1.94139
   A12        1.93127  -0.00080   0.00000  -0.00838  -0.00843   1.92284
   A13        1.89071  -0.00269   0.00000  -0.01173  -0.01184   1.87887
   A14        1.87056  -0.00332   0.00000  -0.02899  -0.02938   1.84118
   A15        2.02553   0.00171   0.00000   0.00992   0.00996   2.03549
   A16        1.93095  -0.00058   0.00000  -0.01392  -0.01459   1.91636
   A17        1.90212   0.00134   0.00000   0.00783   0.00783   1.90995
   A18        1.84315   0.00353   0.00000   0.03595   0.03612   1.87927
   A19        1.84784   0.00039   0.00000   0.00197   0.00197   1.84980
   A20        1.92902   0.00010   0.00000   0.00440   0.00446   1.93348
   A21        2.09749   0.00322   0.00000   0.00530   0.00510   2.10259
   A22        2.07461   0.01532   0.00000   0.04692   0.04674   2.12135
   A23        2.10984  -0.01852   0.00000  -0.05189  -0.05153   2.05831
   A24        1.84242   0.00063   0.00000  -0.00021  -0.00025   1.84217
   A25        2.00367   0.00027   0.00000  -0.00042  -0.00042   2.00325
   A26        1.89859  -0.00058   0.00000  -0.00134  -0.00133   1.89726
   A27        1.88640  -0.00099   0.00000  -0.00257  -0.00254   1.88386
   A28        1.91800   0.00060   0.00000   0.00521   0.00521   1.92321
   A29        1.91278   0.00012   0.00000  -0.00030  -0.00030   1.91247
   A30        1.89998  -0.00020   0.00000  -0.00099  -0.00099   1.89899
   A31        1.97827  -0.00058   0.00000  -0.00243  -0.00243   1.97584
   A32        1.89507   0.00063   0.00000   0.00398   0.00398   1.89906
   A33        1.88684  -0.00006   0.00000  -0.00107  -0.00108   1.88576
   A34        1.87278  -0.00000   0.00000   0.00016   0.00016   1.87294
   A35        1.94588   0.00013   0.00000  -0.00070  -0.00071   1.94517
   A36        1.88222  -0.00007   0.00000   0.00036   0.00036   1.88258
   A37        1.89917  -0.00124   0.00000  -0.00626  -0.00626   1.89291
   A38        2.15394   0.00012   0.00000  -0.00225  -0.00147   2.15246
   A39        2.00144   0.01319   0.00000   0.06783   0.06744   2.06888
   A40        2.12780  -0.01332   0.00000  -0.06559  -0.06597   2.06182
   A41        2.08873   0.01893   0.00000   0.05577   0.05621   2.14494
   A42        2.12285  -0.00502   0.00000  -0.00552  -0.00574   2.11711
   A43        2.07158  -0.01391   0.00000  -0.05026  -0.05047   2.02111
   A44        1.97073   0.00219   0.00000  -0.00673  -0.00709   1.96363
   A45        2.21437  -0.01843   0.00000  -0.05623  -0.05605   2.15832
   A46        2.09808   0.01624   0.00000   0.06297   0.06315   2.16123
   A47        2.23930   0.00007   0.00000   0.00101   0.00025   2.23956
   A48        2.03174  -0.00533   0.00000  -0.02714  -0.02676   2.00498
   A49        2.01213   0.00526   0.00000   0.02613   0.02651   2.03864
   A50        2.00352  -0.00280   0.00000   0.00412   0.00367   2.00719
   A51        2.14193   0.01782   0.00000   0.05439   0.05461   2.19654
   A52        2.13770  -0.01502   0.00000  -0.05849  -0.05826   2.07944
    D1        0.37884   0.00114   0.00000   0.01053   0.01053   0.38937
    D2       -1.63754  -0.00135   0.00000  -0.00943  -0.00941  -1.64695
    D3        2.47590   0.00070   0.00000   0.00927   0.00926   2.48516
    D4       -1.67269   0.00075   0.00000   0.00866   0.00866  -1.66403
    D5        2.59412  -0.00173   0.00000  -0.01130  -0.01128   2.58283
    D6        0.42437   0.00031   0.00000   0.00739   0.00739   0.43176
    D7        2.43674   0.00124   0.00000   0.01194   0.01194   2.44868
    D8        0.42036  -0.00125   0.00000  -0.00802  -0.00801   0.41235
    D9       -1.74939   0.00080   0.00000   0.01067   0.01067  -1.73872
   D10       -0.50986  -0.00098   0.00000  -0.00658  -0.00654  -0.51640
   D11       -2.58546  -0.00034   0.00000  -0.00300  -0.00298  -2.58844
   D12        1.54773  -0.00024   0.00000  -0.00128  -0.00126   1.54648
   D13        1.54685  -0.00043   0.00000  -0.00491  -0.00489   1.54196
   D14       -0.52875   0.00021   0.00000  -0.00133  -0.00133  -0.53008
   D15       -2.67874   0.00031   0.00000   0.00040   0.00040  -2.67834
   D16       -2.59304  -0.00096   0.00000  -0.00866  -0.00864  -2.60168
   D17        1.61453  -0.00032   0.00000  -0.00508  -0.00508   1.60946
   D18       -0.53545  -0.00022   0.00000  -0.00335  -0.00335  -0.53881
   D19        1.79890  -0.00074   0.00000  -0.00272  -0.00271   1.79619
   D20       -2.49027   0.00068   0.00000   0.00035   0.00033  -2.48994
   D21       -0.36349  -0.00013   0.00000  -0.00130  -0.00129  -0.36479
   D22       -0.12565  -0.00138   0.00000  -0.01108  -0.01095  -0.13660
   D23       -2.20966   0.00260   0.00000   0.02783   0.02757  -2.18209
   D24        2.01965  -0.00054   0.00000  -0.00303  -0.00301   2.01664
   D25        1.92586  -0.00171   0.00000  -0.00903  -0.00884   1.91702
   D26       -0.15815   0.00228   0.00000   0.02988   0.02967  -0.12848
   D27       -2.21203  -0.00086   0.00000  -0.00098  -0.00091  -2.21293
   D28       -2.23494  -0.00127   0.00000  -0.00761  -0.00744  -2.24238
   D29        1.96424   0.00272   0.00000   0.03129   0.03108   1.99532
   D30       -0.08964  -0.00042   0.00000   0.00044   0.00050  -0.08914
   D31       -0.39134   0.00055   0.00000   0.00342   0.00340  -0.38794
   D32       -2.35944  -0.00035   0.00000  -0.00636  -0.00639  -2.36583
   D33        1.79471  -0.00099   0.00000  -0.01241  -0.01236   1.78234
   D34       -0.20524   0.00133   0.00000   0.00777   0.00766  -0.19758
   D35        1.84035  -0.00461   0.00000  -0.04213  -0.04198   1.79838
   D36       -2.42364   0.00011   0.00000  -0.00197  -0.00201  -2.42565
   D37        2.16659  -0.00006   0.00000  -0.01006  -0.01012   2.15647
   D38       -1.02810  -0.00016   0.00000  -0.00463  -0.00449  -1.03259
   D39       -1.97729  -0.00132   0.00000  -0.01219  -0.01230  -1.98959
   D40        1.11121  -0.00142   0.00000  -0.00677  -0.00667   1.10454
   D41        0.09762   0.00062   0.00000  -0.00488  -0.00501   0.09261
   D42       -3.09707   0.00051   0.00000   0.00054   0.00062  -3.09645
   D43        0.45500  -0.00071   0.00000  -0.00091  -0.00088   0.45412
   D44        2.60698  -0.00057   0.00000  -0.00294  -0.00291   2.60407
   D45       -1.58951  -0.00068   0.00000  -0.00182  -0.00179  -1.59130
   D46        3.11535   0.00070   0.00000   0.00735   0.00717   3.12252
   D47       -0.03174   0.00053   0.00000   0.00626   0.00609  -0.02564
   D48        0.02794  -0.00026   0.00000  -0.00127  -0.00123   0.02671
   D49       -3.11915  -0.00043   0.00000  -0.00237  -0.00231  -3.12145
   D50       -3.11301  -0.00033   0.00000  -0.00483  -0.00483  -3.11784
   D51        0.03693  -0.00040   0.00000  -0.00692  -0.00695   0.02999
   D52       -0.02490   0.00026   0.00000   0.00246   0.00235  -0.02255
   D53        3.12504   0.00020   0.00000   0.00038   0.00024   3.12528
   D54        0.82477   0.00039   0.00000   0.00220   0.00219   0.82696
   D55       -1.25449   0.00033   0.00000   0.00081   0.00080  -1.25370
   D56        2.99111   0.00011   0.00000  -0.00117  -0.00118   2.98992
   D57       -1.22605   0.00011   0.00000   0.00450   0.00451  -1.22154
   D58        2.97787   0.00005   0.00000   0.00311   0.00312   2.98099
   D59        0.94029  -0.00017   0.00000   0.00113   0.00114   0.94142
   D60        2.96714  -0.00009   0.00000  -0.00010  -0.00010   2.96705
   D61        0.88788  -0.00015   0.00000  -0.00149  -0.00149   0.88639
   D62       -1.14971  -0.00037   0.00000  -0.00347  -0.00347  -1.15317
   D63        0.66926  -0.00054   0.00000  -0.00741  -0.00741   0.66185
   D64        2.76128  -0.00011   0.00000  -0.00381  -0.00381   2.75747
   D65       -1.46457  -0.00012   0.00000  -0.00367  -0.00367  -1.46825
   D66       -0.01206  -0.00022   0.00000  -0.00206  -0.00206  -0.01411
   D67        3.13667  -0.00019   0.00000  -0.00117  -0.00112   3.13555
   D68        3.13542  -0.00013   0.00000  -0.00131  -0.00139   3.13403
   D69        0.00096  -0.00010   0.00000  -0.00042  -0.00045   0.00051
   D70       -0.00407  -0.00005   0.00000   0.00196   0.00198  -0.00209
   D71        3.14097  -0.00011   0.00000  -0.00021  -0.00012   3.14085
   D72        3.13060  -0.00005   0.00000   0.00127   0.00124   3.13184
   D73       -0.00754  -0.00011   0.00000  -0.00091  -0.00086  -0.00840
   D74        0.00540  -0.00004   0.00000  -0.00078  -0.00078   0.00462
   D75       -3.13030  -0.00001   0.00000  -0.00121  -0.00125  -3.13155
   D76       -3.13939  -0.00006   0.00000   0.00098   0.00107  -3.13832
   D77        0.00810  -0.00003   0.00000   0.00055   0.00060   0.00869
   D78        0.00883  -0.00004   0.00000  -0.00120  -0.00117   0.00766
   D79       -3.14109   0.00020   0.00000   0.00149   0.00137  -3.13972
   D80       -3.13860  -0.00010   0.00000  -0.00092  -0.00084  -3.13944
   D81       -0.00533   0.00014   0.00000   0.00176   0.00170  -0.00364
         Item               Value     Threshold  Converged?
 Maximum Force            0.054696     0.000450     NO 
 RMS     Force            0.008977     0.000300     NO 
 Maximum Displacement     0.341368     0.001800     NO 
 RMS     Displacement     0.067653     0.001200     NO 
 Predicted change in Energy=-1.868032D-02
 GradGradGradGradGradGradGradGradGradGradGradGradGradGradGradGradGradGrad

                          Input orientation:                          
 ---------------------------------------------------------------------
 Center     Atomic      Atomic             Coordinates (Angstroms)
 Number     Number       Type             X           Y           Z
 ---------------------------------------------------------------------
      1          6           0       -2.337624    0.215383   -0.611523
      2          6           0       -1.247732    1.304587   -0.600338
      3          6           0       -0.365462    0.927212    0.610491
      4          8           0       -1.821881    2.574205   -0.373376
      5          1           0       -0.662691    1.313847   -1.532229
      6          8           0       -1.013763   -0.128036    1.302977
      7          1           0       -0.335954    1.829202    1.246364
      8          6           0        1.052726    0.532518    0.312912
      9          6           0       -2.346296   -0.303735    0.824809
     10          1           0       -2.061445   -0.591199   -1.297387
     11          8           0       -3.614942    0.751152   -0.932671
     12          6           0       -2.704072   -1.768714    0.968244
     13          1           0       -3.048392    0.308656    1.418644
     14          8           0       -2.005057   -2.600747    0.073089
     15          1           0       -3.776797   -1.893577    0.761273
     16          1           0       -2.524954   -2.063437    2.017087
     17          1           0       -3.819997    0.536382   -1.846088
     18          1           0       -2.752563    2.496556   -0.632884
     19          1           0       -1.100635   -2.266523   -0.013323
     20          6           0        2.089152    1.191964    0.896762
     21          7           0        3.391732    0.870189    0.686226
     22          6           0        3.789220   -0.184204   -0.141372
     23          7           0        2.714844   -0.848152   -0.706214
     24          6           0        1.361153   -0.585553   -0.547936
     25          1           0        1.866853    2.025156    1.563310
     26          1           0        4.139841    1.385671    1.133301
     27          1           0        2.962353   -1.626335   -1.306708
     28          8           0        4.943853   -0.482135   -0.339091
     29          8           0        0.541509   -1.291246   -1.133918
 ---------------------------------------------------------------------
                    Distance matrix (angstroms):
                    1          2          3          4          5
     1  C    0.000000
     2  C    1.540895   0.000000
     3  C    2.426817   1.544966   0.000000
     4  O    2.426261   1.411767   2.408679   0.000000
     5  H    2.204478   1.100354   2.197516   2.067647   0.000000
     6  O    2.352840   2.393692   1.418935   3.281054   3.200104
     7  H    3.172198   2.125293   1.103990   2.320898   2.844807
     8  C    3.528403   2.592725   1.501864   3.592053   2.637740
     9  C    1.527288   2.413419   2.341979   3.161201   3.317638
    10  H    1.094193   2.177616   2.970172   3.306201   2.375050
    11  O    1.421875   2.453655   3.601592   2.617518   3.064618
    12  C    2.562536   3.745205   3.586795   4.630243   4.463382
    13  H    2.153015   2.882802   2.869466   3.138212   3.925510
    14  O    2.917170   4.034685   3.927284   5.197404   4.438810
    15  H    2.898879   4.298652   4.429084   5.007015   5.024477
    16  H    3.483921   4.452617   3.947898   5.264631   5.241346
    17  H    1.955664   2.959490   4.256916   3.211553   3.266733
    18  H    2.318702   1.919991   3.115618   0.969300   2.564213
    19  H    2.836872   3.622023   3.336100   4.907390   3.913810
    20  C    4.777550   3.659069   2.485393   4.338205   3.672532
    21  N    5.910875   4.834106   3.758390   5.586429   4.642922
    22  C    6.157835   5.272384   4.365997   6.256764   4.898791
    23  N    5.164059   4.510821   3.791295   5.692555   4.094421
    24  C    3.785035   3.222058   2.571305   4.488457   2.944910
    25  H    5.067821   3.860212   2.663940   4.202257   4.060408
    26  H    6.809665   5.660214   4.558648   6.262972   5.493134
    27  H    5.653757   5.178232   4.612007   6.434636   4.672951
    28  O    7.319881   6.449523   5.574656   7.424119   6.006868
    29  O    3.291236   3.197568   2.964307   4.594099   2.897457
                    6          7          8          9         10
     6  O    0.000000
     7  H    2.072055   0.000000
     8  C    2.384730   2.116874   0.000000
     9  C    1.426591   2.961183   3.537614   0.000000
[...]
 05491,-0.00032859,0.00004497,0.00317022,0.00204940,-0.00273405,-0.0335
 6187,0.00126800,0.00090704,0.03058001,-0.02640786,-0.02026394,-0.20547
 467,-0.03284510,-0.02458782,0.70516964,-0.00004233,-0.00058565,-0.0003
 5137,-0.00046542,0.00023725,-0.00059827,-0.00261907,-0.00441148,-0.004
 03877,0.00021764,0.00009970,0.00032896,-0.00006394,-0.00009344,0.00022
 013,0.00064501,0.00138912,0.00028707,0.00172387,-0.00035655,-0.0002790
 8,0.03403157,0.00187883,-0.00608425,-0.00041507,-0.00008213,-0.0003966
 6,0.00026835,0.00010719,0.00021679,0.00000624,0.00042237,0.00016536,0.
 00039426,-0.00038435,-0.00031036,0.00005509,0.00000936,0.00007408,-0.0
 0063587,0.00018879,0.00042959,-0.00004945,0.00008437,0.00002865,-0.000
 02186,0.00002357,0.00007419,0.00004534,-0.00008211,0.00002942,-0.00009
 884,-0.00011111,0.00004379,0.00047944,0.00010923,-0.00049432,-0.010994
 17,-0.00083269,-0.00057373,-0.02239565,-0.03154370,-0.03115002,-0.0686
 6079,-0.16347391,-0.07991263,-0.01201737,0.56356090,-0.00006250,-0.000
 23000,-0.00014505,0.00008349,-0.00013915,-0.00089762,-0.00195155,-0.00
 489701,-0.00074336,0.00028992,0.00000076,0.00039545,0.00003581,-0.0000
 8826,0.00014335,-0.00013683,0.00101184,0.00072582,0.00129015,-0.000010
 41,-0.00031816,0.02611020,-0.00620452,0.00545623,-0.00031052,-0.000097
 06,-0.00022486,0.00019110,0.00000226,0.00010064,0.00002217,0.00018158,
 0.00017304,0.00034552,-0.00039074,-0.00031315,0.00002043,0.00002113,0.
 00002773,-0.00070226,-0.00004903,0.00055496,-0.00004276,0.00008096,0.0
 0004804,-0.00006514,0.00002794,0.00009644,0.00004517,-0.00003819,-0.00
 001365,-0.00002333,-0.00010399,0.00003497,0.00072317,0.00063516,-0.000
 80248,-0.00858966,-0.00072516,-0.00019743,-0.01686070,-0.03113944,-0.0
 1478642,-0.05129254,-0.07956077,-0.11857364,-0.01138978,0.37807595,0.3
 5199990,-0.00201711,0.00272522,0.00050534,-0.00217053,0.00135243,0.003
 84155,0.00174533,0.03092947,0.01913386,0.00024527,-0.00186440,-0.00165
 521,0.00022895,0.00146127,-0.00119576,0.00035172,-0.00548110,-0.003208
 97,-0.00595824,0.00076892,0.00040473,-0.12152906,0.03118376,0.02374603
 ,-0.00111563,0.00003518,0.00139132,-0.00166146,-0.00076057,-0.00077669
 ,0.00146318,-0.00181973,-0.00016667,-0.00213094,0.00178552,0.00237107,
 0.00038027,-0.00022703,-0.00037117,0.00415987,0.00018657,-0.00241998,0
 .00045631,-0.00035601,-0.00022737,0.00015110,-0.00012200,-0.00063294,-
 0.00050794,0.00026820,-0.00031191,0.00001386,0.00058284,-0.00030937,-0
 .00665133,-0.00353402,0.00302164,0.03767750,-0.02855079,-0.02176621,-0
 .01691208,0.02289814,0.01775630,-0.05021891,-0.04739114,-0.03578809,-0
 .21974348,0.05931190,0.04552562,0.72044475,-0.00016740,0.00258599,0.00
 132995,-0.00098143,-0.00060332,0.00174433,0.01487120,-0.00051667,-0.00
 675989,-0.00123966,-0.00053081,-0.00089086,0.00049967,0.00044521,0.000
 04013,-0.00390764,-0.00604243,-0.00130647,-0.00045662,0.00087724,-0.00
 076811,0.03953891,-0.16402634,-0.06143620,0.00069876,0.00009306,0.0014
 1017,-0.00155240,-0.00042239,-0.00078003,0.00000990,-0.00190814,-0.000
 89317,-0.00222888,0.00227188,0.00223242,-0.00011080,-0.00015795,-0.000
 30902,0.00421290,-0.00052396,-0.00244057,0.00035415,-0.00046851,-0.000
 26145,0.00016794,-0.00019352,-0.00052055,-0.00032110,0.00037281,-0.000
 10861,0.00037754,0.00061941,-0.00012938,-0.00556953,-0.00243544,0.0028
 5834,-0.04402619,-0.01670867,-0.01513497,0.02854966,-0.02041114,-0.012
 46205,-0.00234653,0.03681361,0.03923327,0.02834633,-0.12885132,-0.0572
 9778,0.14501572,0.59373625,-0.00046360,0.00184981,0.00097524,-0.001744
 78,0.00011436,0.00317155,0.01287325,-0.00065231,-0.00308664,-0.0003956
 5,-0.00079876,-0.00141660,0.00007859,0.00099359,-0.00059039,-0.0044478
 4,-0.00564679,-0.00153697,-0.00067560,-0.00060846,0.00071066,0.0287131
 1,-0.06103285,-0.12964940,0.00173399,0.00026268,0.00168804,-0.00111248
 ,-0.00043825,-0.00066676,0.00007181,-0.00118139,-0.00077356,-0.0016735
 5,0.00176195,0.00161207,-0.00035959,-0.00006464,-0.00028000,0.00370354
 ,-0.00004976,-0.00251314,0.00024781,-0.00045923,-0.00027859,0.00023638
 ,-0.00006941,-0.00046274,-0.00028642,0.00024323,-0.00007677,0.00010746
 ,0.00037681,-0.00009949,-0.00446500,-0.00199097,0.00364486,-0.03360573
 ,-0.01605885,-0.00918740,0.02127152,-0.01162720,-0.01361836,-0.0019709
 2,0.03823380,0.01526549,0.02317676,-0.05791214,-0.09718265,0.10979870,
 0.29423953,0.42821613,-0.00004224,-0.00007469,-0.00001751,-0.00018308,
 -0.00003312,0.00003028,0.00115452,-0.00245736,-0.00148319,0.00005673,0
 .00007417,0.00012681,0.00005095,-0.00000890,0.00011517,0.00022182,0.00
 084904,-0.00005774,-0.00044525,0.00085994,0.00058999,0.00823882,-0.017
 27785,-0.01339448,-0.00024048,-0.00005104,-0.00007163,0.00002898,0.000
 01016,0.00001909,0.00008027,0.00005208,0.00005237,0.00004036,-0.000065
 64,-0.00003528,0.00001818,-0.00001579,0.00000469,-0.00006019,0.0000715
 1,0.00005638,0.00000107,0.00001395,0.00001137,-0.00000733,0.00000232,0
 .00000544,-0.00000516,-0.00001300,-0.00001128,-0.00003041,0.00000183,-
 0.00000081,0.00008130,-0.00001270,-0.00007376,-0.06063459,0.02251374,0
 .01792284,-0.00609296,0.02968081,0.02288073,-0.00444051,-0.00302314,-0
 .00230910,0.00098677,0.00018907,0.00012015,-0.00497891,-0.00054907,-0.
 00047540,0.06643294,0.00002152,-0.00019242,0.00012594,0.00044500,0.000
 56739,-0.00022424,0.00210411,-0.00181111,0.00292622,0.00009196,-0.0001
 1556,-0.00000254,0.00002918,-0.00003318,0.00004378,-0.00059645,-0.0002
 3684,0.00007316,-0.00070634,0.00058137,0.00026384,0.00336349,-0.004867
 92,-0.01065269,-0.00010853,-0.00002859,0.00017717,0.00002617,0.0000291
 5,0.00001111,0.00012797,0.00003640,0.00005528,-0.00001111,-0.00002614,
 -0.00005198,-0.00003260,-0.00000938,-0.00001412,-0.00002673,0.00003216
 ,0.00004400,0.00000197,-0.00000504,0.00001331,-0.00000713,0.00000277,0
 .00001003,0.00000616,-0.00000230,-0.00001399,-0.00000285,-0.00001411,0
 .00000861,0.00003617,-0.00001510,-0.00006420,0.02781850,-0.22946127,-0
 .14710289,0.00026581,-0.00296573,-0.00448410,0.00076447,0.00356325,-0.
 00022345,-0.00035759,-0.00000031,0.00049951,-0.00252892,0.00406157,-0.
 00551128,-0.03120250,0.23366257,-0.00003204,0.00005830,-0.00016664,-0.
 00046540,-0.00032709,0.00042476,0.00014121,0.00295956,-0.00342569,-0.0
 0005466,0.00014204,-0.00007447,0.00003310,-0.00000801,-0.00004160,0.00
 113981,0.00024638,0.00032224,-0.00062299,0.00004519,0.00017474,0.00322
 651,-0.01063885,0.00071702,-0.00001637,0.00016450,-0.00018959,0.000007
 59,-0.00002010,0.00000670,-0.00001454,0.00002658,0.00000260,0.00013798
 ,-0.00006911,0.00000786,0.00004226,0.00000964,0.00001246,-0.00006347,0
 .00002882,0.00001669,-0.00000071,0.00003873,-0.00000270,-0.00000118,0.
 00000746,-0.00000310,-0.00001148,-0.00001313,0.00000403,-0.00002754,0.
 00004585,-0.00002597,0.00006163,0.00002476,-0.00001389,0.02219550,-0.1
 4705742,-0.15649937,0.00017616,-0.00483150,-0.00056383,0.00060555,-0.0
 0024699,0.00376071,-0.00028093,0.00053232,-0.00026534,-0.00211288,-0.0
 0523128,0.00707982,-0.02448682,0.16247356,0.15246439,-0.00006465,-0.00
 000700,0.00000068,-0.00007911,0.00011421,0.00020000,-0.00019769,-0.000
 68479,-0.00070277,0.00002439,-0.00004308,-0.00003413,0.00000124,0.0000
 2168,-0.00005274,-0.00009467,-0.00004619,0.00000907,0.00001128,0.00000
 539,0.00001558,-0.00203016,0.00437071,0.00345386,-0.00007921,0.0000037
 4,0.00005052,-0.00003680,-0.00000863,-0.00001435,0.00008920,-0.0000285
 8,0.00001337,-0.00004841,0.00004118,0.00005406,0.00000218,-0.00001390,
 -0.00000849,0.00010020,0.00000577,-0.00006303,0.00001692,-0.00000732,-
 0.00000280,-0.00000044,-0.00000136,-0.00001546,-0.00002089,0.00000403,
 -0.00001306,-0.00001573,0.00002620,-0.00001135,-0.00012662,-0.00005517
 ,0.00007430,-0.01856273,-0.01704920,-0.01332327,-0.29194279,-0.1546418
 9,-0.11977385,0.01673088,0.00303371,0.00238169,-0.00046633,0.00298607,
 0.00226840,-0.00072667,-0.00054591,-0.00037083,0.00072033,0.00024714,0
 .00019885,0.29878585,-0.00010669,-0.00001639,-0.00006015,-0.00014096,0
 .00027154,-0.00001741,-0.00054756,0.00129922,-0.00032465,0.00008721,-0
 .00020166,0.00002174,0.00000011,0.00001186,-0.00001064,0.00100789,0.00
 011890,-0.00008307,0.00004518,-0.00002426,-0.00005496,0.00356131,0.001
 36525,-0.00131038,-0.00020938,0.00000175,-0.00022565,-0.00001836,-0.00
 001180,-0.00000390,0.00014825,-0.00005076,0.00007133,0.00003871,-0.000
 01739,0.00003540,0.00008948,-0.00000461,0.00000715,0.00004657,0.000037
 78,-0.00000308,0.00001945,0.00002633,0.00000416,-0.00000981,-0.0000045
 5,-0.00000728,-0.00001581,0.00000388,-0.00002095,-0.00000783,0.0000272
 1,-0.00000773,-0.00005940,-0.00005373,0.00000828,0.00801445,0.00705249
 ,0.01067752,-0.15255529,-0.15469744,-0.11302088,-0.02638088,-0.0112014
 7,-0.00811663,0.00270577,-0.00255739,-0.00461386,0.00125380,-0.0019364
 2,-0.00093200,0.00036830,-0.00029684,0.00103920,0.16191975,0.15877142,
 -0.00006942,-0.00009141,0.00004035,0.00028109,0.00006475,-0.00029499,0
 .00019412,-0.00069540,0.00172488,0.00024746,-0.00011597,0.00003319,-0.
 00000848,-0.00000574,-0.00007213,-0.00023982,0.00006437,-0.00005024,-0
 .00001941,-0.00007400,-0.00002264,0.00239038,-0.00122588,0.00220782,-0
 .00009003,0.00000625,0.00007989,-0.00000832,0.00000234,-0.00000054,0.0
 0015099,0.00002564,0.00003479,-0.00002108,-0.00001211,0.00003891,0.000
 00363,-0.00001575,-0.00000969,0.00004526,0.00004762,-0.00006276,0.0000
 0905,0.00000034,0.00000069,0.00000107,0.00001412,-0.00002100,-0.000018
 06,-0.00000669,-0.00001385,-0.00002768,-0.00004234,0.00001387,-0.00006
 714,-0.00006742,0.00006047,0.00642584,0.01095586,0.00174765,-0.1183505
 7,-0.11343971,-0.09665945,-0.02033104,-0.00776458,-0.00675808,0.002029
 65,-0.00456917,-0.00005943,0.00103392,-0.00106552,-0.00146300,0.000319
 59,0.00098641,-0.00085773,0.12545367,0.11306387,0.10030706,-0.00003794
 ,0.00012810,0.00006651,0.00006979,0.00003336,0.00022322,0.00076191,0.0
 0158163,0.00092931,-0.00004667,-0.00005367,-0.00010999,0.00000437,0.00
 003586,-0.00006843,0.00001842,-0.00036226,-0.00017056,-0.00052901,0.00
 008320,0.00008850,-0.00650871,-0.00033672,-0.00021938,0.00007102,0.000
 02026,0.00008039,-0.00007661,-0.00002103,-0.00003773,0.00004200,-0.000
 09794,-0.00003703,-0.00012533,0.00012434,0.00012841,0.00000095,-0.0000
 0978,-0.00001816,0.00021787,-0.00007016,-0.00016709,0.00002242,-0.0000
 2430,-0.00001166,0.00000857,-0.00000855,-0.00003780,-0.00002524,0.0000
 2179,-0.00000743,0.00001347,0.00004078,-0.00001467,-0.00020786,-0.0000
 3259,0.00019337,-0.00159238,-0.00004275,-0.00006277,-0.00546735,-0.003
 49582,-0.00263796,0.01787846,-0.02386205,-0.01811283,-0.08997724,0.066
 18630,0.05036980,0.00128909,0.03079506,0.02344371,0.00005900,0.0000188
 8,0.00001465,0.00076027,-0.00114811,-0.00087872,0.08149842,0.00008342,
 0.00000618,0.00001164,0.00009356,-0.00012190,-0.00005866,-0.00006512,0
 .00012176,-0.00021758,-0.00010894,0.00007997,0.00003465,-0.00000462,-0
 .00003194,0.00005955,-0.00022616,-0.00005929,0.00005444,0.00002235,-0.
 00005152,0.00005306,0.00041708,0.00287422,-0.00123841,0.00013500,0.000
 01237,0.00000853,0.00003360,0.00002975,0.00000702,-0.00012712,-0.00000
 330,-0.00002455,-0.00002997,0.00005146,0.00000757,-0.00002957,-0.00000
 462,0.00000261,-0.00003370,-0.00020554,0.00003827,-0.00000780,-0.00000
 658,-0.00000034,-0.00000259,-0.00000415,0.00001233,0.00002894,0.000013
 53,0.00001269,0.00003133,0.00000567,0.00000318,0.00012259,0.00027718,-
 0.00013024,-0.00001378,0.00009779,0.00064266,-0.00301841,0.00196931,-0
 .00176175,0.00425592,-0.01198363,-0.00839469,0.06267002,-0.28084954,-0
 .19918147,0.00457959,-0.00139059,-0.00202292,0.00004785,-0.00018833,0.
 00020348,0.00031459,0.00006874,-0.00067199,-0.06895700,0.29137463,0.00
 006071,-0.00000587,0.00001859,-0.00003469,-0.00007830,0.00008436,-0.00
 012458,-0.00028960,0.00012619,-0.00004394,0.00005359,-0.00004093,0.000
 00955,-0.00000060,-0.00000151,-0.00011501,0.00015553,-0.00005832,0.000
 03818,0.00004286,-0.00003226,0.00040347,-0.00127001,0.00348717,0.00010
 251,-0.00000716,0.00001970,0.00003309,0.00000355,0.00003196,-0.0001017
 4,0.00003878,-0.00005979,0.00002922,-0.00004264,-0.00003566,-0.0000162
 0,0.00000744,0.00000187,-0.00009829,0.00004539,-0.00003452,-0.00001901
 ,0.00000292,0.00000094,0.00001174,0.00000469,-0.00000478,0.00000029,0.
 00000037,0.00003126,0.00000692,-0.00000808,0.00001432,0.00015733,-0.00
 002466,0.00005048,0.00001273,0.00067519,-0.00021628,-0.00224877,-0.001
 84525,0.00288571,0.00303508,-0.00829895,-0.00726606,0.04782295,-0.1989
 5569,-0.16899581,0.00323041,-0.00223087,-0.00039709,0.00003568,0.00021
 101,-0.00029319,0.00023100,-0.00068729,0.00045916,-0.05241875,0.207903
 52,0.17482626,0.00090484,0.00020025,0.00002308,0.00017877,-0.00155972,
 0.00078272,0.00297573,0.00024086,-0.00145667,-0.00118003,0.00109503,-0
 .00021328,-0.00000428,-0.00009441,0.00030147,-0.00281880,-0.00076114,0
 .00036357,-0.00026019,0.00008674,0.00004513,-0.00107629,0.00396789,0.0
 0293313,0.00155667,0.00010434,0.00056755,0.00020402,0.00007514,0.00011
 802,-0.00140665,0.00022244,-0.00049668,0.00010482,0.00003463,-0.000412
 36,-0.00036204,0.00009457,0.00003177,-0.00069764,-0.00051297,0.0004493
 2,-0.00015484,-0.00007803,-0.00002021,0.00002766,0.00000114,0.00015219
 ,0.00019745,-0.00000144,0.00020810,0.00021338,-0.00002657,0.00003738,0
 .00092076,0.00084423,-0.00061374,-0.00069978,0.00092318,0.00087582,-0.
 02722759,0.03881558,0.02974459,-0.64064484,0.13424071,0.10551400,-0.09
 203008,-0.00361021,-0.00245364,0.01801364,-0.00734774,-0.00562427,-0.0
 0137336,0.00018616,0.00017234,-0.00352302,0.00178045,0.00144781,-0.001
 40398,0.00185720,0.00149105,0.75968937,-0.00024494,-0.00035963,-0.0000
 6326,0.00026065,0.00054280,-0.00052897,-0.00129928,0.00023477,0.001512
 97,0.00048577,-0.00021785,0.00014014,-0.00004146,-0.00003195,-0.000119
 26,0.00144192,0.00066663,-0.00005901,-0.00012211,0.00009462,0.00006600
 ,0.00259591,0.00343205,0.00368863,-0.00055552,-0.00006507,-0.00035274,
 0.00006233,-0.00000618,0.00003228,0.00045300,0.00010888,0.00021155,0.0
 0021954,-0.00028208,-0.00009662,0.00014285,0.00000477,0.00002737,-0.00
 021352,0.00030992,0.00012463,0.00000857,0.00007232,0.00002762,-0.00002
 524,0.00002264,0.00000468,-0.00003082,-0.00004190,-0.00005813,-0.00009
 123,-0.00006896,-0.00000496,0.00015339,-0.00015203,-0.00012195,-0.0120
 3495,-0.00170000,-0.00512817,0.06106105,-0.01289760,-0.02604965,0.1353
 7272,-0.12939917,-0.03721645,-0.02915407,0.02551882,0.00353331,0.00808
 807,-0.00541547,-0.00951691,0.00183203,-0.00050248,-0.00021439,-0.0004
 9582,0.00139953,0.00385377,0.00353970,0.00023524,0.00288518,-0.1681704
 9,0.11807462,-0.00018154,-0.00026650,-0.00009001,0.00019309,0.00038796
 ,-0.00046129,-0.00112843,0.00070027,0.00062325,0.00032861,-0.00019428,
 0.00016930,-0.00003767,-0.00002661,-0.00003513,0.00125085,0.00041073,0
 .00008093,-0.00012643,0.00000321,0.00002539,0.00203268,0.00348082,0.00
 171000,-0.00048646,-0.00004857,-0.00033248,0.00003891,0.00002009,0.000
 02642,0.00034055,0.00005414,0.00019161,0.00014235,-0.00014255,-0.00005
 597,0.00012721,-0.00000143,0.00002775,-0.00006533,0.00016950,0.0001151
 2,0.00002015,0.00005430,0.00001903,-0.00002508,0.00000029,0.00001294,-
 0.00001214,-0.00002179,-0.00005309,-0.00005604,-0.00003352,-0.00001665
 ,0.00003109,-0.00010775,-0.00011263,-0.00913813,-0.00509702,0.00101711
 ,0.04696780,-0.02599760,0.00068062,0.10631577,-0.03722307,-0.11058458,
 -0.02164530,0.00347465,0.02376950,0.00603018,-0.00972377,0.00000636,0.
 00142732,-0.00023690,-0.00042946,-0.00038581,0.00391101,-0.00068029,0.
 00265413,0.00293411,-0.00146105,-0.13221870,0.06184612,0.08624080,0.00
 006048,-0.00296830,-0.00221913,0.00141988,-0.00085527,-0.00204949,-0.0
 0669766,-0.00447857,0.00094646,0.00025191,0.00149898,0.00087415,-0.000
 25886,-0.00074450,0.00043154,0.00179013,0.00601393,0.00379962,0.000711
 60,0.00009986,0.00043227,0.00771562,-0.02162110,-0.01651890,0.00073630
 ,-0.00031755,-0.00162355,-0.00062469,0.00211827,0.00140820,-0.00164259
 ,0.00235184,0.00071781,0.00200336,-0.00195827,-0.00223130,-0.00012514,
 0.00023953,0.00036183,-0.00550242,-0.00150493,0.00384364,-0.00047850,0
 .00042180,0.00029983,-0.00024643,0.00015565,0.00064648,0.00054581,-0.0
 0031636,0.00041682,-0.00015306,-0.00064503,0.00015114,0.00290568,0.002
 92184,-0.00283081,0.00287484,0.00505614,0.00361603,-0.00259249,-0.0065
 3603,-0.00495157,0.01144306,0.01802966,0.01354622,-0.09526288,-0.04445
 009,-0.03355990,-0.35029857,-0.22208685,-0.16778499,0.00036242,0.00002
 609,0.00003787,0.00077319,0.00011337,0.00009623,0.00328228,-0.00206828
 ,-0.00149093,-0.01012369,-0.00323806,-0.00239361,0.43713042,0.00006419
 ,-0.00119224,0.00024350,-0.00025851,0.00101540,-0.00045112,-0.00603060
 ,-0.00088685,0.00444365,0.00114819,0.00000507,0.00005537,0.00025332,-0
 .00007391,-0.00035909,0.00294989,0.00355429,-0.00055452,-0.00002884,0.
 00051445,0.00025946,-0.03484363,-0.02869963,-0.03852183,-0.00112731,-0
 .00043050,-0.00053256,0.00143504,-0.00104985,0.00030470,0.00067850,0.0
 0091988,0.00019462,0.00190577,-0.00318540,-0.00260582,0.00016602,0.000
 29891,0.00012815,-0.00616953,0.00102879,0.00376254,-0.00052189,0.00052
 576,0.00042691,-0.00026039,0.00036123,0.00060784,0.00003815,-0.0002825
 7,-0.00002917,-0.00028953,-0.00040587,0.00000989,0.00592486,0.00117891
 ,-0.00384440,0.01672797,-0.00228529,-0.00436605,-0.00889104,0.00357812
 ,0.00277917,0.00391359,-0.00036913,-0.00636588,-0.02379383,0.02058622,
 0.00069642,-0.21979091,-0.28933395,-0.16150163,-0.00178200,-0.00176397
 ,0.00061149,0.00053465,0.00061881,0.00077832,-0.00408654,-0.00231688,0
 .00171495,-0.00260784,0.00042279,0.00167415,0.27474223,0.29766738,0.00
 004587,-0.00130332,-0.00087189,0.00089921,0.00028180,-0.00211577,-0.00
 404415,0.00238100,-0.00006117,-0.00007055,0.00070291,0.00105356,-0.000
 41198,-0.00078867,0.00068106,0.00432552,-0.00093139,-0.00199167,-0.000
 02878,0.00022375,0.00018555,-0.02608090,-0.03789464,-0.00671237,-0.002
 34923,0.00034201,-0.00108418,0.00111796,0.00057111,0.00028827,-0.00017
 437,0.00081784,0.00067922,0.00049188,-0.00014675,-0.00003323,0.0003542
 2,-0.00008754,0.00030247,-0.00007164,0.00041129,0.00095668,0.00011300,
 0.00014734,-0.00003612,-0.00009736,-0.00009444,0.00017552,0.00030616,-
 0.00020386,0.00001175,-0.00003775,-0.00020424,0.00002809,0.00096235,-0
 .00009292,-0.00235464,0.01244446,-0.00396813,0.00028088,-0.00641608,0.
 00255481,0.00216059,0.00279606,-0.00607659,0.00267355,-0.01738997,0.00
 164548,0.01999298,-0.16684744,-0.16333760,-0.19909067,-0.00130089,0.00
 065945,-0.00214143,0.00036686,0.00066085,0.00027708,-0.00318104,0.0017
 1330,-0.00314071,-0.00174948,0.00157621,-0.00040349,0.20602807,0.20044
 092,0.19029014\\0.00000163,0.00000794,0.00000625,0.00000084,-0.0000068
 6,-0.00000258,-0.00001559,-0.00000087,-0.00000347,0.00000216,0.0000008
 0,0.00000505,0.00000398,-0.00000111,0.00000106,-0.00000692,0.00001742,
 0.00000121,0.00000377,-0.00000398,0.00000749,0.00000994,-0.00000836,-0
 .00000098,0.00000984,-0.00001482,-0.00000435,-0.00000177,-0.00000075,-
 0.00000011,-0.00000864,-0.00000975,0.,0.00001266,0.00000072,-0.0000112
 4,-0.00000478,0.00000265,-0.00000078,0.00000012,-0.00000210,0.00001239
 ,-0.00000315,0.00000780,0.00000107,-0.00000329,-0.00000329,0.00000222,
 -0.00000035,0.00000281,-0.00000347,0.00000438,-0.00000319,-0.00000267,
 -0.00000502,0.00000745,-0.00000499,-0.00002679,0.00001557,0.00000308,0
 .00002603,0.00000689,0.00000385,-0.00001627,0.00000610,-0.00000331,0.0
 0002300,-0.00001358,0.00001144,-0.00000947,-0.00000184,-0.00000940,0.0
 0000067,-0.00000061,-0.00000091,-0.00000856,-0.00000616,-0.00000438,-0
 .00000888,0.00000115,-0.00000150,0.00001567,-0.00000690,-0.00000409,0.
 00000476,0.00000688,0.00000313\\\@
 The archive entry for this job was punched.


  THE LARGE PRINT GIVETH,
  AND THE SMALL PRINT TAKETH AWAY.

                     -- TOM WAITS
 Job cpu time:       0 days 10 hours 42 minutes 54.3 seconds.
 Elapsed time:       0 days  0 hours 16 minutes 12.8 seconds.
 File lengths (MBytes):  RWF=    632 Int=      0 D2E=      0 Chk=     21 Scr=      1
 Normal termination of Gaussian 16 at Sat Oct 26 06:37:16 2024.
