 Entering Gaussian System, Link 0=g16
 Input=PseudoUridineAmNarrgPBE0aVDZ.gjf
 Output=PseudoUridineAmNarrgPBE0aVDZ.log
 Initial command:
 /sw/contrib/chem-src/g16/c01/g16/l1.exe "/scr/Gau-15878.inp" -scrdir="/scr/"
 Entering Link 1 = /sw/contrib/chem-src/g16/c01/g16/l1.exe PID=     15879.
  
 Copyright (c) 1988-2019, Gaussian, Inc.  All Rights Reserved.
  
 This is part of the Gaussian(R) 16 program.  It is based on
 the Gaussian(R) 09 system (copyright 2009, Gaussian, Inc.),
 the Gaussian(R) 03 system (copyright 2003, Gaussian, Inc.),
 the Gaussian(R) 98 system (copyright 1998, Gaussian, Inc.),
 the Gaussian(R) 94 system (copyright 1995, Gaussian, Inc.),
 the Gaussian 92(TM) system (copyright 1992, Gaussian, Inc.),
 the Gaussian 90(TM) system (copyright 1990, Gaussian, Inc.),
 the Gaussian 88(TM) system (copyright 1988, Gaussian, Inc.),
 the Gaussian 86(TM) system (copyright 1986, Carnegie Mellon
 University), and the Gaussian 82(TM) system (copyright 1983,
 Carnegie Mellon University). Gaussian is a federally registered
 trademark of Gaussian, Inc.
  
 This software contains proprietary and confidential information,
 including trade secrets, belonging to Gaussian, Inc.
  
 This software is provided under written license and may be
 used, copied, transmitted, or stored only in accord with that
 written license.
  
 The following legend is applicable only to US Government
 contracts under FAR:
  
                    RESTRICTED RIGHTS LEGEND
  
 Use, reproduction and disclosure by the US Government is
 subject to restrictions as set forth in subparagraphs (a)
 and (c) of the Commercial Computer Software - Restricted
 Rights clause in FAR 52.227-19.
  
 Gaussian, Inc.
 340 Quinnipiac St., Bldg. 40, Wallingford CT 06492
  
  
 ---------------------------------------------------------------
 Warning -- This program may not be used in any manner that
 competes with the business of Gaussian, Inc. or will provide
 assistance to any competitor of Gaussian, Inc.  The licensee
 of this program is prohibited from giving any competitor of
 Gaussian, Inc. access to this program.  By using this program,
 the user acknowledges that Gaussian, Inc. is engaged in the
 business of creating and licensing software in the field of
 computational chemistry and represents and warrants to the
 licensee that it is not a competitor of Gaussian, Inc. and that
 it will not use this program in any manner prohibited above.
 ---------------------------------------------------------------
  

 Cite this work as:
 Gaussian 16, Revision C.01,
 M. J. Frisch, G. W. Trucks, H. B. Schlegel, G. E. Scuseria, 
 M. A. Robb, J. R. Cheeseman, G. Scalmani, V. Barone, 
 G. A. Petersson, H. Nakatsuji, X. Li, M. Caricato, A. V. Marenich, 
 J. Bloino, B. G. Janesko, R. Gomperts, B. Mennucci, H. P. Hratchian, 
 J. V. Ortiz, A. F. Izmaylov, J. L. Sonnenberg, D. Williams-Young, 
 F. Ding, F. Lipparini, F. Egidi, J. Goings, B. Peng, A. Petrone, 
 T. Henderson, D. Ranasinghe, V. G. Zakrzewski, J. Gao, N. Rega, 
 G. Zheng, W. Liang, M. Hada, M. Ehara, K. Toyota, R. Fukuda, 
 J. Hasegawa, M. Ishida, T. Nakajima, Y. Honda, O. Kitao, H. Nakai, 
 T. Vreven, K. Throssell, J. A. Montgomery, Jr., J. E. Peralta, 
 F. Ogliaro, M. J. Bearpark, J. J. Heyd, E. N. Brothers, K. N. Kudin, 
 V. N. Staroverov, T. A. Keith, R. Kobayashi, J. Normand, 
 K. Raghavachari, A. P. Rendell, J. C. Burant, S. S. Iyengar, 
 J. Tomasi, M. Cossi, J. M. Millam, M. Klene, C. Adamo, R. Cammi, 
 J. W. Ochterski, R. L. Martin, K. Morokuma, O. Farkas, 
 J. B. Foresman, and D. J. Fox, Gaussian, Inc., Wallingford CT, 2019.
 
 ******************************************
 Gaussian 16:  EM64L-G16RevC.01  3-Jul-2019
                27-Oct-2024 
 ******************************************
 %nprocshared=40
 Will use up to   40 processors via shared memory.
 %mem=50gb
 ------------------------------------------------------
 # PBE1PBE/aug-cc-pVDZ opt freq EmpiricalDispersion=GD3
 ------------------------------------------------------
 1/18=20,19=15,26=3,38=1/1,3;
 2/9=110,12=2,17=6,18=5,40=1/2;
 3/5=16,7=10,11=2,25=1,30=1,71=1,74=-13,124=31/1,2,3;
 4//1;
 5/5=2,38=5/2;
 6/7=2,8=2,9=2,10=2,28=1/1;
 7//1,2,3,16;
 1/18=20,19=15,26=3/3(2);
 2/9=110/2;
 99//99;
 2/9=110/2;
 3/5=16,7=10,11=2,25=1,30=1,71=1,74=-13,124=31/1,2,3;
 4/5=5,16=3,69=1/1;
 5/5=2,38=5/2;
 7//1,2,3,16;
 1/18=20,19=15,26=3/3(-5);
 2/9=110/2;
 6/7=2,8=2,9=2,10=2,19=2,28=1/1;
 99/9=1/99;
 ----
 blah
 ----
 Symbolic Z-matrix:
 Charge = -1 Multiplicity = 1
 C                     2.30365  -0.22133  -0.64504 
 C                     1.23828  -1.32968  -0.58834 
 C                     0.38734  -0.94582   0.63952 
 O                     1.83703  -2.58533  -0.35432 
 H                     0.63146  -1.36222  -1.50711 
 O                     1.04904   0.13534   1.29436 
 H                     0.37852  -1.82953   1.29831 
 C                    -1.02646  -0.54306   0.35668 
 C                     2.37573   0.27033   0.79721 
 H                     1.96339   0.59482  -1.2916 
 O                     3.56717  -0.72139  -1.05867 
 C                     2.78406   1.72105   0.95033 
 H                     3.07287  -0.37478   1.36247 
 O                     2.05731   2.58913   0.11157 
 H                     3.84591   1.82043   0.68368 
 H                     2.67257   2.00094   2.01249 
 H                     3.71112  -0.47795  -1.97652 
 H                     2.74274  -2.5136   -0.69108 
 H                     1.13964   2.28389   0.07538 
 C                    -2.07868  -1.21426   0.87828 
 N                    -3.37642  -0.86274   0.62664 
 C                    -3.73753   0.21204  -0.16607 
 N                    -2.65151   0.89109  -0.67859 
 C                    -1.29867   0.61338  -0.48904 
 H                    -1.94176  -2.07794   1.52807 
 H                    -2.86978   1.69038  -1.26196 
 O                    -4.89242   0.51844  -0.38168 
 O                    -0.45451   1.32016  -1.0232 
 

 GradGradGradGradGradGradGradGradGradGradGradGradGradGradGradGradGradGrad
 Berny optimization.
 Initialization pass.
                           ----------------------------
                           !    Initial Parameters    !
                           ! (Angstroms and Degrees)  !
 --------------------------                            --------------------------
 ! Name  Definition              Value          Derivative Info.                !
 --------------------------------------------------------------------------------
 ! R1    R(1,2)                  1.5384         estimate D2E/DX2                !
 ! R2    R(1,9)                  1.5254         estimate D2E/DX2                !
 ! R3    R(1,10)                 1.0954         estimate D2E/DX2                !
 ! R4    R(1,11)                 1.4204         estimate D2E/DX2                !
 ! R5    R(2,3)                  1.5424         estimate D2E/DX2                !
 ! R6    R(2,4)                  1.4107         estimate D2E/DX2                !
 ! R7    R(2,5)                  1.1016         estimate D2E/DX2                !
 ! R8    R(3,6)                  1.4267         estimate D2E/DX2                !
 ! R9    R(3,7)                  1.1023         estimate D2E/DX2                !
 ! R10   R(3,8)                  1.497          estimate D2E/DX2                !
 ! R11   R(4,18)                 0.969          estimate D2E/DX2                !
 ! R12   R(6,9)                  1.4232         estimate D2E/DX2                !
 ! R13   R(8,20)                 1.3527         estimate D2E/DX2                !
 ! R14   R(8,24)                 1.4583         estimate D2E/DX2                !
 ! R15   R(9,12)                 1.5149         estimate D2E/DX2                !
 ! R16   R(9,13)                 1.1053         estimate D2E/DX2                !
 ! R17   R(11,17)                0.9604         estimate D2E/DX2                !
 ! R18   R(12,14)                1.409          estimate D2E/DX2                !
 ! R19   R(12,15)                1.0993         estimate D2E/DX2                !
 ! R20   R(12,16)                1.1041         estimate D2E/DX2                !
 ! R21   R(14,19)                0.9678         estimate D2E/DX2                !
 ! R22   R(20,21)                1.3679         estimate D2E/DX2                !
 ! R23   R(20,25)                1.0895         estimate D2E/DX2                !
 ! R24   R(21,22)                1.3835         estimate D2E/DX2                !
 ! R25   R(22,23)                1.3796         estimate D2E/DX2                !
 ! R26   R(22,27)                1.2141         estimate D2E/DX2                !
 ! R27   R(23,24)                1.394          estimate D2E/DX2                !
 ! R28   R(23,26)                1.0133         estimate D2E/DX2                !
 ! R29   R(24,28)                1.2237         estimate D2E/DX2                !
 ! A1    A(2,1,9)              103.3017         estimate D2E/DX2                !
 ! A2    A(2,1,10)             110.086          estimate D2E/DX2                !
 ! A3    A(2,1,11)             111.9078         estimate D2E/DX2                !
 ! A4    A(9,1,10)             109.4266         estimate D2E/DX2                !
 ! A5    A(9,1,11)             110.2886         estimate D2E/DX2                !
 ! A6    A(10,1,11)            111.5139         estimate D2E/DX2                !
 ! A7    A(1,2,3)              103.4207         estimate D2E/DX2                !
 ! A8    A(1,2,4)              110.7            estimate D2E/DX2                !
 ! A9    A(1,2,5)              111.8409         estimate D2E/DX2                !
 ! A10   A(3,2,4)              108.8825         estimate D2E/DX2                !
 ! A11   A(3,2,5)              111.5556         estimate D2E/DX2                !
 ! A12   A(4,2,5)              110.2358         estimate D2E/DX2                !
 ! A13   A(2,3,6)              107.3428         estimate D2E/DX2                !
 ! A14   A(2,3,7)              106.2997         estimate D2E/DX2                !
 ! A15   A(2,3,8)              115.9492         estimate D2E/DX2                !
 ! A16   A(6,3,7)              109.6893         estimate D2E/DX2                !
 ! A17   A(6,3,8)              108.7147         estimate D2E/DX2                !
 ! A18   A(7,3,8)              108.7273         estimate D2E/DX2                !
 ! A19   A(2,4,18)             105.8545         estimate D2E/DX2                !
 ! A20   A(3,6,9)              110.1141         estimate D2E/DX2                !
 ! A21   A(3,8,20)             121.8896         estimate D2E/DX2                !
 ! A22   A(3,8,24)             119.9474         estimate D2E/DX2                !
 ! A23   A(20,8,24)            118.1583         estimate D2E/DX2                !
 ! A24   A(1,9,6)              104.8118         estimate D2E/DX2                !
 ! A25   A(1,9,12)             114.643          estimate D2E/DX2                !
 ! A26   A(1,9,13)             108.9783         estimate D2E/DX2                !
 ! A27   A(6,9,12)             107.8665         estimate D2E/DX2                !
 ! A28   A(6,9,13)             110.7292         estimate D2E/DX2                !
 ! A29   A(12,9,13)            109.7083         estimate D2E/DX2                !
 ! A30   A(1,11,17)            108.8068         estimate D2E/DX2                !
 ! A31   A(9,12,14)            113.0048         estimate D2E/DX2                !
 ! A32   A(9,12,15)            108.8095         estimate D2E/DX2                !
 ! A33   A(9,12,16)            108.228          estimate D2E/DX2                !
 ! A34   A(14,12,15)           107.3449         estimate D2E/DX2                !
 ! A35   A(14,12,16)           111.3721         estimate D2E/DX2                !
 ! A36   A(15,12,16)           107.938          estimate D2E/DX2                !
 ! A37   A(12,14,19)           108.484          estimate D2E/DX2                !
 ! A38   A(8,20,21)            122.6532         estimate D2E/DX2                !
 ! A39   A(8,20,25)            121.7085         estimate D2E/DX2                !
 ! A40   A(21,20,25)           115.638          estimate D2E/DX2                !
 ! A41   A(20,21,22)           123.5523         estimate D2E/DX2                !
 ! A42   A(21,22,23)           112.9414         estimate D2E/DX2                !
 ! A43   A(21,22,27)           123.0989         estimate D2E/DX2                !
 ! A44   A(23,22,27)           123.9596         estimate D2E/DX2                !
 ! A45   A(22,23,24)           127.9805         estimate D2E/DX2                !
 ! A46   A(22,23,26)           115.63           estimate D2E/DX2                !
 ! A47   A(24,23,26)           116.3893         estimate D2E/DX2                !
 ! A48   A(8,24,23)            114.7076         estimate D2E/DX2                !
 ! A49   A(8,24,28)            125.6188         estimate D2E/DX2                !
 ! A50   A(23,24,28)           119.6729         estimate D2E/DX2                !
 ! D1    D(9,1,2,3)             24.6731         estimate D2E/DX2                !
 ! D2    D(9,1,2,4)            -91.804          estimate D2E/DX2                !
 ! D3    D(9,1,2,5)            144.8429         estimate D2E/DX2                !
 ! D4    D(10,1,2,3)           -92.0933         estimate D2E/DX2                !
 ! D5    D(10,1,2,4)           151.4296         estimate D2E/DX2                !
 ! D6    D(10,1,2,5)            28.0765         estimate D2E/DX2                !
 ! D7    D(11,1,2,3)           143.301          estimate D2E/DX2                !
 ! D8    D(11,1,2,4)            26.8239         estimate D2E/DX2                !
 ! D9    D(11,1,2,5)           -96.5292         estimate D2E/DX2                !
 ! D10   D(2,1,9,6)            -33.3849         estimate D2E/DX2                !
 ! D11   D(2,1,9,12)          -151.4485         estimate D2E/DX2                !
 ! D12   D(2,1,9,13)            85.1766         estimate D2E/DX2                !
 ! D13   D(10,1,9,6)            83.8462         estimate D2E/DX2                !
 ! D14   D(10,1,9,12)          -34.2173         estimate D2E/DX2                !
 ! D15   D(10,1,9,13)         -157.5923         estimate D2E/DX2                !
 ! D16   D(11,1,9,6)          -153.1313         estimate D2E/DX2                !
 ! D17   D(11,1,9,12)           88.8051         estimate D2E/DX2                !
 ! D18   D(11,1,9,13)          -34.5698         estimate D2E/DX2                !
 ! D19   D(2,1,11,17)          103.2536         estimate D2E/DX2                !
 ! D20   D(9,1,11,17)         -142.3491         estimate D2E/DX2                !
 ! D21   D(10,1,11,17)         -20.5541         estimate D2E/DX2                !
 ! D22   D(1,2,3,6)             -8.0139         estimate D2E/DX2                !
 ! D23   D(1,2,3,7)           -125.3405         estimate D2E/DX2                !
 ! D24   D(1,2,3,8)            113.7079         estimate D2E/DX2                !
 ! D25   D(4,2,3,6)            109.7406         estimate D2E/DX2                !
 ! D26   D(4,2,3,7)             -7.5861         estimate D2E/DX2                !
 ! D27   D(4,2,3,8)           -128.5377         estimate D2E/DX2                !
 ! D28   D(5,2,3,6)           -128.3782         estimate D2E/DX2                !
 ! D29   D(5,2,3,7)            114.2952         estimate D2E/DX2                !
 ! D30   D(5,2,3,8)             -6.6564         estimate D2E/DX2                !
 ! D31   D(1,2,4,18)           -25.8187         estimate D2E/DX2                !
 ! D32   D(3,2,4,18)          -138.8649         estimate D2E/DX2                !
 ! D33   D(5,2,4,18)            98.4561         estimate D2E/DX2                !
 ! D34   D(2,3,6,9)            -13.58           estimate D2E/DX2                !
 ! D35   D(7,3,6,9)            101.5096         estimate D2E/DX2                !
 ! D36   D(8,3,6,9)           -139.7226         estimate D2E/DX2                !
 ! D37   D(2,3,8,20)           119.9766         estimate D2E/DX2                !
 ! D38   D(2,3,8,24)           -60.8289         estimate D2E/DX2                !
 ! D39   D(6,3,8,20)          -119.0345         estimate D2E/DX2                !
 ! D40   D(6,3,8,24)            60.16           estimate D2E/DX2                !
 ! D41   D(7,3,8,20)             0.3362         estimate D2E/DX2                !
 ! D42   D(7,3,8,24)           179.5308         estimate D2E/DX2                !
 ! D43   D(3,6,9,1)             29.769          estimate D2E/DX2                !
 ! D44   D(3,6,9,12)           152.3429         estimate D2E/DX2                !
 ! D45   D(3,6,9,13)           -87.6017         estimate D2E/DX2                !
 ! D46   D(3,8,20,21)         -179.7726         estimate D2E/DX2                !
 ! D47   D(3,8,20,25)            0.0284         estimate D2E/DX2                !
 ! D48   D(24,8,20,21)           1.019          estimate D2E/DX2                !
 ! D49   D(24,8,20,25)        -179.18           estimate D2E/DX2                !
 ! D50   D(3,8,24,23)         -179.9227         estimate D2E/DX2                !
 ! D51   D(3,8,24,28)            0.3865         estimate D2E/DX2                !
 ! D52   D(20,8,24,23)          -0.6984         estimate D2E/DX2                !
 ! D53   D(20,8,24,28)         179.6108         estimate D2E/DX2                !
 ! D54   D(1,9,12,14)           48.7549         estimate D2E/DX2                !
 ! D55   D(1,9,12,15)          -70.3735         estimate D2E/DX2                !
 ! D56   D(1,9,12,16)          172.5792         estimate D2E/DX2                !
 ! D57   D(6,9,12,14)          -67.5654         estimate D2E/DX2                !
 ! D58   D(6,9,12,15)          173.3063         estimate D2E/DX2                !
 ! D59   D(6,9,12,16)           56.259          estimate D2E/DX2                !
 ! D60   D(13,9,12,14)         171.7379         estimate D2E/DX2                !
 ! D61   D(13,9,12,15)          52.6095         estimate D2E/DX2                !
 ! D62   D(13,9,12,16)         -64.4378         estimate D2E/DX2                !
 ! D63   D(9,12,14,19)          38.2766         estimate D2E/DX2                !
 ! D64   D(15,12,14,19)        158.2482         estimate D2E/DX2                !
 ! D65   D(16,12,14,19)        -83.8011         estimate D2E/DX2                !
 ! D66   D(8,20,21,22)          -0.7404         estimate D2E/DX2                !
 ! D67   D(25,20,21,22)        179.4474         estimate D2E/DX2                !
 ! D68   D(20,21,22,23)          0.1156         estimate D2E/DX2                !
 ! D69   D(20,21,22,27)       -179.8374         estimate D2E/DX2                !
 ! D70   D(21,22,23,24)          0.1709         estimate D2E/DX2                !
 ! D71   D(21,22,23,26)       -179.667          estimate D2E/DX2                !
 ! D72   D(27,22,23,24)       -179.8765         estimate D2E/DX2                !
 ! D73   D(27,22,23,26)          0.2856         estimate D2E/DX2                !
 ! D74   D(22,23,24,8)           0.12           estimate D2E/DX2                !
 ! D75   D(22,23,24,28)        179.8307         estimate D2E/DX2                !
 ! D76   D(26,23,24,8)         179.9568         estimate D2E/DX2                !
 ! D77   D(26,23,24,28)         -0.3324         estimate D2E/DX2                !
 --------------------------------------------------------------------------------
 Trust Radius=3.00D-01 FncErr=1.00D-07 GrdErr=1.00D-06 EigMax=2.50D+02 EigMin=1.00D-04
 Number of steps in this run=    166 maximum allowed number of steps=    168.
 GradGradGradGradGradGradGradGradGradGradGradGradGradGradGradGradGradGrad

                          Input orientation:                          
 ---------------------------------------------------------------------
 Center     Atomic      Atomic             Coordinates (Angstroms)
 Number     Number       Type             X           Y           Z
 ---------------------------------------------------------------------
      1          6           0        2.303647   -0.221326   -0.645041
      2          6           0        1.238282   -1.329676   -0.588336
      3          6           0        0.387335   -0.945815    0.639522
      4          8           0        1.837031   -2.585331   -0.354319
      5          1           0        0.631463   -1.362221   -1.507113
      6          8           0        1.049039    0.135335    1.294356
      7          1           0        0.378521   -1.829527    1.298314
      8          6           0       -1.026459   -0.543058    0.356677
      9          6           0        2.375731    0.270327    0.797206
     10          1           0        1.963388    0.594815   -1.291599
     11          8           0        3.567168   -0.721386   -1.058673
     12          6           0        2.784064    1.721050    0.950332
     13          1           0        3.072868   -0.374777    1.362465
     14          8           0        2.057309    2.589126    0.111572
     15          1           0        3.845909    1.820432    0.683677
     16          1           0        2.672565    2.000936    2.012488
     17          1           0        3.711116   -0.477946   -1.976520
     18          1           0        2.742742   -2.513602   -0.691082
     19          1           0        1.139642    2.283894    0.075382
     20          6           0       -2.078680   -1.214255    0.878283
     21          7           0       -3.376423   -0.862742    0.626640
     22          6           0       -3.737529    0.212035   -0.166073
     23          7           0       -2.651508    0.891089   -0.678594
     24          6           0       -1.298668    0.613379   -0.489037
     25          1           0       -1.941763   -2.077937    1.528073
     26          1           0       -2.869781    1.690375   -1.261955
     27          8           0       -4.892417    0.518436   -0.381677
     28          8           0       -0.454509    1.320162   -1.023196
 ---------------------------------------------------------------------
                    Distance matrix (angstroms):
                    1          2          3          4          5
     1  C    0.000000
     2  C    1.538395   0.000000
     3  C    2.418106   1.542432   0.000000
     4  O    2.427091   1.410650   2.403612   0.000000
     5  H    2.200229   1.101562   2.200235   2.068412   0.000000
     6  O    2.337201   2.393031   1.426725   3.277359   3.203946
     7  H    3.173177   2.132719   1.102285   2.330169   2.855306
     8  C    3.492357   2.576988   1.497006   3.588310   2.625537
     9  C    1.525449   2.402816   2.336147   3.125858   3.319272
    10  H    1.095399   2.173482   2.930309   3.317799   2.377070
    11  O    1.420435   2.452538   3.611866   2.638897   3.038113
    12  C    2.559070   3.750183   3.599039   4.598250   4.492136
    13  H    2.155302   2.843090   2.839158   3.059606   3.894866
    14  O    2.920922   4.064196   3.945041   5.200056   4.501813
    15  H    2.883199   4.282630   4.428973   4.952148   5.026082
    16  H    3.483821   4.462559   3.973745   5.228168   5.278685
    17  H    1.954395   2.960981   4.255596   3.253429   3.238294
    18  H    2.334406   1.917195   3.126724   0.968951   2.539505
    19  H    2.854828   3.675342   3.363813   4.937646   4.007080
    20  C    4.744598   3.628571   2.492047   4.328042   3.613431
    21  N    5.855919   4.794757   3.764697   5.577607   4.567880
    22  C    6.075609   5.226268   4.359370   6.239905   4.833711
    23  N    5.078598   4.480001   3.787639   5.686619   4.067155
    24  C    3.701046   3.197098   2.558777   4.481351   2.943617
    25  H    5.117903   3.892527   2.737868   4.252074   4.043030
    26  H    5.549733   5.143020   4.601512   6.423359   4.651575
    27  O    7.238781   6.406535   5.573389   7.410775   5.942788
    28  O    3.182234   3.174317   2.933937   4.577273   2.934057
                    6          7          8          9         10
     6  O    0.000000
     7  H    2.076124   0.000000
     8  C    2.376373   2.125006   0.000000
     9  C    1.423198   2.940977   3.525700   0.000000
    10  H    2.781064   3.885471   3.598716   2.153700   0.000000
    11  O    3.551294   4.117139   4.810034   2.418120   2.087762
    12  C    2.375533   4.302828   4.471990   1.514853   2.639729
    13  H    2.088238   3.062665   4.224264   1.105295   3.035640
    14  O    2.904596   4.873518   4.402304   2.438917   2.440284
    15  H    3.321891   5.071761   5.425217   2.139425   2.991277
    16  H    2.575270   4.521629   4.785018   2.135422   3.660205
    17  H    4.261619   4.863897   5.281351   3.168079   2.162056
    18  H    3.718529   3.164679   4.380379   3.178043   3.260409
    19  H    2.471925   4.358337   3.572503   2.470506   2.323829
    20  C    3.431783   2.567649   1.352682   4.695991   4.931474
    21  N    4.585490   3.935152   2.386925   5.865170   5.858131
    22  C    5.004994   4.822268   2.862400   6.188962   5.823554
    23  N    4.261190   4.526698   2.401947   5.276027   4.664849
    24  C    2.986762   3.460546   1.458313   3.908109   3.359384
    25  H    3.728015   2.344827   2.136774   4.968829   5.508571
    26  H    4.930520   5.431036   3.317533   5.811375   4.955871
    27  O    6.185204   6.009833   4.076465   7.367313   6.916347
    28  O    3.005914   4.000486   2.388046   3.525092   2.538581
                   11         12         13         14         15
    11  O    0.000000
    12  C    3.258043   0.000000
    13  H    2.495271   2.155401   0.000000
    14  O    3.822125   1.408988   3.373546   0.000000
    15  H    3.094240   1.099316   2.424312   2.029109   0.000000
    16  H    4.200403   1.104058   2.495353   2.082784   1.781869
    17  H    0.960431   3.776436   3.401004   4.062282   3.518147
    18  H    2.006699   4.541831   2.983389   5.210749   4.678759
    19  H    4.026248   1.945881   3.530223   0.967775   2.812241
    20  C    5.989183   5.680448   5.241908   5.670975   6.659426
    21  N    7.146588   6.688225   6.509447   6.458028   7.704853
    22  C    7.417992   6.786358   7.004447   6.269593   7.798561
    23  N    6.435563   5.734778   6.207803   5.067608   6.703424
    24  C    5.077641   4.468492   4.849210   3.940417   5.412847
    25  H    6.235367   6.090938   5.298557   6.307181   7.029042
    26  H    6.876934   6.071336   6.816708   5.193317   6.993060
    27  O    8.576716   7.883457   8.202782   7.268407   8.898793
    28  O    4.510328   3.813644   4.583294   3.034336   4.653738
                   16         17         18         19         20
    16  H    0.000000
    17  H    4.809951   0.000000
    18  H    5.262629   2.594994   0.000000
    19  H    2.486423   4.295409   5.115991   0.000000
    20  C    5.847923   6.497214   5.234245   4.820715   0.000000
    21  N    6.834580   7.560272   6.473477   5.531731   1.367853
    22  C    7.002542   7.696499   7.049727   5.304498   2.424204
    23  N    6.067902   6.636404   6.378872   4.108674   2.680386
    24  C    4.894245   5.338683   5.113886   3.009077   2.412100
    25  H    6.177693   6.840847   5.201830   5.534522   1.089459
    26  H    6.444845   6.965660   7.035605   4.268045   3.693689
    27  O    8.072099   8.806650   8.220988   6.301705   3.536500
    28  O    4.411057   4.636211   5.003045   2.162630   3.560453
                   21         22         23         24         25
    21  N    0.000000
    22  C    1.383451   0.000000
    23  N    2.303272   1.379577   0.000000
    24  C    2.782217   2.492674   1.393998   0.000000
    25  H    2.085073   3.367325   3.766727   3.424250   0.000000
    26  H    3.215880   2.034560   1.013317   2.055655   4.779712
    27  O    2.285299   1.214139   2.291005   3.596606   4.369743
    28  O    4.003075   3.569429   2.264875   1.223713   4.501997
                   26         27         28
    26  H    0.000000
    27  O    2.497876   0.000000
    28  O    2.455118   4.555144   0.000000
 Stoichiometry    C9H11N2O6(1-)
 Framework group  C1[X(C9H11N2O6)]
 Deg. of freedom    78
 Full point group                 C1      NOp   1
 Largest Abelian subgroup         C1      NOp   1
 Largest concise Abelian subgroup C1      NOp   1
                         Standard orientation:                         
 ---------------------------------------------------------------------
 Center     Atomic      Atomic             Coordinates (Angstroms)
 Number     Number       Type             X           Y           Z
 ---------------------------------------------------------------------
      1          6           0        2.269371   -0.217234   -0.647941
      2          6           0        1.215137   -1.335099   -0.572930
      3          6           0        0.367716   -0.946139    0.655762
      4          8           0        1.827374   -2.582324   -0.328946
      5          1           0        0.603293   -1.383445   -1.487670
      6          8           0        1.022744    0.148366    1.294935
      7          1           0        0.371315   -1.822695    1.324095
      8          6           0       -1.051542   -0.560091    0.377016
      9          6           0        2.345134    0.290709    0.788460
     10          1           0        1.917447    0.588533   -1.301231
     11          8           0        3.535231   -0.709577   -1.063674
     12          6           0        2.740292    1.746868    0.923483
     13          1           0        3.051781   -0.341489    1.356485
     14          8           0        2.000269    2.598763    0.079748
     15          1           0        3.799546    1.853559    0.649449
     16          1           0        2.632309    2.037177    1.983202
     17          1           0        3.671440   -0.474737   -1.984936
     18          1           0        2.730361   -2.505546   -0.671854
     19          1           0        1.085404    2.284344    0.052324
     20          6           0       -2.094144   -1.235678    0.912097
     21          7           0       -3.396680   -0.899413    0.664412
     22          6           0       -3.772810    0.163177   -0.137689
     23          7           0       -2.696433    0.847043   -0.663972
     24          6           0       -1.339881    0.584430   -0.479493
     25          1           0       -1.945070   -2.090902    1.570344
     26          1           0       -2.925845    1.637817   -1.254614
     27          8           0       -4.931852    0.456099   -0.349702
     28          8           0       -0.505746    1.293462   -1.026270
 ---------------------------------------------------------------------
 Rotational constants (GHZ):           0.9213079           0.2973063           0.2580186
 Standard basis: Aug-CC-pVDZ (5D, 7F)
 There are   524 symmetry adapted cartesian basis functions of A   symmetry.
 There are   490 symmetry adapted basis functions of A   symmetry.
   490 basis functions,   852 primitive gaussians,   524 cartesian basis functions
    64 alpha electrons       64 beta electrons
       nuclear repulsion energy      1301.7267409583 Hartrees.
 NAtoms=   28 NActive=   28 NUniq=   28 SFac= 1.00D+00 NAtFMM=   60 NAOKFM=F Big=F
 Integral buffers will be    131072 words long.
 Raffenetti 2 integral format.
 Two-electron integral symmetry is turned on.
 Nuclear repulsion after empirical dispersion term =     1301.7072003883 Hartrees.
 One-electron integrals computed using PRISM.
 NBasis=   490 RedAO= T EigKep=  2.78D-06  NBF=   490
 NBsUse=   490 1.00D-06 EigRej= -1.00D+00 NBFU=   490
 ExpMin= 2.97D-02 ExpMax= 1.17D+04 ExpMxC= 4.01D+02 IAcc=3 IRadAn=         5 AccDes= 0.00D+00
 Harris functional with IExCor= 1009 and IRadAn=       5 diagonalized for initial guess.
 HarFok:  IExCor= 1009 AccDes= 0.00D+00 IRadAn=         5 IDoV= 1 UseB2=F ITyADJ=14
 ICtDFT=  3500011 ScaDFX=  1.000000  1.000000  1.000000  1.000000
 FoFCou: FMM=F IPFlag=           0 FMFlag=      100000 FMFlg1=           0
         NFxFlg=           0 DoJE=T BraDBF=F KetDBF=T FulRan=T
         wScrn=  0.000000 ICntrl=       500 IOpCl=  0 I1Cent=   200000004 NGrid=           0
         NMat0=    1 NMatS0=      1 NMatT0=    0 NMatD0=    1 NMtDS0=    0 NMtDT0=    0
 Petite list used in FoFCou.
 Requested convergence on RMS density matrix=1.00D-08 within 128 cycles.
 Requested convergence on MAX density matrix=1.00D-06.
 Requested convergence on             energy=1.00D-06.
 No special actions if energy rises.
 SCF Done:  E(RPBE1PBE) =  -909.684105065     A.U. after   14 cycles
            NFock= 14  Conv=0.58D-08     -V/T= 2.0052

 **********************************************************************

            Population analysis using the SCF Density.

 **********************************************************************

 Orbital symmetries:
       Occupied  (A) (A) (A) (A) (A) (A) (A) (A) (A) (A) (A) (A)
                 (A) (A) (A) (A) (A) (A) (A) (A) (A) (A) (A) (A)
                 (A) (A) (A) (A) (A) (A) (A) (A) (A) (A) (A) (A)
                 (A) (A) (A) (A) (A) (A) (A) (A) (A) (A) (A) (A)
                 (A) (A) (A) (A) (A) (A) (A) (A) (A) (A) (A) (A)
                 (A) (A) (A) (A)
       Virtual   (A) (A) (A) (A) (A) (A) (A) (A) (A) (A) (A) (A)
                 (A) (A) (A) (A) (A) (A) (A) (A) (A) (A) (A) (A)
                 (A) (A) (A) (A) (A) (A) (A) (A) (A) (A) (A) (A)
                 (A) (A) (A) (A) (A) (A) (A) (A) (A) (A) (A) (A)
                 (A) (A) (A) (A) (A) (A) (A) (A) (A) (A) (A) (A)
                 (A) (A) (A) (A) (A) (A) (A) (A) (A) (A) (A) (A)
                 (A) (A) (A) (A) (A) (A) (A) (A) (A) (A) (A) (A)
                 (A) (A) (A) (A) (A) (A) (A) (A) (A) (A) (A) (A)
                 (A) (A) (A) (A) (A) (A) (A) (A) (A) (A) (A) (A)
                 (A) (A) (A) (A) (A) (A) (A) (A) (A) (A) (A) (A)
                 (A) (A) (A) (A) (A) (A) (A) (A) (A) (A) (A) (A)
                 (A) (A) (A) (A) (A) (A) (A) (A) (A) (A) (A) (A)
                 (A) (A) (A) (A) (A) (A) (A) (A) (A) (A) (A) (A)
                 (A) (A) (A) (A) (A) (A) (A) (A) (A) (A) (A) (A)
                 (A) (A) (A) (A) (A) (A) (A) (A) (A) (A) (A) (A)
                 (A) (A) (A) (A) (A) (A) (A) (A) (A) (A) (A) (A)
                 (A) (A) (A) (A) (A) (A) (A) (A) (A) (A) (A) (A)
                 (A) (A) (A) (A) (A) (A) (A) (A) (A) (A) (A) (A)
                 (A) (A) (A) (A) (A) (A) (A) (A) (A) (A) (A) (A)
                 (A) (A) (A) (A) (A) (A) (A) (A) (A) (A) (A) (A)
                 (A) (A) (A) (A) (A) (A) (A) (A) (A) (A) (A) (A)
                 (A) (A) (A) (A) (A) (A) (A) (A) (A) (A) (A) (A)
                 (A) (A) (A) (A) (A) (A) (A) (A) (A) (A) (A) (A)
                 (A) (A) (A) (A) (A) (A) (A) (A) (A) (A) (A) (A)
                 (A) (A) (A) (A) (A) (A) (A) (A) (A) (A) (A) (A)
                 (A) (A) (A) (A) (A) (A) (A) (A) (A) (A) (A) (A)
                 (A) (A) (A) (A) (A) (A) (A) (A) (A) (A) (A) (A)
                 (A) (A) (A) (A) (A) (A) (A) (A) (A) (A) (A) (A)
                 (A) (A) (A) (A) (A) (A) (A) (A) (A) (A) (A) (A)
                 (A) (A) (A) (A) (A) (A) (A) (A) (A) (A) (A) (A)
                 (A) (A) (A) (A) (A) (A) (A) (A) (A) (A) (A) (A)
                 (A) (A) (A) (A) (A) (A) (A) (A) (A) (A) (A) (A)
                 (A) (A) (A) (A) (A) (A) (A) (A) (A) (A) (A) (A)
                 (A) (A) (A) (A) (A) (A) (A) (A) (A) (A) (A) (A)
                 (A) (A) (A) (A) (A) (A) (A) (A) (A) (A) (A) (A)
                 (A) (A) (A) (A) (A) (A)
 The electronic state is 1-A.
 Alpha  occ. eigenvalues --  -19.16069 -19.12255 -19.11971 -19.11093 -19.06001
 Alpha  occ. eigenvalues --  -19.03332 -14.29595 -14.21576 -10.20218 -10.19762
 Alpha  occ. eigenvalues --  -10.18485 -10.17928 -10.17664 -10.17393 -10.16763
 Alpha  occ. eigenvalues --  -10.13483 -10.08761  -0.99840  -0.97081  -0.95166
 Alpha  occ. eigenvalues --   -0.94793  -0.93961  -0.92309  -0.82455  -0.75731
 Alpha  occ. eigenvalues --   -0.70032  -0.68989  -0.64026  -0.58461  -0.53322
 Alpha  occ. eigenvalues --   -0.52790  -0.51003  -0.49497  -0.46355  -0.43422
 Alpha  occ. eigenvalues --   -0.42782  -0.40931  -0.40019  -0.38546  -0.37358
 Alpha  occ. eigenvalues --   -0.37040  -0.35033  -0.34206  -0.32912  -0.32422
 Alpha  occ. eigenvalues --   -0.30944  -0.29971  -0.29681  -0.27948  -0.27642
 Alpha  occ. eigenvalues --   -0.26651  -0.26319  -0.24669  -0.23873  -0.21091
 Alpha  occ. eigenvalues --   -0.19388  -0.18480  -0.18102  -0.17242  -0.15219
 Alpha  occ. eigenvalues --   -0.14847  -0.12914  -0.11051  -0.07486
 Alpha virt. eigenvalues --    0.06556   0.08556   0.09622   0.10421   0.11261
 Alpha virt. eigenvalues --    0.11508   0.11650   0.11859   0.12451   0.12723
 Alpha virt. eigenvalues --    0.14058   0.14483   0.15320   0.15839   0.16388
 Alpha virt. eigenvalues --    0.16446   0.16725   0.16954   0.17786   0.18691
 Alpha virt. eigenvalues --    0.18779   0.19101   0.19275   0.19534   0.19687
 Alpha virt. eigenvalues --    0.20125   0.20425   0.20981   0.21143   0.21632
 Alpha virt. eigenvalues --    0.21897   0.22059   0.22543   0.23046   0.23483
 Alpha virt. eigenvalues --    0.23842   0.24214   0.24508   0.25665   0.25884
 Alpha virt. eigenvalues --    0.26035   0.26276   0.27085   0.27452   0.28005
 Alpha virt. eigenvalues --    0.28242   0.28591   0.29546   0.29912   0.30519
 Alpha virt. eigenvalues --    0.30710   0.30906   0.31189   0.31449   0.31824
 Alpha virt. eigenvalues --    0.32686   0.33162   0.33264   0.33877   0.34541
 Alpha virt. eigenvalues --    0.34771   0.34977   0.35093   0.35844   0.36199
 Alpha virt. eigenvalues --    0.36237   0.36405   0.36821   0.37243   0.37399
 Alpha virt. eigenvalues --    0.37684   0.38039   0.38464   0.38541   0.39254
 Alpha virt. eigenvalues --    0.39463   0.40188   0.40237   0.40974   0.41165
 Alpha virt. eigenvalues --    0.41325   0.41517   0.41869   0.42243   0.42774
 Alpha virt. eigenvalues --    0.42976   0.43506   0.44039   0.44394   0.44689
 Alpha virt. eigenvalues --    0.45289   0.45925   0.46608   0.46735   0.47336
 Alpha virt. eigenvalues --    0.47977   0.48191   0.48791   0.49507   0.50031
 Alpha virt. eigenvalues --    0.50175   0.51055   0.51343   0.51524   0.51923
 Alpha virt. eigenvalues --    0.52681   0.52910   0.53642   0.53856   0.54218
 Alpha virt. eigenvalues --    0.54602   0.54850   0.55261   0.56004   0.56672
 Alpha virt. eigenvalues --    0.57153   0.57820   0.58546   0.59127   0.59513
 Alpha virt. eigenvalues --    0.60708   0.61174   0.61949   0.62303   0.62945
 Alpha virt. eigenvalues --    0.63950   0.64087   0.65039   0.65771   0.66195
 Alpha virt. eigenvalues --    0.66621   0.66917   0.67481   0.67765   0.68446
 Alpha virt. eigenvalues --    0.68970   0.69241   0.69762   0.70487   0.71045
 Alpha virt. eigenvalues --    0.72233   0.72848   0.73158   0.73573   0.73805
 Alpha virt. eigenvalues --    0.74509   0.74793   0.74921   0.75419   0.75960
 Alpha virt. eigenvalues --    0.76681   0.77427   0.77538   0.77957   0.78758
 Alpha virt. eigenvalues --    0.79018   0.79700   0.80171   0.80714   0.80863
 Alpha virt. eigenvalues --    0.81361   0.82324   0.82482   0.83114   0.84788
 Alpha virt. eigenvalues --    0.84936   0.85807   0.86264   0.86490   0.87114
 Alpha virt. eigenvalues --    0.87550   0.87746   0.89342   0.89601   0.90119
 Alpha virt. eigenvalues --    0.90980   0.91376   0.92010   0.92265   0.93502
 Alpha virt. eigenvalues --    0.94873   0.95072   0.95238   0.95932   0.96473
 Alpha virt. eigenvalues --    0.97082   0.97807   0.98919   0.99193   1.00070
 Alpha virt. eigenvalues --    1.00823   1.01980   1.02636   1.03336   1.03988
 Alpha virt. eigenvalues --    1.04339   1.05101   1.05272   1.07029   1.08120
 Alpha virt. eigenvalues --    1.08563   1.09650   1.10096   1.11864   1.12114
 Alpha virt. eigenvalues --    1.13556   1.14232   1.15073   1.15454   1.16196
 Alpha virt. eigenvalues --    1.17893   1.18597   1.19647   1.20781   1.20959
 Alpha virt. eigenvalues --    1.22597   1.22800   1.23281   1.23877   1.24769
 Alpha virt. eigenvalues --    1.26012   1.26203   1.27172   1.27809   1.28843
 Alpha virt. eigenvalues --    1.29484   1.30803   1.31460   1.32274   1.33482
 Alpha virt. eigenvalues --    1.34065   1.35441   1.36153   1.36624   1.38766
 Alpha virt. eigenvalues --    1.39681   1.39994   1.41446   1.41913   1.43381
 Alpha virt. eigenvalues --    1.43874   1.44883   1.46846   1.47300   1.47754
 Alpha virt. eigenvalues --    1.49159   1.50102   1.51534   1.52579   1.52911
 Alpha virt. eigenvalues --    1.53890   1.55508   1.56114   1.56777   1.57981
 Alpha virt. eigenvalues --    1.58380   1.60060   1.60712   1.61678   1.63690
 Alpha virt. eigenvalues --    1.64055   1.65297   1.66021   1.67382   1.68244
 Alpha virt. eigenvalues --    1.69150   1.69723   1.69899   1.71258   1.71710
 Alpha virt. eigenvalues --    1.72087   1.73052   1.74835   1.75254   1.77227
 Alpha virt. eigenvalues --    1.78652   1.80093   1.80720   1.81786   1.82275
 Alpha virt. eigenvalues --    1.82790   1.84224   1.86072   1.86449   1.87104
 Alpha virt. eigenvalues --    1.87888   1.90133   1.90996   1.91829   1.91963
 Alpha virt. eigenvalues --    1.92880   1.93824   1.94902   1.96151   1.96857
 Alpha virt. eigenvalues --    1.97412   1.98245   1.99025   2.00088   2.01243
 Alpha virt. eigenvalues --    2.03008   2.03568   2.04451   2.05315   2.07222
 Alpha virt. eigenvalues --    2.08844   2.09347   2.10660   2.11824   2.12793
 Alpha virt. eigenvalues --    2.13539   2.13859   2.14898   2.17156   2.17303
 Alpha virt. eigenvalues --    2.18385   2.19631   2.21740   2.22430   2.23070
 Alpha virt. eigenvalues --    2.23832   2.25012   2.25775   2.26107   2.26846
 Alpha virt. eigenvalues --    2.28436   2.30207   2.31958   2.32848   2.35157
 Alpha virt. eigenvalues --    2.35867   2.36241   2.36833   2.38735   2.39006
 Alpha virt. eigenvalues --    2.40645   2.41513   2.43052   2.43725   2.44508
 Alpha virt. eigenvalues --    2.46326   2.47699   2.49848   2.52144   2.52559
 Alpha virt. eigenvalues --    2.53307   2.54721   2.56325   2.56989   2.58747
 Alpha virt. eigenvalues --    2.59631   2.60506   2.61207   2.63481   2.64705
 Alpha virt. eigenvalues --    2.65648   2.66852   2.68735   2.71618   2.72107
 Alpha virt. eigenvalues --    2.73849   2.74736   2.75741   2.77046   2.78871
 Alpha virt. eigenvalues --    2.79837   2.81316   2.83939   2.84456   2.85199
 Alpha virt. eigenvalues --    2.87335   2.91209   2.91907   2.95320   2.97925
 Alpha virt. eigenvalues --    3.00613   3.03410   3.04344   3.07565   3.09393
 Alpha virt. eigenvalues --    3.13692   3.15485   3.19155   3.20689   3.28780
 Alpha virt. eigenvalues --    3.32721   3.36415   3.42504   3.43416   3.45975
 Alpha virt. eigenvalues --    3.52369   3.53830   3.54978   3.56454   3.56634
 Alpha virt. eigenvalues --    3.58127   3.59639   3.60487   3.61095   3.62312
 Alpha virt. eigenvalues --    3.63469   3.64416   3.67453   3.69105   3.71451
 Alpha virt. eigenvalues --    3.73044   3.73539   3.75540   3.76705   3.78870
 Alpha virt. eigenvalues --    3.80002   3.83516   3.84884   3.87135   3.88940
 Alpha virt. eigenvalues --    3.92621   3.95269   3.98737   4.03318   4.09642
 Alpha virt. eigenvalues --    4.13017   4.17473   4.21492   4.34848   4.35763
 Alpha virt. eigenvalues --    5.07130
          Condensed to atoms (all electrons):
               1          2          3          4          5          6
     1  C   11.957999  -3.931448   1.112470   0.260600   0.456736  -0.171935
     2  C   -3.931448  10.426655  -3.306347  -0.664513  -0.850870   0.268481
     3  C    1.112470  -3.306347  16.990997   0.302397   0.066460  -0.332872
     4  O    0.260600  -0.664513   0.302397   8.840160  -0.119214   0.012822
     5  H    0.456736  -0.850870   0.066460  -0.119214   1.995447  -0.005003
     6  O   -0.171935   0.268481  -0.332872   0.012822  -0.005003   9.480410
     7  H    0.118383   0.385524  -1.403694  -0.022183   0.065259  -0.126733
     8  C    0.267588   0.733988  -3.549901  -0.014478  -0.222066  -0.078798
     9  C   -2.647513   1.168237  -2.606596  -0.067311   0.244215  -0.335326
    10  H   -1.345398   0.794764  -0.229367  -0.018666  -0.190402   0.125861
    11  O   -0.939495   0.438108   0.073386  -0.068956  -0.063848   0.005741
    12  C   -0.134396  -0.270783   0.519930   0.032706   0.000892   0.020888
    13  H    0.461969  -0.219456   0.218978   0.024207   0.004975  -0.036403
    14  O   -0.088128   0.038917  -0.018029  -0.000715  -0.005469  -0.025061
    15  H   -0.023167   0.090159  -0.010880  -0.000347   0.001869   0.100916
    16  H   -0.059467  -0.021141  -0.021947   0.001523   0.000702  -0.077391
    17  H    0.414430  -0.273394   0.031214   0.015905   0.024727  -0.007365
    18  H   -0.218313   0.195504  -0.113929   0.269530  -0.013521   0.015132
    19  H   -0.020771   0.008897  -0.032861  -0.001129   0.000171   0.034729
    20  C    0.297952  -0.620226  -1.179459  -0.014565  -0.010943  -0.088392
    21  N   -0.015474   0.026418   0.102425  -0.002890   0.003378   0.002423
    22  C   -0.025574   0.035471  -0.470502   0.003147  -0.003672  -0.000736
    23  N    0.025074  -0.092019   0.374745   0.001515  -0.020928  -0.010653
    24  C   -0.553297   0.711798  -1.756968  -0.056317   0.034520   0.094705
    25  H   -0.022506   0.106437  -0.001481  -0.007643   0.007496   0.048920
    26  H   -0.006617   0.006991  -0.025728   0.000133   0.000482  -0.000338
    27  O    0.000415  -0.000645   0.020208  -0.000051  -0.000572   0.000109
    28  O    0.079566  -0.062289   0.117168  -0.001207   0.021040  -0.013328
               7          8          9         10         11         12
     1  C    0.118383   0.267588  -2.647513  -1.345398  -0.939495  -0.134396
     2  C    0.385524   0.733988   1.168237   0.794764   0.438108  -0.270783
     3  C   -1.403694  -3.549901  -2.606596  -0.229367   0.073386   0.519930
     4  O   -0.022183  -0.014478  -0.067311  -0.018666  -0.068956   0.032706
     5  H    0.065259  -0.222066   0.244215  -0.190402  -0.063848   0.000892
     6  O   -0.126733  -0.078798  -0.335326   0.125861   0.005741   0.020888
     7  H    2.233364   0.542843   0.092356  -0.018961  -0.014701  -0.012034
     8  C    0.542843  13.573154   0.200735  -0.000979  -0.038091  -0.221522
     9  C    0.092356   0.200735  11.147176  -0.567156   0.197622  -0.429311
    10  H   -0.018961  -0.000979  -0.567156   2.803272  -0.010732  -0.009747
    11  O   -0.014701  -0.038091   0.197622  -0.010732   8.732935   0.005611
    12  C   -0.012034  -0.221522  -0.429311  -0.009747   0.005611   5.183604
    13  H    0.012244  -0.028514  -1.183420   0.140239  -0.048135  -0.032060
    14  O   -0.000468   0.002811   0.029854   0.039343   0.012205   0.058622
    15  H   -0.001859  -0.000728  -0.207831  -0.014262   0.026486   0.144709
    16  H   -0.003956   0.019496   0.407981   0.020207   0.000932   0.043874
    17  H    0.004761   0.003689  -0.024168  -0.192484   0.274753   0.002295
    18  H   -0.013952   0.014531   0.026525   0.042313   0.053865  -0.005654
    19  H    0.001182   0.010912   0.008657  -0.006600  -0.000134  -0.033725
    20  C   -0.077990  -3.951518  -0.215097   0.024100  -0.000926  -0.058786
    21  N   -0.016223   0.196348   0.004223  -0.001157   0.000109   0.003305
    22  C    0.004512   0.400226   0.010529   0.000774   0.000571  -0.009896
    23  N   -0.005397  -0.305282  -0.040165   0.003239   0.001174   0.003423
    24  C   -0.084129  -3.015899   0.199406   0.095833   0.013665  -0.019971
    25  H   -0.068543   0.237566   0.043242   0.001128  -0.000129  -0.002458
    26  H    0.000548   0.215643   0.005577  -0.000861   0.000128  -0.000371
    27  O    0.000153  -0.016480  -0.000270   0.000325  -0.000002   0.000173
    28  O    0.009966  -0.035626  -0.062420   0.010650  -0.001291   0.015258
              13         14         15         16         17         18
     1  C    0.461969  -0.088128  -0.023167  -0.059467   0.414430  -0.218313
     2  C   -0.219456   0.038917   0.090159  -0.021141  -0.273394   0.195504
     3  C    0.218978  -0.018029  -0.010880  -0.021947   0.031214  -0.113929
     4  O    0.024207  -0.000715  -0.000347   0.001523   0.015905   0.269530
     5  H    0.004975  -0.005469   0.001869   0.000702   0.024727  -0.013521
     6  O   -0.036403  -0.025061   0.100916  -0.077391  -0.007365   0.015132
     7  H    0.012244  -0.000468  -0.001859  -0.003956   0.004761  -0.013952
     8  C   -0.028514   0.002811  -0.000728   0.019496   0.003689   0.014531
     9  C   -1.183420   0.029854  -0.207831   0.407981  -0.024168   0.026525
    10  H    0.140239   0.039343  -0.014262   0.020207  -0.192484   0.042313
    11  O   -0.048135   0.012205   0.026486   0.000932   0.274753   0.053865
    12  C   -0.032060   0.058622   0.144709   0.043874   0.002295  -0.005654
    13  H    2.283313   0.018710  -0.088594  -0.027688  -0.013624   0.006884
    14  O    0.018710   8.447320  -0.126350  -0.051493  -0.003547   0.000636
    15  H   -0.088594  -0.126350   1.680331  -0.323714  -0.005282   0.001954
    16  H   -0.027688  -0.051493  -0.323714   1.363495  -0.000251  -0.000804
    17  H   -0.013624  -0.003547  -0.005282  -0.000251   0.623768  -0.018753
    18  H    0.006884   0.000636   0.001954  -0.000804  -0.018753   0.613363
    19  H   -0.000577   0.231592   0.021917  -0.039982  -0.000609   0.000149
    20  C    0.008052  -0.000968  -0.005398   0.002228   0.001257  -0.009091
    21  N    0.000501   0.000326   0.000119   0.000107  -0.000072   0.000538
    22  C    0.000105  -0.000394  -0.000379  -0.000051  -0.000193   0.000195
    23  N   -0.002009  -0.003506   0.000502  -0.000872   0.000195  -0.000854
    24  C    0.019043   0.014992  -0.008151   0.003418  -0.014089   0.013288
    25  H    0.003149  -0.000239   0.000165   0.000177  -0.000460   0.001794
    26  H    0.000173  -0.000093  -0.000053   0.000223  -0.000138   0.000095
    27  O   -0.000015   0.000037   0.000010  -0.000011  -0.000001   0.000011
    28  O    0.001033  -0.017077   0.003717  -0.001996   0.000346  -0.001612
              19         20         21         22         23         24
     1  C   -0.020771   0.297952  -0.015474  -0.025574   0.025074  -0.553297
     2  C    0.008897  -0.620226   0.026418   0.035471  -0.092019   0.711798
     3  C   -0.032861  -1.179459   0.102425  -0.470502   0.374745  -1.756968
     4  O   -0.001129  -0.014565  -0.002890   0.003147   0.001515  -0.056317
     5  H    0.000171  -0.010943   0.003378  -0.003672  -0.020928   0.034520
     6  O    0.034729  -0.088392   0.002423  -0.000736  -0.010653   0.094705
     7  H    0.001182  -0.077990  -0.016223   0.004512  -0.005397  -0.084129
     8  C    0.010912  -3.951518   0.196348   0.400226  -0.305282  -3.015899
     9  C    0.008657  -0.215097   0.004223   0.010529  -0.040165   0.199406
    10  H   -0.006600   0.024100  -0.001157   0.000774   0.003239   0.095833
    11  O   -0.000134  -0.000926   0.000109   0.000571   0.001174   0.013665
    12  C   -0.033725  -0.058786   0.003305  -0.009896   0.003423  -0.019971
    13  H   -0.000577   0.008052   0.000501   0.000105  -0.002009   0.019043
    14  O    0.231592  -0.000968   0.000326  -0.000394  -0.003506   0.014992
    15  H    0.021917  -0.005398   0.000119  -0.000379   0.000502  -0.008151
    16  H   -0.039982   0.002228   0.000107  -0.000051  -0.000872   0.003418
    17  H   -0.000609   0.001257  -0.000072  -0.000193   0.000195  -0.014089
    18  H    0.000149  -0.009091   0.000538   0.000195  -0.000854   0.013288
    19  H    0.594232  -0.004882   0.000814  -0.000023  -0.004844  -0.001541
    20  C   -0.004882  14.899736  -0.799901  -0.397127   0.450034  -1.976959
    21  N    0.000814  -0.799901   8.092246  -0.092021  -0.012935   0.315954
    22  C   -0.000023  -0.397127  -0.092021   6.428464  -0.026748  -0.409900
    23  N   -0.004844   0.450034  -0.012935  -0.026748   7.626807  -0.579559
    24  C   -0.001541  -1.976959   0.315954  -0.409900  -0.579559  12.530230
    25  H    0.000249  -0.769059   0.005056  -0.027808  -0.036778   0.131821
    26  H   -0.001150  -0.163787   0.036945  -0.165225   0.383627  -0.281023
    27  O   -0.000172  -0.002288  -0.085529   0.069335  -0.141332   0.163287
    28  O    0.037882  -0.022431  -0.000686   0.005502  -0.217147   0.045375
              25         26         27         28
     1  C   -0.022506  -0.006617   0.000415   0.079566
     2  C    0.106437   0.006991  -0.000645  -0.062289
     3  C   -0.001481  -0.025728   0.020208   0.117168
     4  O   -0.007643   0.000133  -0.000051  -0.001207
     5  H    0.007496   0.000482  -0.000572   0.021040
     6  O    0.048920  -0.000338   0.000109  -0.013328
     7  H   -0.068543   0.000548   0.000153   0.009966
     8  C    0.237566   0.215643  -0.016480  -0.035626
     9  C    0.043242   0.005577  -0.000270  -0.062420
    10  H    0.001128  -0.000861   0.000325   0.010650
    11  O   -0.000129   0.000128  -0.000002  -0.001291
    12  C   -0.002458  -0.000371   0.000173   0.015258
    13  H    0.003149   0.000173  -0.000015   0.001033
    14  O   -0.000239  -0.000093   0.000037  -0.017077
    15  H    0.000165  -0.000053   0.000010   0.003717
    16  H    0.000177   0.000223  -0.000011  -0.001996
    17  H   -0.000460  -0.000138  -0.000001   0.000346
    18  H    0.001794   0.000095   0.000011  -0.001612
    19  H    0.000249  -0.001150  -0.000172   0.037882
    20  C   -0.769059  -0.163787  -0.002288  -0.022431
    21  N    0.005056   0.036945  -0.085529  -0.000686
    22  C   -0.027808  -0.165225   0.069335   0.005502
    23  N   -0.036778   0.383627  -0.141332  -0.217147
    24  C    0.131821  -0.281023   0.163287   0.045375
    25  H    2.056627  -0.004206   0.002638  -0.006903
    26  H   -0.004206   1.152241  -0.004616  -0.033712
    27  O    0.002638  -0.004616   8.694087  -0.004868
    28  O   -0.006903  -0.033712  -0.004868   9.000966
 Mulliken charges:
               1
     1  C    0.750318
     2  C    0.876783
     3  C    1.130181
     4  O   -0.704465
     5  H   -0.421861
     6  O   -0.900803
     7  H   -0.600272
     8  C    1.060353
     9  C    0.600250
    10  H   -0.495279
    11  O   -0.650852
    12  C    1.205423
    13  H   -0.523081
    14  O   -0.553829
    15  H   -0.255860
    16  H   -0.233599
    17  H    0.157092
    18  H    0.140176
    19  H    0.197617
    20  C    0.686432
    21  N   -0.764347
    22  C    0.671416
    23  N   -0.369308
    24  C    0.370465
    25  H   -0.698251
    26  H   -0.114887
    27  O   -0.693935
    28  O   -0.865876
 Sum of Mulliken charges =  -1.00000
 Mulliken charges with hydrogens summed into heavy atoms:
               1
     1  C    0.255039
     2  C    0.454921
     3  C    0.529909
     4  O   -0.564289
     6  O   -0.900803
     8  C    1.060353
     9  C    0.077169
    11  O   -0.493760
    12  C    0.715964
    14  O   -0.356212
    20  C   -0.011820
    21  N   -0.764347
    22  C    0.671416
    23  N   -0.484195
    24  C    0.370465
    27  O   -0.693935
    28  O   -0.865876
 Electronic spatial extent (au):  <R**2>=           4262.1018
 Charge=             -1.0000 electrons
 Dipole moment (field-independent basis, Debye):
    X=             11.3331    Y=             -0.6182    Z=             -1.5192  Tot=             11.4512
 Quadrupole moment (field-independent basis, Debye-Ang):
   XX=           -168.4854   YY=           -119.4906   ZZ=           -100.0716
   XY=             -5.5285   XZ=             -1.6529   YZ=              2.9581
 Traceless Quadrupole moment (field-independent basis, Debye-Ang):
   XX=            -39.1362   YY=              9.8586   ZZ=             29.2776
   XY=             -5.5285   XZ=             -1.6529   YZ=              2.9581
 Octapole moment (field-independent basis, Debye-Ang**2):
  XXX=            349.4864  YYY=              1.4929  ZZZ=            -23.4660  XYY=            -14.9450
  XXY=              9.3329  XXZ=            -24.3384  XZZ=             28.8760  YZZ=             -2.4665
  YYZ=              3.4079  XYZ=              0.7145
 Hexadecapole moment (field-independent basis, Debye-Ang**3):
 XXXX=          -5664.2097 YYYY=          -1268.3086 ZZZZ=           -468.0703 XXXY=            -35.0854
 XXXZ=            -52.6421 YYYX=            -84.2665 YYYZ=              0.8009 ZZZX=            -40.7573
 ZZZY=              9.4129 XXYY=           -917.3636 XXZZ=           -696.2794 YYZZ=           -257.9785
 XXYZ=             39.2141 YYXZ=              8.7933 ZZXY=            -19.8712
 N-N= 1.301707200388D+03 E-N=-4.753428139829D+03  KE= 9.049541530819D+02
 Calling FoFJK, ICntrl=      2127 FMM=F ISym2X=0 I1Cent= 0 IOpClX= 0 NMat=1 NMatS=1 NMatT=0.
 ***** Axes restored to original set *****
 -------------------------------------------------------------------
 Center     Atomic                   Forces (Hartrees/Bohr)
 Number     Number              X              Y              Z
 -------------------------------------------------------------------
      1        6          -0.004826827   -0.000768313    0.001133063
      2        6          -0.000934135    0.006411088    0.002284138
      3        6          -0.014247649    0.001523117   -0.008668254
      4        8           0.006115348   -0.005280939   -0.000971666
      5        1           0.000007822    0.000288256    0.001373939
      6        8           0.015072918    0.005248135    0.001713326
      7        1           0.000227197   -0.000039715    0.000388545
      8        6           0.027311519    0.017584053   -0.014595904
      9        6          -0.007688018   -0.000374322    0.002591638
     10        1          -0.000852028   -0.000281695    0.000235384
     11        8           0.007650782   -0.000894909   -0.002760355
     12        6          -0.000968546   -0.000030930   -0.001784069
     13        1           0.001954023   -0.000704303    0.000316369
     14        8           0.003952869    0.002053884    0.001759405
     15        1           0.001101681    0.000415878   -0.000255897
     16        1          -0.000267620    0.000024281    0.000753950
     17        1          -0.001267241   -0.000069792    0.000873653
     18        1          -0.001288123    0.000105196    0.000121856
     19        1          -0.004732231   -0.003187910   -0.002175729
     20        6          -0.060709698    0.022365954   -0.016060465
     21        7           0.001169692   -0.019042050    0.014662909
     22        6           0.037897609   -0.047081029    0.034153188
     23        7           0.008330644    0.015193531   -0.011225958
     24        6          -0.020930907   -0.028764334    0.021141733
     25        1           0.000717572   -0.003059898    0.002299676
     26        1           0.003751179    0.000946885   -0.000618419
     27        8          -0.020784837    0.016844641   -0.012357370
     28        8           0.024237007    0.020575240   -0.014328687
 -------------------------------------------------------------------
 Cartesian Forces:  Max     0.060709698 RMS     0.013909416

 GradGradGradGradGradGradGradGradGradGradGradGradGradGradGradGradGradGrad
 Berny optimization.
 FormGI is forming the generalized inverse of G from B-inverse, IUseBI=4.
 Internal  Forces:  Max     0.035304810 RMS     0.007508508
 Search for a local minimum.
 Step number   1 out of a maximum of  166
 All quantities printed in internal units (Hartrees-Bohrs-Radians)
 Mixed Optimization -- RFO/linear search
 Second derivative matrix not updated -- first step.
 ITU=  0
     Eigenvalues ---    0.00382   0.00569   0.00806   0.00937   0.01421
     Eigenvalues ---    0.01485   0.01534   0.01551   0.01573   0.01697
     Eigenvalues ---    0.01857   0.01942   0.01947   0.02298   0.02548
     Eigenvalues ---    0.03103   0.03746   0.04359   0.04875   0.04945
     Eigenvalues ---    0.04991   0.05457   0.05562   0.06075   0.06103
     Eigenvalues ---    0.06165   0.06507   0.08006   0.08354   0.10148
     Eigenvalues ---    0.11650   0.13194   0.14013   0.15788   0.16000
     Eigenvalues ---    0.16000   0.16000   0.16000   0.16000   0.17176
     Eigenvalues ---    0.19205   0.19519   0.22083   0.22927   0.23840
     Eigenvalues ---    0.24997   0.24999   0.25000   0.25000   0.26450
     Eigenvalues ---    0.27718   0.28950   0.30868   0.32693   0.33103
     Eigenvalues ---    0.33237   0.33431   0.33510   0.33758   0.34196
     Eigenvalues ---    0.34875   0.36365   0.39312   0.40031   0.42395
     Eigenvalues ---    0.43900   0.44067   0.44163   0.45422   0.46704
     Eigenvalues ---    0.48157   0.50506   0.53374   0.53592   0.53834
     Eigenvalues ---    0.55381   0.93757   0.98028
 RFO step:  Lambda=-2.25371305D-02 EMin= 3.82431890D-03
 Linear search not attempted -- first point.
 Iteration  1 RMS(Cart)=  0.06469931 RMS(Int)=  0.00164955
 Iteration  2 RMS(Cart)=  0.00206219 RMS(Int)=  0.00012917
 Iteration  3 RMS(Cart)=  0.00000307 RMS(Int)=  0.00012915
 Iteration  4 RMS(Cart)=  0.00000000 RMS(Int)=  0.00012915
 Variable       Old X    -DE/DX   Delta X   Delta X   Delta X     New X
                                 (Linear)    (Quad)   (Total)
    R1        2.90714  -0.00090   0.00000  -0.00577  -0.00574   2.90141
    R2        2.88268  -0.00063   0.00000  -0.00283  -0.00270   2.87998
    R3        2.07000  -0.00008   0.00000  -0.00023  -0.00023   2.06977
    R4        2.68423   0.00657   0.00000   0.01471   0.01471   2.69894
    R5        2.91477   0.00133   0.00000   0.00508   0.00504   2.91981
    R6        2.66574   0.00651   0.00000   0.01411   0.01411   2.67986
    R7        2.08165  -0.00116   0.00000  -0.00324  -0.00324   2.07841
    R8        2.69612   0.00814   0.00000   0.02061   0.02053   2.71665
    R9        2.08302   0.00026   0.00000   0.00073   0.00073   2.08375
   R10        2.82893  -0.00271   0.00000  -0.00775  -0.00775   2.82118
   R11        1.83105  -0.00124   0.00000  -0.00222  -0.00222   1.82884
   R12        2.68945  -0.00697   0.00000  -0.01545  -0.01549   2.67396
   R13        2.55620   0.03530   0.00000   0.06184   0.06206   2.61826
   R14        2.75581  -0.02124   0.00000  -0.05261  -0.05263   2.70318
   R15        2.86266  -0.00111   0.00000  -0.00336  -0.00336   2.85930
   R16        2.08870   0.00181   0.00000   0.00511   0.00511   2.09381
   R17        1.81495  -0.00104   0.00000  -0.00181  -0.00181   1.81314
   R18        2.66260  -0.00005   0.00000  -0.00011  -0.00011   2.66249
   R19        2.07741   0.00116   0.00000   0.00323   0.00323   2.08064
   R20        2.08637   0.00076   0.00000   0.00214   0.00214   2.08851
   R21        1.82883   0.00557   0.00000   0.00994   0.00994   1.83877
   R22        2.58487  -0.03093   0.00000  -0.05898  -0.05873   2.52614
   R23        2.05878   0.00389   0.00000   0.01047   0.01047   2.06925
   R24        2.61434  -0.01361   0.00000  -0.02787  -0.02784   2.58651
   R25        2.60702   0.02046   0.00000   0.04026   0.04005   2.64707
   R26        2.29439   0.02622   0.00000   0.02614   0.02614   2.32053
   R27        2.63427  -0.01045   0.00000  -0.01997  -0.02022   2.61406
   R28        1.91489   0.00029   0.00000   0.00062   0.00062   1.91551
   R29        2.31248   0.03486   0.00000   0.03631   0.03631   2.34879
    A1        1.80296   0.00027   0.00000   0.00062   0.00049   1.80345
    A2        1.92136  -0.00119   0.00000  -0.01370  -0.01369   1.90767
    A3        1.95316   0.00147   0.00000   0.01531   0.01535   1.96851
    A4        1.90985  -0.00029   0.00000  -0.00265  -0.00254   1.90731
    A5        1.92490  -0.00004   0.00000   0.00277   0.00260   1.92750
    A6        1.94628  -0.00022   0.00000  -0.00243  -0.00239   1.94390
    A7        1.80503   0.00107   0.00000   0.00635   0.00616   1.81119
    A8        1.93208  -0.00157   0.00000  -0.00589  -0.00616   1.92591
    A9        1.95199  -0.00044   0.00000  -0.00852  -0.00841   1.94358
   A10        1.90036   0.00243   0.00000   0.02386   0.02406   1.92442
   A11        1.94701  -0.00161   0.00000  -0.01558  -0.01566   1.93135
   A12        1.92398   0.00020   0.00000   0.00077   0.00078   1.92476
   A13        1.87348  -0.00399   0.00000  -0.01712  -0.01727   1.85622
   A14        1.85528   0.00012   0.00000  -0.00258  -0.00259   1.85269
   A15        2.02370   0.00093   0.00000   0.00196   0.00201   2.02571
   A16        1.91444   0.00022   0.00000  -0.00028  -0.00026   1.91418
   A17        1.89743   0.00233   0.00000   0.00599   0.00592   1.90335
   A18        1.89765   0.00029   0.00000   0.01149   0.01144   1.90909
   A19        1.84751  -0.00054   0.00000  -0.00295  -0.00295   1.84457
   A20        1.92185   0.00165   0.00000   0.01451   0.01432   1.93617
   A21        2.12737   0.00982   0.00000   0.03602   0.03593   2.16331
   A22        2.09348  -0.00856   0.00000  -0.03143  -0.03151   2.06196
   A23        2.06225  -0.00126   0.00000  -0.00467  -0.00451   2.05774
   A24        1.82931   0.00117   0.00000   0.00213   0.00194   1.83125
   A25        2.00090  -0.00119   0.00000  -0.01151  -0.01151   1.98939
   A26        1.90203  -0.00016   0.00000   0.00368   0.00361   1.90564
   A27        1.88263  -0.00221   0.00000  -0.01667  -0.01673   1.86590
   A28        1.93259   0.00093   0.00000   0.01054   0.01055   1.94314
   A29        1.91477   0.00147   0.00000   0.01179   0.01188   1.92665
   A30        1.89904  -0.00196   0.00000  -0.01073  -0.01073   1.88831
   A31        1.97231  -0.00344   0.00000  -0.01503  -0.01505   1.95726
   A32        1.89908   0.00206   0.00000   0.01234   0.01236   1.91145
   A33        1.88893  -0.00024   0.00000  -0.00470  -0.00474   1.88420
   A34        1.87352   0.00049   0.00000   0.00183   0.00188   1.87541
   A35        1.94381   0.00156   0.00000   0.00462   0.00454   1.94835
   A36        1.88387  -0.00028   0.00000   0.00203   0.00202   1.88590
   A37        1.89340   0.00001   0.00000   0.00005   0.00005   1.89345
   A38        2.14070   0.02166   0.00000   0.08449   0.08489   2.22559
   A39        2.12421  -0.01107   0.00000  -0.04355  -0.04375   2.08046
   A40        2.01826  -0.01059   0.00000  -0.04095  -0.04115   1.97712
   A41        2.15639  -0.02981   0.00000  -0.11743  -0.11705   2.03935
   A42        1.97120   0.02119   0.00000   0.07553   0.07533   2.04653
   A43        2.14848   0.00484   0.00000   0.01889   0.01898   2.16746
   A44        2.16350  -0.02604   0.00000  -0.09442  -0.09433   2.06917
   A45        2.23368  -0.00162   0.00000  -0.00430  -0.00475   2.22894
   A46        2.01812   0.00455   0.00000   0.02263   0.02285   2.04098
   A47        2.03138  -0.00293   0.00000  -0.01833  -0.01811   2.01327
   A48        2.00203  -0.01017   0.00000  -0.03371  -0.03404   1.96799
   A49        2.19246   0.00480   0.00000   0.01583   0.01597   2.20843
   A50        2.08869   0.00537   0.00000   0.01793   0.01806   2.10675
    D1        0.43063   0.00077   0.00000   0.01700   0.01722   0.44785
    D2       -1.60228  -0.00193   0.00000  -0.01148  -0.01130  -1.61358
    D3        2.52799  -0.00073   0.00000  -0.00208  -0.00196   2.52603
    D4       -1.60733   0.00149   0.00000   0.02588   0.02596  -1.58137
    D5        2.64294  -0.00120   0.00000  -0.00259  -0.00256   2.64039
    D6        0.49003  -0.00001   0.00000   0.00681   0.00678   0.49681
    D7        2.50107   0.00160   0.00000   0.02813   0.02825   2.52933
    D8        0.46816  -0.00109   0.00000  -0.00034  -0.00026   0.46790
    D9       -1.68475   0.00010   0.00000   0.00906   0.00908  -1.67567
   D10       -0.58268  -0.00036   0.00000   0.00611   0.00614  -0.57654
   D11       -2.64328   0.00223   0.00000   0.03143   0.03141  -2.61186
   D12        1.48661   0.00127   0.00000   0.02133   0.02131   1.50792
   D13        1.46339  -0.00172   0.00000  -0.01051  -0.01046   1.45293
   D14       -0.59721   0.00087   0.00000   0.01480   0.01482  -0.58239
   D15       -2.75050  -0.00008   0.00000   0.00470   0.00471  -2.74580
   D16       -2.67265  -0.00221   0.00000  -0.01350  -0.01345  -2.68609
   D17        1.54994   0.00037   0.00000   0.01181   0.01183   1.56177
   D18       -0.60336  -0.00058   0.00000   0.00171   0.00172  -0.60164
   D19        1.80212  -0.00080   0.00000  -0.01208  -0.01206   1.79006
   D20       -2.48446   0.00037   0.00000  -0.00062  -0.00065  -2.48511
   D21       -0.35874  -0.00017   0.00000  -0.00372  -0.00371  -0.36244
   D22       -0.13987  -0.00177   0.00000  -0.03393  -0.03376  -0.17363
   D23       -2.18760  -0.00013   0.00000  -0.02392  -0.02389  -2.21149
   D24        1.98458  -0.00118   0.00000  -0.03795  -0.03790   1.94667
   D25        1.91533  -0.00192   0.00000  -0.02672  -0.02650   1.88884
   D26       -0.13240  -0.00029   0.00000  -0.01671  -0.01662  -0.14903
   D27       -2.24341  -0.00133   0.00000  -0.03074  -0.03064  -2.27405
   D28       -2.24062  -0.00107   0.00000  -0.01968  -0.01955  -2.26017
   D29        1.99483   0.00057   0.00000  -0.00966  -0.00968   1.98515
   D30       -0.11618  -0.00048   0.00000  -0.02370  -0.02369  -0.13987
   D31       -0.45062   0.00095   0.00000   0.00679   0.00672  -0.44390
   D32       -2.42365  -0.00084   0.00000  -0.01093  -0.01084  -2.43449
   D33        1.71838  -0.00056   0.00000  -0.00772  -0.00774   1.71064
   D34       -0.23702   0.00165   0.00000   0.03832   0.03826  -0.19876
   D35        1.77168  -0.00025   0.00000   0.02586   0.02588   1.79756
   D36       -2.43862   0.00162   0.00000   0.04318   0.04320  -2.39542
   D37        2.09399   0.00077   0.00000  -0.00906  -0.00899   2.08500
   D38       -1.06166   0.00052   0.00000  -0.01556  -0.01543  -1.07710
   D39       -2.07754  -0.00201   0.00000  -0.02547  -0.02562  -2.10316
   D40        1.04999  -0.00226   0.00000  -0.03197  -0.03207   1.01792
   D41        0.00587  -0.00022   0.00000  -0.01567  -0.01567  -0.00981
   D42        3.13340  -0.00047   0.00000  -0.02217  -0.02212   3.11128
   D43        0.51957  -0.00087   0.00000  -0.02695  -0.02714   0.49242
   D44        2.65889  -0.00276   0.00000  -0.04793  -0.04801   2.61087
   D45       -1.52894  -0.00180   0.00000  -0.03769  -0.03782  -1.56675
   D46       -3.13762   0.00013   0.00000   0.00062   0.00062  -3.13700
   D47        0.00050  -0.00005   0.00000  -0.00223  -0.00224  -0.00175
   D48        0.01779   0.00044   0.00000   0.00722   0.00726   0.02505
   D49       -3.12728   0.00025   0.00000   0.00437   0.00440  -3.12288
   D50       -3.14024   0.00011   0.00000   0.00087   0.00086  -3.13938
   D51        0.00675  -0.00041   0.00000  -0.01182  -0.01176  -0.00501
   D52       -0.01219  -0.00004   0.00000  -0.00505  -0.00485  -0.01704
   D53        3.13480  -0.00056   0.00000  -0.01774  -0.01747   3.11733
   D54        0.85093  -0.00044   0.00000  -0.01451  -0.01445   0.83649
   D55       -1.22825  -0.00029   0.00000  -0.01573  -0.01561  -1.24386
   D56        3.01208  -0.00095   0.00000  -0.02226  -0.02213   2.98995
   D57       -1.17924   0.00028   0.00000   0.00077   0.00063  -1.17861
   D58        3.02477   0.00043   0.00000  -0.00045  -0.00054   3.02423
   D59        0.98190  -0.00023   0.00000  -0.00697  -0.00705   0.97485
   D60        2.99739  -0.00037   0.00000  -0.00882  -0.00886   2.98853
   D61        0.91821  -0.00022   0.00000  -0.01004  -0.01003   0.90818
   D62       -1.12465  -0.00088   0.00000  -0.01657  -0.01654  -1.14119
   D63        0.66805  -0.00226   0.00000  -0.04471  -0.04473   0.62333
   D64        2.76195  -0.00145   0.00000  -0.03724  -0.03724   2.72472
   D65       -1.46261  -0.00061   0.00000  -0.03107  -0.03106  -1.49366
   D66       -0.01292  -0.00000   0.00000  -0.00061  -0.00064  -0.01356
   D67        3.13195   0.00018   0.00000   0.00210   0.00211   3.13406
   D68        0.00202  -0.00025   0.00000  -0.00584  -0.00586  -0.00385
   D69       -3.13875  -0.00000   0.00000  -0.00020   0.00017  -3.13858
   D70        0.00298   0.00026   0.00000   0.00643   0.00660   0.00958
   D71       -3.13578   0.00036   0.00000   0.00809   0.00830  -3.12748
   D72       -3.13944   0.00002   0.00000   0.00080   0.00097  -3.13847
   D73        0.00498   0.00012   0.00000   0.00246   0.00267   0.00766
   D74        0.00209   0.00001   0.00000  -0.00093  -0.00067   0.00143
   D75        3.13864   0.00050   0.00000   0.01095   0.01113  -3.13341
   D76        3.14084  -0.00009   0.00000  -0.00254  -0.00229   3.13855
   D77       -0.00580   0.00040   0.00000   0.00934   0.00951   0.00371
         Item               Value     Threshold  Converged?
 Maximum Force            0.035305     0.000450     NO 
 RMS     Force            0.007509     0.000300     NO 
 Maximum Displacement     0.232249     0.001800     NO 
 RMS     Displacement     0.064997     0.001200     NO 
 Predicted change in Energy=-1.231400D-02
 GradGradGradGradGradGradGradGradGradGradGradGradGradGradGradGradGradGrad

                          Input orientation:                          
 ---------------------------------------------------------------------
 Center     Atomic      Atomic             Coordinates (Angstroms)
 Number     Number       Type             X           Y           Z
 ---------------------------------------------------------------------
      1          6           0        2.290349   -0.229363   -0.640916
      2          6           0        1.243827   -1.350337   -0.566510
      3          6           0        0.381648   -0.968047    0.657350
      4          8           0        1.875791   -2.601350   -0.350527
      5          1           0        0.629455   -1.385924   -1.478073
      6          8           0        1.068287    0.110030    1.315333
      7          1           0        0.368841   -1.854840    1.312578
      8          6           0       -1.020703   -0.546969    0.366029
      9          6           0        2.375515    0.267853    0.797191
     10          1           0        1.913332    0.576032   -1.280314
     11          8           0        3.566378   -0.692459   -1.084878
     12          6           0        2.723804    1.735078    0.921055
     13          1           0        3.107096   -0.350861    1.353644
     14          8           0        1.940262    2.540473    0.071062
     15          1           0        3.777763    1.887831    0.641598
     16          1           0        2.604952    2.025195    1.980843
     17          1           0        3.671996   -0.442891   -2.005286
     18          1           0        2.772361   -2.505738   -0.702117
     19          1           0        1.045465    2.160993    0.024920
     20          6           0       -2.141600   -1.201204    0.851041
     21          7           0       -3.423420   -0.890922    0.632802
     22          6           0       -3.669569    0.206876   -0.146714
     23          7           0       -2.560027    0.905770   -0.639281
     24          6           0       -1.221852    0.615793   -0.442513
     25          1           0       -2.012028   -2.083277    1.486794
     26          1           0       -2.747834    1.725249   -1.205547
     27          8           0       -4.792880    0.613942   -0.430239
     28          8           0       -0.337127    1.334862   -0.937553
 ---------------------------------------------------------------------
                    Distance matrix (angstroms):
                    1          2          3          4          5
     1  C    0.000000
     2  C    1.535358   0.000000
     3  C    2.423693   1.545099   0.000000
     4  O    2.425387   1.418119   2.432273   0.000000
     5  H    2.190214   1.099848   2.189991   2.074120   0.000000
     6  O    2.331423   2.388476   1.437590   3.283098   3.198995
     7  H    3.185986   2.133330   1.102674   2.365183   2.841748
     8  C    3.475324   2.577426   1.492904   3.622652   2.612964
     9  C    1.524018   2.399779   2.350002   3.130384   3.310670
    10  H    1.095278   2.160705   2.912864   3.310841   2.353024
    11  O    1.428219   2.468957   3.640578   2.653529   3.043192
    12  C    2.546893   3.731349   3.586380   4.597896   4.459010
    13  H    2.158728   2.856171   2.879897   3.079774   3.902395
    14  O    2.881227   4.003738   3.883648   5.159480   4.419800
    15  H    2.887863   4.285567   4.437328   4.975394   5.012217
    16  H    3.472122   4.442509   3.956541   5.231813   5.244276
    17  H    1.953470   2.964716   4.265185   3.259375   3.228672
    18  H    2.327652   1.920874   3.150897   0.967778   2.539318
    19  H    2.776127   3.566311   3.260600   4.848743   3.874620
    20  C    4.776253   3.673256   2.541390   4.420815   3.624589
    21  N    5.891280   4.840724   3.805929   5.654568   4.596370
    22  C    5.996262   5.171324   4.294103   6.219219   4.774006
    23  N    4.981433   4.423191   3.721007   5.662133   4.015997
    24  C    3.617901   3.156043   2.507879   4.466974   2.916606
    25  H    5.145347   3.918399   2.767924   4.331199   4.031646
    26  H    5.433471   5.079463   4.529667   6.389712   4.599972
    27  O    7.136363   6.349707   5.519174   7.403757   5.873596
    28  O    3.072202   3.138054   2.892014   4.553611   2.937537
                    6          7          8          9         10
     6  O    0.000000
     7  H    2.085652   0.000000
     8  C    2.386776   2.130096   0.000000
     9  C    1.415000   2.966174   3.519109   0.000000
    10  H    2.769231   3.875265   3.546849   2.150492   0.000000
    11  O    3.556045   4.162111   4.813274   2.425394   2.092803
    12  C    2.353077   4.311224   4.420082   1.513075   2.616539
    13  H    2.090606   3.124369   4.248831   1.107997   3.036764
    14  O    2.866288   4.830062   4.287962   2.425182   2.384527
    15  H    3.309948   5.106716   5.387899   2.148217   2.981721
    16  H    2.544033   4.527852   4.729590   2.131178   3.635045
    17  H    4.255765   4.890057   5.258839   3.168580   2.157936
    18  H    3.717017   3.203057   4.400573   3.177770   3.251085
    19  H    2.423249   4.271159   3.423225   2.439142   2.229110
    20  C    3.498325   2.634876   1.385522   4.750301   4.913626
    21  N    4.652223   3.971458   2.441828   5.915863   5.856013
    22  C    4.959257   4.763292   2.801371   6.118636   5.708774
    23  N    4.197425   4.473140   2.343207   5.179765   4.531069
    24  C    2.930964   3.422670   1.430460   3.820860   3.245438
    25  H    3.785279   2.398139   2.144547   5.025326   5.489742
    26  H    4.850417   5.373234   3.258191   5.690665   4.801329
    27  O    6.136303   5.981275   4.026298   7.280951   6.759981
    28  O    2.924191   3.966822   2.389119   3.392090   2.399557
                   11         12         13         14         15
    11  O    0.000000
    12  C    3.259851   0.000000
    13  H    2.504799   2.164529   0.000000
    14  O    3.798986   1.408931   3.371399   0.000000
    15  H    3.111800   1.101026   2.443061   2.031714   0.000000
    16  H    4.208161   1.105190   2.508220   2.086765   1.785478
    17  H    0.959474   3.769096   3.407343   4.026236   3.528376
    18  H    2.016172   4.541098   2.996948   5.172470   4.703175
    19  H    3.965960   1.949688   3.510732   0.973034   2.814313
    20  C    6.048770   5.683204   5.340834   5.591969   6.680184
    21  N    7.200492   6.690839   6.592338   6.392113   7.718716
    22  C    7.351726   6.659636   6.963141   6.079746   7.675271
    23  N    6.347104   5.571469   6.137357   4.840397   6.540082
    24  C    5.005127   4.322073   4.785435   3.737261   5.271577
    25  H    6.298133   6.109665   5.405962   6.245315   7.071473
    26  H    6.762333   5.870380   6.718623   4.926720   6.783936
    27  O    8.486013   7.719033   8.156145   7.021255   8.730838
    28  O    4.401033   3.603318   4.466981   2.767184   4.442050
                   16         17         18         19         20
    16  H    0.000000
    17  H    4.808248   0.000000
    18  H    5.268364   2.600564   0.000000
    19  H    2.505210   4.219077   5.028830   0.000000
    20  C    5.849433   6.521622   5.316119   4.705766   0.000000
    21  N    6.830976   7.583216   6.540439   5.445608   1.336774
    22  C    6.870400   7.600991   7.011790   5.106817   2.304971
    23  N    5.898743   6.520964   6.330616   3.875090   2.614475
[...]
 8,-0.00002839,-0.00000124,0.00004065,0.00004517,-0.00009340,0.00002523
 ,0.00019871,-0.00004222,0.00005778,0.00013444,-0.00009361,-0.04619798,
 0.03728096,-0.08866238,0.08776372,-0.19352495,0.20800135,-0.00111101,-
 0.00000537,0.00016218,-0.00025708,0.00161252,0.00063391,-0.00460862,-0
 .00047177,-0.00168941,0.00143570,-0.00142878,-0.00016492,-0.00003423,0
 .00012872,0.00027579,0.00322499,0.00094394,0.00080942,0.00033249,-0.00
 062827,0.00026599,-0.00000294,-0.01111744,0.00720420,-0.00174632,-0.00
 018683,0.00061844,-0.00048677,-0.00000631,0.00019809,0.00177734,-0.000
 37414,-0.00066843,-0.00057455,0.00038756,-0.00082158,0.00053449,-0.000
 18130,0.00009767,0.00236903,0.00081218,0.00096180,0.00037755,0.0000396
 9,-0.00001067,-0.00000082,-0.00002347,0.00031166,-0.00025948,0.0000413
 2,0.00023117,-0.00014253,0.00005346,0.00002113,-0.00329543,-0.00159266
 ,-0.00125000,-0.01266436,0.04548543,-0.03016922,-0.11443639,0.00212969
 ,-0.00201177,0.83661921,0.00063695,0.00081693,-0.00037528,-0.00066107,
 -0.00075584,-0.00068948,0.00478415,-0.00310835,0.00386890,-0.00149727,
 0.00063887,0.00035574,0.00012376,0.00000760,-0.00043686,-0.00465957,-0
 .00187676,-0.00061020,0.00008508,0.00004122,-0.00005024,-0.02422690,-0
 .03905619,0.02383991,0.00131435,0.00049280,-0.00114298,-0.00013651,0.0
 0009974,0.00017343,-0.00106602,-0.00038510,0.00055853,-0.00063558,0.00
 078566,-0.00040349,-0.00055120,-0.00003213,0.00012312,0.00126293,-0.00
 046285,0.00060369,-0.00005504,-0.00020871,0.00008065,0.00008849,-0.000
 07172,0.00004653,0.00007661,0.00012735,-0.00010363,0.00011314,0.000248
 53,-0.00005611,-0.00103777,-0.00025226,-0.00067204,0.07465464,-0.01486
 820,0.00810736,0.01178603,-0.21113461,0.08593148,-0.14830136,0.5210999
 1,-0.00048377,-0.00051599,0.00033656,0.00051473,0.00025323,0.00087490,
 -0.00340693,0.00237601,-0.00249306,0.00104009,-0.00048814,-0.00041636,
 -0.00006053,-0.00004209,0.00017038,0.00299844,0.00115603,-0.00004282,-
 0.00025576,-0.00022851,0.00023122,0.01613619,0.02333046,-0.01815562,-0
 .00103956,-0.00028878,0.00080126,0.00012163,0.00000862,-0.00012184,0.0
 0069094,0.00023630,-0.00044687,0.00032884,-0.00028068,0.00013967,0.000
 39205,-0.00000286,-0.00008967,-0.00011860,0.00039315,-0.00026573,0.000
 09986,0.00012213,-0.00003718,-0.00005757,0.00000635,-0.00002315,-0.000
 02919,-0.00007711,0.00007701,-0.00005509,-0.00017179,0.00004561,-0.000
 14041,-0.00017119,0.00030416,-0.04894151,0.00724088,-0.01168431,-0.008
 47324,0.08550518,-0.13653516,0.11753509,-0.19679013,0.35722852,0.00068
 330,-0.00099847,0.00057851,-0.00010459,-0.00131917,-0.00011358,0.00221
 259,0.00035113,0.00011018,-0.00012599,0.00098561,-0.00010603,-0.000033
 91,-0.00007668,0.00007950,-0.00011903,0.00073766,-0.00088633,0.0000547
 6,0.00028637,0.00011550,-0.00062022,0.04587920,-0.03066940,0.00063660,
 -0.00030834,0.00037627,0.00106474,-0.00010878,-0.00064493,-0.00133458,
 0.00106762,0.00017570,0.00135706,-0.00136782,0.00166367,-0.00012970,0.
 00022477,-0.00025090,-0.00488806,-0.00128354,-0.00239167,-0.00044260,0
 .00018794,-0.00013732,-0.00016177,0.00011345,-0.00051403,0.00023613,-0
 .00019965,-0.00024039,0.00000632,-0.00032532,0.00000838,0.00661646,0.0
 0380473,0.00353394,-0.04860263,-0.00310372,0.00082803,0.03536204,-0.03
 670126,0.02440044,-0.16146099,-0.00265193,-0.00119447,0.69767931,-0.00
 006375,-0.00050687,0.00040625,-0.00081342,0.00010733,0.00032784,-0.001
 94895,-0.00446711,0.00467165,0.00019574,0.00017498,-0.00023828,0.00000
 468,-0.00003089,-0.00017236,0.00065270,0.00139058,-0.00026061,0.001594
 87,-0.00065268,0.00037197,0.03681737,-0.00278847,0.00940552,-0.0003347
 8,-0.00020459,0.00042974,0.00038528,-0.00004217,-0.00033422,-0.0001902
 6,0.00057049,-0.00011908,0.00055270,-0.00049184,0.00045893,0.00005825,
 0.00002883,-0.00009341,-0.00156104,-0.00032896,-0.00083779,-0.00010888
 ,0.00009521,-0.00004213,-0.00004118,0.00003139,-0.00013586,0.00005114,
 -0.00010089,-0.00006749,-0.00008860,-0.00012891,-0.00003874,0.00140918
 ,0.00109169,0.00132085,-0.00995334,-0.00371400,0.00092184,-0.01709704,
 -0.03288826,0.03130966,-0.05194408,-0.15168845,0.05725675,-0.04106134,
 0.60611362,0.00001286,0.00010772,-0.00010189,-0.00013637,0.00033081,-0
 .00097852,0.00092200,0.00504714,0.00120478,-0.00036063,-0.00000367,0.0
 0035861,-0.00005238,0.00009519,0.00010203,0.00067806,-0.00078589,0.000
 64640,-0.00088205,0.00007279,-0.00037878,-0.02374261,0.00962072,0.0048
 4384,0.00025214,0.00005314,-0.00009062,-0.00018626,0.00008093,0.000070
 14,0.00008184,-0.00017093,0.00013075,-0.00038636,0.00048136,-0.0003806
 0,0.00001626,-0.00002299,-0.00000365,0.00154413,0.00049786,0.00075508,
 0.00007701,-0.00008223,0.00006070,0.00008506,-0.00003805,0.00012615,-0
 .00004247,0.00003490,-0.00000628,-0.00003137,0.00013014,0.00003853,-0.
 00173112,-0.00135133,-0.00107040,0.00579916,0.00154235,-0.00193926,0.0
 1095688,0.03119528,-0.00396656,0.02957980,0.05735917,-0.09531489,0.042
 93951,-0.34390422,0.28225743,-0.00192068,0.00321132,-0.00065947,-0.001
 18492,0.00176222,-0.00324274,0.00361745,0.03167599,-0.01599665,-0.0010
 8443,-0.00138148,0.00147147,0.00018880,0.00085165,0.00025268,-0.001463
 30,-0.00657524,0.00241525,-0.00568172,0.00184679,-0.00069852,-0.128196
 83,0.02509192,-0.01627683,-0.00074075,0.00061473,-0.00194004,-0.002712
 55,-0.00040609,0.00108381,0.00159211,-0.00241627,0.00027102,-0.0032197
 7,0.00252005,-0.00329709,0.00013865,-0.00031577,0.00056058,0.00838849,
 0.00110423,0.00284180,0.00075120,-0.00049075,0.00030277,0.00022559,-0.
 00015445,0.00088683,-0.00045740,0.00043725,0.00035486,0.00000113,0.000
 89116,0.00022891,-0.01433194,-0.00618029,-0.00242536,0.04670854,-0.026
 20105,0.01794351,-0.02027225,0.03115755,-0.02113715,-0.05087529,-0.051
 43074,0.03180977,-0.25139538,0.06679537,-0.04712500,0.71071047,0.00022
 789,0.00379104,-0.00147705,-0.00221304,-0.00075672,-0.00132009,0.01849
 055,-0.00227883,0.00825678,-0.00225655,-0.00059245,0.00089358,0.000362
 12,0.00031917,-0.00070411,-0.00726281,-0.00804400,0.00043552,0.0003361
 8,0.00141101,0.00114440,0.04748975,-0.20031250,0.07656933,0.00111221,0
 .00070026,-0.00254118,-0.00283583,0.00029589,0.00123492,0.00031994,-0.
 00313334,0.00116222,-0.00398197,0.00371905,-0.00375229,-0.00039751,-0.
 00030483,0.00058751,0.01117857,0.00170852,0.00458815,0.00076098,-0.000
 75091,0.00042005,0.00033211,-0.00028762,0.00098273,-0.00041604,0.00062
 548,0.00025940,0.00031206,0.00101748,0.00004279,-0.01514996,-0.0077207
 0,-0.00520767,-0.06189954,-0.02637826,0.01561231,0.03766815,-0.0301539
 0,0.01967482,0.00521551,0.05762570,-0.04544848,0.02060309,-0.14097370,
 0.05445310,0.10867719,0.62688529,0.00043880,-0.00198348,0.00111794,0.0
 0205062,-0.00017183,0.00226597,-0.01465186,0.00071334,-0.00679844,0.00
 115918,0.00052157,-0.00113310,-0.00002538,-0.00071089,0.00018969,0.006
 33957,0.00610502,0.00003005,-0.00018599,0.00098002,0.00056210,-0.02806
 490,0.07483238,-0.12769176,-0.00186651,-0.00044696,0.00219349,0.001652
 00,0.00005306,-0.00089024,-0.00023362,0.00163923,-0.00078449,0.0025026
 0,-0.00287283,0.00263738,0.00051512,0.00022476,-0.00037515,-0.01013516
 ,-0.00183056,-0.00440065,-0.00057995,0.00068914,-0.00045401,-0.0003497
 0,0.00014654,-0.00075065,0.00027284,-0.00035189,-0.00014731,0.00000042
 ,-0.00059420,-0.00005239,0.01283720,0.00497196,0.00605038,0.04008347,0
 .01783573,-0.00919182,-0.02404946,0.01804616,-0.01499557,-0.00407467,-
 0.04514774,0.01699328,-0.01865382,0.05583780,-0.09219871,-0.05697243,-
 0.26126448,0.37301014,-0.00005505,-0.00006691,0.00001079,-0.00009448,0
 .00008009,-0.00000366,0.00062200,-0.00274284,0.00170451,0.00008786,-0.
 00002423,-0.00006587,0.00002018,0.00000093,-0.00004783,0.00036495,0.00
 057640,-0.00002250,-0.00010572,0.00088583,-0.00052732,0.00526651,-0.01
 747427,0.01162992,-0.00019488,-0.00001092,0.00009001,0.00002101,0.0000
 0312,-0.00001748,0.00011568,0.00002885,-0.00006378,0.00004023,-0.00003
 735,0.00000442,0.00004044,-0.00001318,-0.00000208,-0.00001869,0.000049
 45,-0.00002353,0.00001232,0.00001757,-0.00000960,-0.00000685,0.0000009
 4,0.00000542,-0.00000652,-0.00000795,0.00001102,-0.00001604,-0.0000000
 3,-0.00000415,0.00002553,-0.00000449,0.00004215,-0.05491969,0.02088620
 ,-0.01428769,-0.01274130,0.02930051,-0.01968142,-0.00375421,0.00173677
 ,-0.00134553,-0.00004395,0.00054090,-0.00032060,-0.00451224,-0.0020458
 5,0.00112628,0.06999354,0.00009087,-0.00017669,-0.00005536,0.00016625,
 0.00035583,0.00000831,0.00235324,-0.00127011,-0.00139188,-0.00004659,0
 .00011641,-0.00002478,0.00003564,-0.00005238,-0.00010580,-0.00022466,0
 .00007456,-0.00017044,-0.00106261,0.00094561,-0.00060228,0.00425170,-0
 .01032046,0.01314172,-0.00016146,0.00002727,-0.00006210,0.00008319,0.0
 0000741,-0.00003998,0.00005362,0.00012306,-0.00005845,0.00011751,-0.00
 013022,0.00012861,-0.00003733,0.00000208,-0.00000117,-0.00029300,0.000
 04411,-0.00016028,-0.00001987,0.00002087,-0.00001887,-0.00001311,0.000
 00526,-0.00003473,0.00001216,-0.00002079,0.00000309,-0.00002852,0.0000
 0045,0.00000947,0.00038507,0.00009159,0.00020437,0.01963432,-0.2279015
 1,0.12172346,0.01001207,-0.00542400,0.00334020,0.00040850,0.00567999,0
 .00306831,-0.00066669,0.00016037,-0.00056988,-0.00347929,0.00293289,0.
 00397416,-0.03186836,0.23856499,-0.00001591,0.00000212,-0.00010953,0.0
 0036363,0.00030156,0.00014482,-0.00073562,-0.00148456,-0.00242867,0.00
 003845,-0.00018210,-0.00002043,-0.00003339,0.00002404,-0.00000995,-0.0
 0042672,-0.00035765,0.00044742,0.00089931,-0.00026810,0.00018044,-0.00
 365590,0.01261699,0.00100542,-0.00000072,-0.00013223,-0.00005908,-0.00
 004662,0.00001205,0.00002455,0.00003630,-0.00007248,0.00001757,-0.0001
 4427,0.00009545,-0.00005477,0.00001301,-0.00000648,0.00000452,0.000202
 82,-0.00001165,0.00008101,0.00001242,-0.00003053,0.00000180,0.00000235
 ,-0.00001004,0.00001299,-0.00000103,0.00001813,0.00000251,0.00004541,-
 0.00001781,-0.00001912,-0.00025163,-0.00012503,-0.00009264,-0.01305556
 ,0.12190179,-0.12894892,-0.00746365,0.00377618,-0.00311178,-0.00047390
 ,0.00310618,0.00839131,0.00053426,-0.00057679,-0.00035909,0.00231546,0
 .00350759,0.00607665,0.02197058,-0.14192542,0.12277007,-0.00002338,0.0
 0014935,-0.00008165,0.00008215,0.00002051,-0.00021311,0.00074625,0.001
 58609,-0.00078648,-0.00009577,-0.00003692,0.00009410,-0.00000073,0.000
 02713,0.00003582,-0.00006961,-0.00039661,0.00014866,-0.00049392,0.0001
 8338,-0.00011299,-0.00653335,-0.00017555,-0.00008848,0.00008826,0.0000
 5339,-0.00011555,-0.00010689,0.00000889,0.00005428,0.00005745,-0.00013
 833,0.00004332,-0.00018957,0.00016357,-0.00017404,-0.00001083,-0.00001
 652,0.00002380,0.00044457,0.00001228,0.00023453,0.00003980,-0.00003154
 ,0.00001562,0.00001523,-0.00001125,0.00005291,-0.00002493,0.00003104,0
 .00001358,0.00000949,0.00005469,0.00001333,-0.00048534,-0.00021883,-0.
 00029759,-0.00188073,0.00028150,-0.00019563,-0.00458190,-0.00500382,0.
 00300646,0.01758987,-0.02265477,0.01477245,-0.08560527,0.06343855,-0.0
 4176999,0.00120834,0.03298860,-0.02092125,0.00010545,-0.00003002,0.000
 05109,0.07712488,0.00005045,-0.00000886,-0.00000341,0.00002436,-0.0000
 5958,0.00003145,-0.00030912,0.00023297,0.00051564,-0.00007292,0.000060
 13,-0.00003536,-0.00000863,-0.00002503,-0.00003707,-0.00006400,0.00000
 051,-0.00004593,0.00006437,-0.00011789,-0.00002036,0.00117252,0.003933
 42,0.00073362,0.00005678,-0.00000044,0.00001572,0.00003379,0.00001521,
 -0.00000362,-0.00007136,0.00000094,0.00000851,0.00000458,-0.00002052,0
 .00003373,-0.00001139,-0.00000110,-0.00000733,-0.00021624,-0.00019057,
 -0.00009152,-0.00001584,0.00000456,-0.00000572,-0.00000932,0.00000098,
 -0.00002025,0.00002253,0.00000607,-0.00000364,0.00001090,0.00000335,0.
 00000463,0.00035646,0.00028184,0.00014743,-0.00147487,0.00080933,-0.00
 082985,-0.00363667,0.00061351,0.00241799,0.00776399,-0.01353466,0.0082
 1980,0.06397392,-0.31428207,0.18923046,0.00286006,-0.00476731,0.002977
 75,0.00015401,-0.00038613,-0.00034485,-0.07034595,0.32746737,-0.000019
 00,0.00001456,0.00001030,0.00004034,0.00006548,-0.00001339,0.00030651,
 0.00059956,0.00063413,-0.00003071,-0.00001411,-0.00001668,-0.00001642,
 -0.00001265,-0.00000946,0.00009454,-0.00015540,-0.00005601,-0.00005408
 ,-0.00006600,-0.00009415,-0.00109471,0.00088556,0.00461133,-0.00003188
 ,0.00000919,0.00001863,-0.00003186,-0.00000029,0.00003695,0.00006513,-
 0.00004094,-0.00004041,-0.00004689,0.00003677,-0.00001983,0.00000847,-
 0.00000711,0.00000264,0.00005628,-0.00008386,-0.00006571,0.00001695,-0
 .00000388,-0.00000260,-0.00001347,-0.00000200,-0.00000983,0.00000673,0
 .00000273,0.00001870,-0.00000057,0.00001628,0.00001558,-0.00006910,0.0
 0007987,0.00009499,0.00083658,-0.00069934,0.00009334,0.00204658,0.0024
 7121,0.00308668,-0.00402025,0.00746773,-0.00596418,-0.04254644,0.18884
 690,-0.13681918,-0.00121527,0.00391794,-0.00257970,-0.00007325,-0.0003
 8622,-0.00069548,0.04572688,-0.19758075,0.14274838,0.00099836,0.000309
 70,-0.00014442,-0.00030059,-0.00156688,-0.00076418,0.00537945,-0.00023
 102,0.00220951,-0.00148676,0.00123680,0.00024938,0.00006644,-0.0000641
 5,-0.00034138,-0.00383150,-0.00131314,-0.00063841,-0.00018481,0.000351
 66,-0.00002611,-0.00619343,0.00178987,-0.00103247,0.00169124,0.0002509
 7,-0.00084532,0.00030890,0.00000342,-0.00014406,-0.00168206,0.00018786
 ,0.00067782,0.00023974,-0.00008631,0.00051738,-0.00056272,0.00012212,-
 0.00002869,-0.00150975,-0.00086842,-0.00064304,-0.00029772,-0.00009732
 ,0.00002999,0.00001643,0.00000449,-0.00022605,0.00020229,0.00000146,-0
 .00020839,0.00012262,0.00003027,-0.00003126,0.00211429,0.00139402,0.00
 096022,0.01070866,-0.00100206,0.00056254,-0.02129764,0.04119995,-0.028
 67441,-0.52194404,0.14893023,-0.11248780,-0.10078767,-0.00055045,-0.00
 345109,0.01299069,-0.00628484,0.00401122,-0.00091396,0.00077516,-0.000
 48505,-0.00096633,0.00144982,-0.00100888,0.63742614,-0.00038853,-0.000
 34081,0.00014080,0.00030955,0.00052824,0.00041712,-0.00230855,0.000569
 38,-0.00196448,0.00078315,-0.00040394,-0.00015944,-0.00004780,0.000001
 55,0.00020468,0.00204909,0.00089219,0.00027252,-0.00010163,0.00002801,
 -0.00004681,0.00636153,0.00777605,-0.00606295,-0.00076137,-0.00018340,
 0.00048326,-0.00000044,-0.00003078,-0.00002236,0.00066546,0.00011637,-
 0.00031922,0.00017443,-0.00025162,0.00003480,0.00026060,-0.00001280,-0
 .00002824,-0.00008282,0.00038623,-0.00005060,0.00007155,0.00008402,-0.
 00003187,-0.00002960,0.00002393,0.00003252,-0.00006458,-0.00005083,0.0
 0007232,-0.00006803,-0.00010010,0.00001907,-0.00013144,-0.00025808,0.0
 0000124,-0.01612416,-0.00263274,0.00624023,0.05973529,-0.02490221,0.03
 047277,0.14838695,-0.14325733,0.04536409,-0.02881251,0.02420558,-0.002
 64798,0.00882241,-0.01000735,0.01051869,0.00136012,-0.00116278,0.00009
 076,0.00383965,0.00114936,-0.00271896,-0.18239188,0.14532120,0.0002942
 4,0.00020919,-0.00014621,-0.00014476,-0.00038831,-0.00034375,0.0019643
 8,-0.00108533,0.00053212,-0.00048183,0.00031941,0.00017470,0.00003121,
 0.00001032,-0.00007462,-0.00177180,-0.00058393,-0.00008303,0.00011642,
 0.00006859,-0.00000869,-0.00452308,-0.00584127,0.00244087,0.00059826,0
 .00013066,-0.00043907,0.00001246,-0.00000220,0.00001622,-0.00048824,-0
 .00003767,0.00026437,-0.00008442,0.00008989,-0.00000163,-0.00022080,0.
 00001686,0.00003004,-0.00012392,-0.00022601,0.00005665,-0.00007279,-0.
 00006168,0.00002284,0.00002606,0.00000260,-0.00001015,0.00003332,0.000
 02291,-0.00006293,0.00004046,0.00004058,-0.00002985,0.00026073,0.00021
 498,-0.00002040,0.01063682,0.00647937,0.00328899,-0.04047816,0.0301671
 4,-0.00282211,-0.11223422,0.04514536,-0.11497243,0.01422533,-0.0018574
 6,0.02293214,-0.00535612,0.01043036,-0.00009765,-0.00093580,0.00014524
 ,-0.00114541,-0.00230361,-0.00288741,-0.00176550,0.14035439,-0.0779977
 6,0.09185797,-0.00073964,-0.00389121,0.00291946,0.00150068,-0.00099216
 ,0.00173175,-0.01120957,-0.00430514,-0.00335294,0.00151489,0.00153853,
 -0.00084374,-0.00010778,-0.00044286,0.00035783,0.00549042,0.00778440,-
 0.00211618,0.00037719,-0.00010727,-0.00057607,0.00941349,-0.02638026,0
 .01678181,-0.00009260,-0.00109724,0.00270531,-0.00080994,0.00245840,-0
 .00187041,-0.00236657,0.00392875,-0.00090783,0.00415779,-0.00501888,0.
 00478330,0.00012289,0.00049440,-0.00064823,-0.02085480,-0.00692535,-0.
 01005609,-0.00129133,0.00094900,-0.00070871,-0.00061814,0.00038622,-0.
 00141990,0.00059893,-0.00062765,-0.00061522,-0.00021075,-0.00112239,-0
 .00005766,0.01053461,0.00742588,0.00398171,0.00204015,0.00549163,-0.00
 295304,-0.00386692,-0.00629344,0.00381784,0.01339438,0.01397261,-0.008
 35009,-0.09005297,-0.04673964,0.02727358,-0.29847199,-0.18133098,0.107
 77539,0.00066787,-0.00044780,0.00030486,0.00355681,-0.00176221,0.00106
 780,-0.01030627,-0.00150645,0.00062548,0.38762917,0.00050901,-0.001140
 27,-0.00109485,0.00027138,0.00218185,0.00071656,-0.00893179,-0.0002256
 3,-0.00623637,0.00147551,0.00002872,-0.00020844,-0.00002680,0.00021643
 ,0.00026138,0.00492710,0.00432570,0.00142342,-0.00024933,0.00036395,-0
 .00029468,-0.03778174,-0.03713060,0.03650711,-0.00219674,-0.00085302,0
 .00088701,0.00260718,-0.00269008,-0.00020518,0.00152767,0.00095527,-0.
 00017328,0.00314209,-0.00587814,0.00445929,0.00042809,0.00050285,-0.00
 019866,-0.01902016,-0.00083812,-0.00841630,-0.00120247,0.00096603,-0.0
 0077220,-0.00052922,0.00058203,-0.00116415,-0.00003228,-0.00041860,0.0
 0009665,-0.00022118,-0.00054560,-0.00008380,0.01678228,0.00300246,0.00
 651737,0.02009254,0.00035847,0.00447179,-0.01178064,0.00581612,-0.0056
 3997,0.00285229,-0.00697117,0.00996844,-0.01923028,0.01931978,-0.00075
 589,-0.18928848,-0.26456937,0.11530756,-0.00132530,-0.00230769,0.00009
 289,-0.00377850,-0.00118541,-0.00264228,-0.00358132,0.00251266,-0.0025
 2439,0.24456110,0.28362139,0.00028698,0.00139061,-0.00120990,-0.000616
 83,0.00015775,-0.00124043,0.00502886,-0.00303896,-0.00024417,-0.000310
 68,-0.00060781,0.00088814,0.00023859,0.00071585,0.00017422,-0.00443228
 ,0.00097610,-0.00173543,0.00017571,-0.00010844,0.00022445,0.02247662,0
 .03595368,-0.00115482,0.00266511,-0.00062973,-0.00137352,-0.00179816,-
 0.00041841,0.00034513,0.00052140,-0.00124941,0.00081821,0.00006922,-0.
 00057408,0.00067570,-0.00032654,0.00013573,0.00041552,-0.00327699,-0.0
 0173475,0.00195443,-0.00031965,-0.00004607,-0.00014882,0.00010558,0.00
 014221,0.00018610,-0.00037090,0.00031898,0.00009857,0.00002321,0.00031
 958,-0.00006605,-0.00168581,0.00054516,-0.00788283,-0.01214867,0.00351
 330,0.00307874,0.00705940,-0.00495404,0.00185842,-0.00131728,0.0097103
 9,0.00096939,0.00878007,-0.00288730,0.02008186,0.11360394,0.11754184,-
 0.14858546,0.00083699,-0.00013931,-0.00210621,0.00277352,-0.00241965,-
 0.00321955,0.00160857,-0.00231420,0.00040650,-0.13964999,-0.15029902,0
 .13679179\\0.00000243,-0.00001489,-0.00000116,0.00000374,0.00001789,-0
 .00001037,-0.00001766,-0.00001714,-0.00000107,0.00001464,0.00000537,-0
 .00000098,-0.00000025,-0.00000133,0.00000023,0.00001149,0.00002187,0.0
 0000443,0.00000431,0.00000220,-0.00000110,0.00000220,0.00001252,0.0000
 1438,-0.00000403,0.00000606,0.00000318,-0.00000863,0.00000208,-0.00000
 008,-0.00000853,0.00000073,0.00000840,0.00000685,-0.00000853,0.0000112
 2,0.00000041,-0.00000612,-0.00000205,-0.00000052,0.00000635,-0.0000063
 3,-0.00000410,0.00000108,-0.00000165,-0.00000002,-0.00000024,-0.000000
 79,-0.00000153,-0.00000189,0.00000073,0.00000276,-0.00000776,-0.000002
 58,-0.00000691,-0.00000377,0.00000089,0.00000534,-0.00003231,-0.000020
 93,-0.00000263,0.00001557,0.00000023,0.00001571,-0.00000625,0.00000328
 ,0.00000344,-0.00000584,0.00001189,0.00000399,0.00000653,-0.00001572,0
 .00000044,0.00000781,0.00000802,-0.00000837,-0.00000086,0.00000065,-0.
 00000926,0.00000389,-0.00000368,-0.00000531,-0.00000302,0.00000097\\\@
 The archive entry for this job was punched.


 REALITY IS FOR PEOPLE WHO CAN'T FACE SCIENCE FICTION.
 Job cpu time:       0 days  9 hours 44 minutes 46.7 seconds.
 Elapsed time:       0 days  0 hours 14 minutes 45.2 seconds.
 File lengths (MBytes):  RWF=    600 Int=      0 D2E=      0 Chk=     20 Scr=      1
 Normal termination of Gaussian 16 at Sun Oct 27 04:31:05 2024.
