 Entering Gaussian System, Link 0=g16
 Input=PseudoUridineAnNarrgPBE0aVDZ.gjf
 Output=PseudoUridineAnNarrgPBE0aVDZ.log
 Initial command:
 /sw/contrib/chem-src/g16/c01/g16/l1.exe "/scr/Gau-32131.inp" -scrdir="/scr/"
 Entering Link 1 = /sw/contrib/chem-src/g16/c01/g16/l1.exe PID=     32132.
  
 Copyright (c) 1988-2019, Gaussian, Inc.  All Rights Reserved.
  
 This is part of the Gaussian(R) 16 program.  It is based on
 the Gaussian(R) 09 system (copyright 2009, Gaussian, Inc.),
 the Gaussian(R) 03 system (copyright 2003, Gaussian, Inc.),
 the Gaussian(R) 98 system (copyright 1998, Gaussian, Inc.),
 the Gaussian(R) 94 system (copyright 1995, Gaussian, Inc.),
 the Gaussian 92(TM) system (copyright 1992, Gaussian, Inc.),
 the Gaussian 90(TM) system (copyright 1990, Gaussian, Inc.),
 the Gaussian 88(TM) system (copyright 1988, Gaussian, Inc.),
 the Gaussian 86(TM) system (copyright 1986, Carnegie Mellon
 University), and the Gaussian 82(TM) system (copyright 1983,
 Carnegie Mellon University). Gaussian is a federally registered
 trademark of Gaussian, Inc.
  
 This software contains proprietary and confidential information,
 including trade secrets, belonging to Gaussian, Inc.
  
 This software is provided under written license and may be
 used, copied, transmitted, or stored only in accord with that
 written license.
  
 The following legend is applicable only to US Government
 contracts under FAR:
  
                    RESTRICTED RIGHTS LEGEND
  
 Use, reproduction and disclosure by the US Government is
 subject to restrictions as set forth in subparagraphs (a)
 and (c) of the Commercial Computer Software - Restricted
 Rights clause in FAR 52.227-19.
  
 Gaussian, Inc.
 340 Quinnipiac St., Bldg. 40, Wallingford CT 06492
  
  
 ---------------------------------------------------------------
 Warning -- This program may not be used in any manner that
 competes with the business of Gaussian, Inc. or will provide
 assistance to any competitor of Gaussian, Inc.  The licensee
 of this program is prohibited from giving any competitor of
 Gaussian, Inc. access to this program.  By using this program,
 the user acknowledges that Gaussian, Inc. is engaged in the
 business of creating and licensing software in the field of
 computational chemistry and represents and warrants to the
 licensee that it is not a competitor of Gaussian, Inc. and that
 it will not use this program in any manner prohibited above.
 ---------------------------------------------------------------
  

 Cite this work as:
 Gaussian 16, Revision C.01,
 M. J. Frisch, G. W. Trucks, H. B. Schlegel, G. E. Scuseria, 
 M. A. Robb, J. R. Cheeseman, G. Scalmani, V. Barone, 
 G. A. Petersson, H. Nakatsuji, X. Li, M. Caricato, A. V. Marenich, 
 J. Bloino, B. G. Janesko, R. Gomperts, B. Mennucci, H. P. Hratchian, 
 J. V. Ortiz, A. F. Izmaylov, J. L. Sonnenberg, D. Williams-Young, 
 F. Ding, F. Lipparini, F. Egidi, J. Goings, B. Peng, A. Petrone, 
 T. Henderson, D. Ranasinghe, V. G. Zakrzewski, J. Gao, N. Rega, 
 G. Zheng, W. Liang, M. Hada, M. Ehara, K. Toyota, R. Fukuda, 
 J. Hasegawa, M. Ishida, T. Nakajima, Y. Honda, O. Kitao, H. Nakai, 
 T. Vreven, K. Throssell, J. A. Montgomery, Jr., J. E. Peralta, 
 F. Ogliaro, M. J. Bearpark, J. J. Heyd, E. N. Brothers, K. N. Kudin, 
 V. N. Staroverov, T. A. Keith, R. Kobayashi, J. Normand, 
 K. Raghavachari, A. P. Rendell, J. C. Burant, S. S. Iyengar, 
 J. Tomasi, M. Cossi, J. M. Millam, M. Klene, C. Adamo, R. Cammi, 
 J. W. Ochterski, R. L. Martin, K. Morokuma, O. Farkas, 
 J. B. Foresman, and D. J. Fox, Gaussian, Inc., Wallingford CT, 2019.
 
 ******************************************
 Gaussian 16:  EM64L-G16RevC.01  3-Jul-2019
                28-Oct-2024 
 ******************************************
 %nprocshared=40
 Will use up to   40 processors via shared memory.
 %mem=50gb
 ------------------------------------------------------
 # PBE1PBE/aug-cc-pVDZ opt freq EmpiricalDispersion=GD3
 ------------------------------------------------------
 1/18=20,19=15,26=3,38=1/1,3;
 2/9=110,12=2,17=6,18=5,40=1/2;
 3/5=16,7=10,11=2,25=1,30=1,71=1,74=-13,124=31/1,2,3;
 4//1;
 5/5=2,38=5/2;
 6/7=2,8=2,9=2,10=2,28=1/1;
 7//1,2,3,16;
 1/18=20,19=15,26=3/3(2);
 2/9=110/2;
 99//99;
 2/9=110/2;
 3/5=16,7=10,11=2,25=1,30=1,71=1,74=-13,124=31/1,2,3;
 4/5=5,16=3,69=1/1;
 5/5=2,38=5/2;
 7//1,2,3,16;
 1/18=20,19=15,26=3/3(-5);
 2/9=110/2;
 6/7=2,8=2,9=2,10=2,19=2,28=1/1;
 99/9=1/99;
 ----
 blah
 ----
 Symbolic Z-matrix:
 Charge =  0 Multiplicity = 2
 C                     2.22119  -0.176    -0.6563 
 C                     1.22959  -1.34239  -0.57703 
 C                     0.36266  -1.00828   0.64777 
 O                     1.92903  -2.55886  -0.34655 
 H                     0.61508  -1.42485  -1.48573 
 O                     1.07405  -0.00596   1.39278 
 H                     0.32037  -1.92702   1.25717 
 C                    -1.0335   -0.55896   0.36397 
 C                     2.31576   0.3069    0.7884 
 H                     1.81183   0.61377  -1.29189 
 O                     3.51227  -0.5932   -1.11744 
 C                     2.57186   1.79724   0.93529 
 H                     3.13647  -0.24674   1.28689 
 O                     1.77425   2.60941   0.11905 
 H                     3.62887   1.99023   0.68155 
 H                     2.43789   2.04665   2.00561 
 H                     3.56865  -0.37654  -2.05098 
 H                     2.82329  -2.40143  -0.68313 
 H                     0.92693   2.15109  -0.09489 
 C                    -2.09288  -1.23826   0.86103 
 N                    -3.35796  -0.84004   0.57455 
 C                    -3.63856   0.27191  -0.25867 
 N                    -2.59418   0.97175  -0.74427 
 C                    -1.31828   0.62773  -0.46609 
 H                    -1.98262  -2.11915   1.49723 
 H                    -4.16473  -1.33349   0.92378 
 O                    -4.83531   0.50823  -0.46687 
 O                    -0.34979   1.29365  -0.91694 
 

 GradGradGradGradGradGradGradGradGradGradGradGradGradGradGradGradGradGrad
 Berny optimization.
 Initialization pass.
                           ----------------------------
                           !    Initial Parameters    !
                           ! (Angstroms and Degrees)  !
 --------------------------                            --------------------------
 ! Name  Definition              Value          Derivative Info.                !
 --------------------------------------------------------------------------------
 ! R1    R(1,2)                  1.533          estimate D2E/DX2                !
 ! R2    R(1,9)                  1.5262         estimate D2E/DX2                !
 ! R3    R(1,10)                 1.0933         estimate D2E/DX2                !
 ! R4    R(1,11)                 1.433          estimate D2E/DX2                !
 ! R5    R(2,3)                  1.5373         estimate D2E/DX2                !
 ! R6    R(2,4)                  1.422          estimate D2E/DX2                !
 ! R7    R(2,5)                  1.1001         estimate D2E/DX2                !
 ! R8    R(3,6)                  1.4373         estimate D2E/DX2                !
 ! R9    R(3,7)                  1.1033         estimate D2E/DX2                !
 ! R10   R(3,8)                  1.4939         estimate D2E/DX2                !
 ! R11   R(4,18)                 0.9684         estimate D2E/DX2                !
 ! R12   R(6,9)                  1.416          estimate D2E/DX2                !
 ! R13   R(8,20)                 1.3531         estimate D2E/DX2                !
 ! R14   R(8,24)                 1.4759         estimate D2E/DX2                !
 ! R15   R(9,12)                 1.5193         estimate D2E/DX2                !
 ! R16   R(9,13)                 1.1084         estimate D2E/DX2                !
 ! R17   R(11,17)                0.96           estimate D2E/DX2                !
 ! R18   R(12,14)                1.4007         estimate D2E/DX2                !
 ! R19   R(12,15)                1.104          estimate D2E/DX2                !
 ! R20   R(12,16)                1.1071         estimate D2E/DX2                !
 ! R21   R(14,19)                0.9868         estimate D2E/DX2                !
 ! R22   R(20,21)                1.3569         estimate D2E/DX2                !
 ! R23   R(20,25)                1.0922         estimate D2E/DX2                !
 ! R24   R(21,22)                1.4175         estimate D2E/DX2                !
 ! R25   R(21,26)                1.0081         estimate D2E/DX2                !
 ! R26   R(22,23)                1.3477         estimate D2E/DX2                !
 ! R27   R(22,27)                1.2375         estimate D2E/DX2                !
 ! R28   R(23,24)                1.3504         estimate D2E/DX2                !
 ! R29   R(24,28)                1.2588         estimate D2E/DX2                !
 ! A1    A(2,1,9)              103.4073         estimate D2E/DX2                !
 ! A2    A(2,1,10)             109.7245         estimate D2E/DX2                !
 ! A3    A(2,1,11)             112.2034         estimate D2E/DX2                !
 ! A4    A(9,1,10)             110.1788         estimate D2E/DX2                !
 ! A5    A(9,1,11)             109.9316         estimate D2E/DX2                !
 ! A6    A(10,1,11)            111.1351         estimate D2E/DX2                !
 ! A7    A(1,2,3)              103.9227         estimate D2E/DX2                !
 ! A8    A(1,2,4)              109.9447         estimate D2E/DX2                !
 ! A9    A(1,2,5)              112.0642         estimate D2E/DX2                !
 ! A10   A(3,2,4)              109.5218         estimate D2E/DX2                !
 ! A11   A(3,2,5)              111.0626         estimate D2E/DX2                !
 ! A12   A(4,2,5)              110.1525         estimate D2E/DX2                !
 ! A13   A(2,3,6)              106.5836         estimate D2E/DX2                !
 ! A14   A(2,3,7)              106.3024         estimate D2E/DX2                !
 ! A15   A(2,3,8)              116.1711         estimate D2E/DX2                !
 ! A16   A(6,3,7)              108.2632         estimate D2E/DX2                !
 ! A17   A(6,3,8)              110.5671         estimate D2E/DX2                !
 ! A18   A(7,3,8)              108.6368         estimate D2E/DX2                !
 ! A19   A(2,4,18)             104.9994         estimate D2E/DX2                !
 ! A20   A(3,6,9)              111.5236         estimate D2E/DX2                !
 ! A21   A(3,8,20)             120.7265         estimate D2E/DX2                !
 ! A22   A(3,8,24)             121.9379         estimate D2E/DX2                !
 ! A23   A(20,8,24)            117.3351         estimate D2E/DX2                !
 ! A24   A(1,9,6)              106.2474         estimate D2E/DX2                !
 ! A25   A(1,9,12)             114.3514         estimate D2E/DX2                !
 ! A26   A(1,9,13)             108.2734         estimate D2E/DX2                !
 ! A27   A(6,9,12)             108.8622         estimate D2E/DX2                !
 ! A28   A(6,9,13)             110.3033         estimate D2E/DX2                !
 ! A29   A(12,9,13)            108.7647         estimate D2E/DX2                !
 ! A30   A(1,11,17)            107.4654         estimate D2E/DX2                !
 ! A31   A(9,12,14)            114.6104         estimate D2E/DX2                !
 ! A32   A(9,12,15)            108.0974         estimate D2E/DX2                !
 ! A33   A(9,12,16)            107.1002         estimate D2E/DX2                !
 ! A34   A(14,12,15)           108.0526         estimate D2E/DX2                !
 ! A35   A(14,12,16)           111.3354         estimate D2E/DX2                !
 ! A36   A(15,12,16)           107.3773         estimate D2E/DX2                !
 ! A37   A(12,14,19)           110.2414         estimate D2E/DX2                !
 ! A38   A(8,20,21)            120.3368         estimate D2E/DX2                !
 ! A39   A(8,20,25)            122.6743         estimate D2E/DX2                !
 ! A40   A(21,20,25)           116.9886         estimate D2E/DX2                !
 ! A41   A(20,21,22)           122.6072         estimate D2E/DX2                !
 ! A42   A(20,21,26)           121.9611         estimate D2E/DX2                !
 ! A43   A(22,21,26)           115.4138         estimate D2E/DX2                !
 ! A44   A(21,22,23)           117.7578         estimate D2E/DX2                !
 ! A45   A(21,22,27)           116.1116         estimate D2E/DX2                !
 ! A46   A(23,22,27)           126.1301         estimate D2E/DX2                !
 ! A47   A(22,23,24)           121.7118         estimate D2E/DX2                !
 ! A48   A(8,24,23)            120.1974         estimate D2E/DX2                !
 ! A49   A(8,24,28)            118.5749         estimate D2E/DX2                !
 ! A50   A(23,24,28)           121.2218         estimate D2E/DX2                !
 ! D1    D(9,1,2,3)             26.6613         estimate D2E/DX2                !
 ! D2    D(9,1,2,4)            -90.4809         estimate D2E/DX2                !
 ! D3    D(9,1,2,5)            146.6617         estimate D2E/DX2                !
 ! D4    D(10,1,2,3)           -90.8667         estimate D2E/DX2                !
 ! D5    D(10,1,2,4)           151.9911         estimate D2E/DX2                !
 ! D6    D(10,1,2,5)            29.1337         estimate D2E/DX2                !
 ! D7    D(11,1,2,3)           145.0734         estimate D2E/DX2                !
 ! D8    D(11,1,2,4)            27.9311         estimate D2E/DX2                !
 ! D9    D(11,1,2,5)           -94.9263         estimate D2E/DX2                !
 ! D10   D(2,1,9,6)            -28.2974         estimate D2E/DX2                !
 ! D11   D(2,1,9,12)          -148.3983         estimate D2E/DX2                !
 ! D12   D(2,1,9,13)            90.1823         estimate D2E/DX2                !
 ! D13   D(10,1,9,6)            88.912          estimate D2E/DX2                !
 ! D14   D(10,1,9,12)          -31.1889         estimate D2E/DX2                !
 ! D15   D(10,1,9,13)         -152.6083         estimate D2E/DX2                !
 ! D16   D(11,1,9,6)          -148.2757         estimate D2E/DX2                !
 ! D17   D(11,1,9,12)           91.6234         estimate D2E/DX2                !
 ! D18   D(11,1,9,13)          -29.796          estimate D2E/DX2                !
 ! D19   D(2,1,11,17)           99.5531         estimate D2E/DX2                !
 ! D20   D(9,1,11,17)         -145.965          estimate D2E/DX2                !
 ! D21   D(10,1,11,17)         -23.718          estimate D2E/DX2                !
 ! D22   D(1,2,3,6)            -16.3477         estimate D2E/DX2                !
 ! D23   D(1,2,3,7)           -131.6743         estimate D2E/DX2                !
 ! D24   D(1,2,3,8)            107.3473         estimate D2E/DX2                !
 ! D25   D(4,2,3,6)            101.0887         estimate D2E/DX2                !
 ! D26   D(4,2,3,7)            -14.2379         estimate D2E/DX2                !
 ! D27   D(4,2,3,8)           -135.2163         estimate D2E/DX2                !
 ! D28   D(5,2,3,6)           -137.0243         estimate D2E/DX2                !
 ! D29   D(5,2,3,7)            107.6491         estimate D2E/DX2                !
 ! D30   D(5,2,3,8)            -13.3294         estimate D2E/DX2                !
 ! D31   D(1,2,4,18)           -24.3413         estimate D2E/DX2                !
 ! D32   D(3,2,4,18)          -137.934          estimate D2E/DX2                !
 ! D33   D(5,2,4,18)            99.6346         estimate D2E/DX2                !
 ! D34   D(2,3,6,9)             -1.4747         estimate D2E/DX2                !
 ! D35   D(7,3,6,9)            112.5231         estimate D2E/DX2                !
 ! D36   D(8,3,6,9)           -128.5788         estimate D2E/DX2                !
 ! D37   D(2,3,8,20)           121.2076         estimate D2E/DX2                !
 ! D38   D(2,3,8,24)           -58.5099         estimate D2E/DX2                !
 ! D39   D(6,3,8,20)          -117.1872         estimate D2E/DX2                !
 ! D40   D(6,3,8,24)            63.0952         estimate D2E/DX2                !
 ! D41   D(7,3,8,20)             1.484          estimate D2E/DX2                !
 ! D42   D(7,3,8,24)          -178.2336         estimate D2E/DX2                !
 ! D43   D(3,6,9,1)             18.964          estimate D2E/DX2                !
 ! D44   D(3,6,9,12)           142.5659         estimate D2E/DX2                !
 ! D45   D(3,6,9,13)           -98.1687         estimate D2E/DX2                !
 ! D46   D(3,8,20,21)         -178.5743         estimate D2E/DX2                !
 ! D47   D(3,8,20,25)            1.1996         estimate D2E/DX2                !
 ! D48   D(24,8,20,21)           1.1559         estimate D2E/DX2                !
 ! D49   D(24,8,20,25)        -179.0702         estimate D2E/DX2                !
 ! D50   D(3,8,24,23)          177.3601         estimate D2E/DX2                !
 ! D51   D(3,8,24,28)           -1.7633         estimate D2E/DX2                !
 ! D52   D(20,8,24,23)          -2.3666         estimate D2E/DX2                !
 ! D53   D(20,8,24,28)         178.51           estimate D2E/DX2                !
 ! D54   D(1,9,12,14)           46.0215         estimate D2E/DX2                !
 ! D55   D(1,9,12,15)          -74.5282         estimate D2E/DX2                !
 ! D56   D(1,9,12,16)          170.0501         estimate D2E/DX2                !
 ! D57   D(6,9,12,14)          -72.6091         estimate D2E/DX2                !
 ! D58   D(6,9,12,15)          166.8412         estimate D2E/DX2                !
 ! D59   D(6,9,12,16)           51.4195         estimate D2E/DX2                !
 ! D60   D(13,9,12,14)         167.1701         estimate D2E/DX2                !
 ! D61   D(13,9,12,15)          46.6204         estimate D2E/DX2                !
 ! D62   D(13,9,12,16)         -68.8013         estimate D2E/DX2                !
 ! D63   D(9,12,14,19)          26.1998         estimate D2E/DX2                !
 ! D64   D(15,12,14,19)        146.7742         estimate D2E/DX2                !
 ! D65   D(16,12,14,19)        -95.5448         estimate D2E/DX2                !
 ! D66   D(8,20,21,22)           0.9634         estimate D2E/DX2                !
 ! D67   D(8,20,21,26)         179.3531         estimate D2E/DX2                !
 ! D68   D(25,20,21,22)       -178.823          estimate D2E/DX2                !
 ! D69   D(25,20,21,26)         -0.4332         estimate D2E/DX2                !
 ! D70   D(20,21,22,23)         -1.9706         estimate D2E/DX2                !
 ! D71   D(20,21,22,27)        178.237          estimate D2E/DX2                !
 ! D72   D(26,21,22,23)        179.5419         estimate D2E/DX2                !
 ! D73   D(26,21,22,27)         -0.2505         estimate D2E/DX2                !
 ! D74   D(21,22,23,24)          0.6967         estimate D2E/DX2                !
 ! D75   D(27,22,23,24)       -179.5341         estimate D2E/DX2                !
 ! D76   D(22,23,24,8)           1.4068         estimate D2E/DX2                !
 ! D77   D(22,23,24,28)       -179.4934         estimate D2E/DX2                !
 --------------------------------------------------------------------------------
 Trust Radius=3.00D-01 FncErr=1.00D-07 GrdErr=1.00D-06 EigMax=2.50D+02 EigMin=1.00D-04
 Number of steps in this run=    166 maximum allowed number of steps=    168.
 GradGradGradGradGradGradGradGradGradGradGradGradGradGradGradGradGradGrad

                          Input orientation:                          
 ---------------------------------------------------------------------
 Center     Atomic      Atomic             Coordinates (Angstroms)
 Number     Number       Type             X           Y           Z
 ---------------------------------------------------------------------
      1          6           0        2.221190   -0.175996   -0.656302
      2          6           0        1.229593   -1.342391   -0.577028
      3          6           0        0.362658   -1.008283    0.647767
      4          8           0        1.929026   -2.558861   -0.346553
      5          1           0        0.615084   -1.424845   -1.485728
      6          8           0        1.074055   -0.005963    1.392780
      7          1           0        0.320365   -1.927019    1.257172
      8          6           0       -1.033502   -0.558964    0.363970
      9          6           0        2.315760    0.306901    0.788404
     10          1           0        1.811830    0.613768   -1.291892
     11          8           0        3.512265   -0.593195   -1.117442
     12          6           0        2.571857    1.797242    0.935287
     13          1           0        3.136468   -0.246741    1.286887
     14          8           0        1.774245    2.609409    0.119053
     15          1           0        3.628869    1.990231    0.681545
     16          1           0        2.437887    2.046648    2.005614
     17          1           0        3.568645   -0.376538   -2.050982
     18          1           0        2.823289   -2.401433   -0.683134
     19          1           0        0.926925    2.151086   -0.094888
     20          6           0       -2.092877   -1.238260    0.861025
     21          7           0       -3.357957   -0.840038    0.574552
     22          6           0       -3.638557    0.271910   -0.258665
     23          7           0       -2.594183    0.971753   -0.744271
     24          6           0       -1.318278    0.627731   -0.466085
     25          1           0       -1.982620   -2.119147    1.497234
     26          1           0       -4.164734   -1.333490    0.923776
     27          8           0       -4.835314    0.508229   -0.466874
     28          8           0       -0.349786    1.293648   -0.916940
 ---------------------------------------------------------------------
                    Distance matrix (angstroms):
                    1          2          3          4          5
     1  C    0.000000
     2  C    1.532980   0.000000
     3  C    2.418148   1.537312   0.000000
     4  O    2.420609   1.422014   2.417948   0.000000
     5  H    2.197077   1.100071   2.188388   2.076091   0.000000
     6  O    2.354478   2.385451   1.437281   3.205237   3.241865
     7  H    3.215680   2.129031   1.103286   2.357742   2.804022
     8  C    3.432294   2.573098   1.493885   3.644311   2.624684
     9  C    1.526207   2.400901   2.358833   3.106490   3.326097
    10  H    1.093287   2.162542   2.914348   3.312548   2.371859
    11  O    1.433032   2.462506   3.634320   2.639083   3.036599
    12  C    2.559256   3.734443   3.582485   4.586064   4.480192
    13  H    2.149121   2.882846   2.946598   3.077652   3.928448
    14  O    2.925648   4.049432   3.919160   5.191509   4.493794
    15  H    2.909284   4.294986   4.434001   4.963939   5.044077
    16  H    3.474608   4.428950   3.934835   5.196378   5.250080
    17  H    1.949611   2.928579   4.238007   3.218068   3.184648
    18  H    2.305605   1.916428   3.125199   0.968389   2.544416
    19  H    2.721327   3.539555   3.294169   4.821944   3.849541
    20  C    4.694876   3.621829   2.475484   4.402038   3.588191
    21  N    5.751768   4.756481   3.725137   5.635155   4.513514
    22  C    5.890278   5.138697   4.297701   6.246517   4.741110
    23  N    4.951049   4.472639   3.821154   5.751768   4.073430
    24  C    3.634555   3.222629   2.596681   4.551224   2.998438
    25  H    5.107404   3.901823   2.730557   4.346708   4.015991
    26  H    6.679556   5.599219   4.547441   6.344224   5.353570
    27  O    7.092129   6.341926   5.528214   7.428177   5.872110
    28  O    2.972827   3.091711   2.873112   4.512222   2.940187
                    6          7          8          9         10
     6  O    0.000000
     7  H    2.068065   0.000000
     8  C    2.409576   2.121872   0.000000
     9  C    1.415975   3.031789   3.485315   0.000000
    10  H    2.852340   3.895869   3.494724   2.162347   0.000000
    11  O    3.548369   4.195963   4.781187   2.423643   2.092528
    12  C    2.388359   4.363822   4.344735   1.519301   2.634118
    13  H    2.079119   3.279429   4.282278   1.108407   3.024110
    14  O    2.992126   4.897781   4.240521   2.458213   2.444333
    15  H    3.319295   5.159689   5.323246   2.137586   3.015085
    16  H    2.539452   4.564438   4.640555   2.126790   3.649471
    17  H    4.268466   4.888681   5.200484   3.177880   2.154837
    18  H    3.620430   3.202262   4.400677   3.123793   3.238066
    19  H    2.624436   4.339000   3.376121   2.471859   2.139912
    20  C    3.439590   2.540681   1.353064   4.672138   4.828229
    21  N    4.583439   3.895838   2.350838   5.792432   5.685408
    22  C    5.001319   4.775575   2.804343   6.045781   5.557980
    23  N    4.356476   4.572006   2.450922   5.186392   4.454323
    24  C    3.095191   3.490202   1.475918   3.857837   3.237241
    25  H    3.717488   2.323421   2.149252   4.986403   5.444805
    26  H    5.424685   4.536468   3.273818   6.686255   6.664857
    27  O    6.216377   5.956827   4.035217   7.263203   6.698979
    28  O    3.008508   3.943166   2.353799   3.314665   2.296826
                   11         12         13         14         15
    11  O    0.000000
    12  C    3.288199   0.000000
    13  H    2.458059   2.149482   0.000000
    14  O    3.847896   1.400728   3.372993   0.000000
    15  H    3.150245   1.104040   2.369165   2.034554   0.000000
    16  H    4.228066   1.107136   2.502842   2.077555   1.781791
    17  H    0.960008   3.825795   3.368233   4.104242   3.615512
    18  H    1.983188   4.506814   2.936284   5.181943   4.668835
    19  H    3.906492   1.972883   3.541321   0.986804   2.815888
    20  C    5.978968   5.565926   5.339524   5.505426   6.572195
    21  N    7.079811   6.499852   6.560258   6.200457   7.539072
    22  C    7.253975   6.505490   6.968407   5.908045   7.526759
    23  N    6.314826   5.494572   6.200862   4.744514   6.465031
    24  C    5.024845   4.297063   4.866454   3.719292   5.258110
    25  H    6.273661   6.033005   5.454834   6.194567   7.002938
    26  H    7.978153   7.428545   7.390563   7.173946   8.476205
    27  O    8.445025   7.648123   8.197254   6.960211   8.669348
    28  O    4.303001   3.495762   4.402683   2.704814   4.343970
                   16         17         18         19         20
    16  H    0.000000
    17  H    4.858643   0.000000
    18  H    5.211845   2.554753   0.000000
    19  H    2.589599   4.146549   4.966655   0.000000
    20  C    5.712139   6.424576   5.282621   4.639034   0.000000
    21  N    6.631192   7.421999   6.498271   5.268319   1.356862
    22  C    6.723082   7.454975   7.005883   4.939813   2.433813
    23  N    5.834295   6.442502   6.382094   3.769712   2.777128
    24  C    4.715018   5.234737   5.135710   2.738491   2.417260
    25  H    6.095341   6.814915   5.284927   5.406958   1.092191
    26  H    7.496020   8.340869   7.249492   6.253394   2.074993
    27  O    7.834500   8.597601   8.195554   6.003395   3.512051
    28  O    4.108461   4.407910   4.876135   1.743835   3.551068
                   21         22         23         24         25
    21  N    0.000000
    22  C    1.417538   0.000000
    23  N    2.367537   1.347706   0.000000
    24  C    2.719846   2.356550   1.350434   0.000000
    25  H    2.092609   3.397420   3.866784   3.441121   0.000000
    26  H    1.008138   2.062120   3.250101   3.725643   2.389086
    27  O    2.254989   1.237508   2.305314   3.519066   4.347262
    28  O    3.978223   3.506179   2.273928   1.258846   4.487934
                   26         27         28
    26  H    0.000000
    27  O    2.403230   0.000000
    28  O    4.984367   4.575959   0.000000
 Stoichiometry    C9H11N2O6(2)
 Framework group  C1[X(C9H11N2O6)]
 Deg. of freedom    78
 Full point group                 C1      NOp   1
 Largest Abelian subgroup         C1      NOp   1
 Largest concise Abelian subgroup C1      NOp   1
                         Standard orientation:                         
 ---------------------------------------------------------------------
 Center     Atomic      Atomic             Coordinates (Angstroms)
 Number     Number       Type             X           Y           Z
 ---------------------------------------------------------------------
      1          6           0        2.221190   -0.175996   -0.656302
      2          6           0        1.229593   -1.342391   -0.577028
      3          6           0        0.362658   -1.008283    0.647767
      4          8           0        1.929026   -2.558861   -0.346553
      5          1           0        0.615084   -1.424845   -1.485728
      6          8           0        1.074055   -0.005963    1.392780
      7          1           0        0.320365   -1.927019    1.257172
      8          6           0       -1.033502   -0.558964    0.363970
      9          6           0        2.315760    0.306901    0.788404
     10          1           0        1.811830    0.613768   -1.291892
     11          8           0        3.512265   -0.593195   -1.117442
     12          6           0        2.571857    1.797242    0.935287
     13          1           0        3.136468   -0.246741    1.286887
     14          8           0        1.774245    2.609409    0.119053
     15          1           0        3.628869    1.990231    0.681545
     16          1           0        2.437887    2.046648    2.005614
     17          1           0        3.568645   -0.376538   -2.050982
     18          1           0        2.823289   -2.401433   -0.683134
     19          1           0        0.926925    2.151086   -0.094888
     20          6           0       -2.092877   -1.238260    0.861025
     21          7           0       -3.357957   -0.840038    0.574552
     22          6           0       -3.638557    0.271910   -0.258665
     23          7           0       -2.594183    0.971753   -0.744271
     24          6           0       -1.318278    0.627731   -0.466085
     25          1           0       -1.982620   -2.119147    1.497234
     26          1           0       -4.164734   -1.333490    0.923776
     27          8           0       -4.835314    0.508229   -0.466874
     28          8           0       -0.349786    1.293648   -0.916940
 ---------------------------------------------------------------------
 Rotational constants (GHZ):           0.9118063           0.3072037           0.2655123
 Standard basis: Aug-CC-pVDZ (5D, 7F)
 There are   524 symmetry adapted cartesian basis functions of A   symmetry.
 There are   490 symmetry adapted basis functions of A   symmetry.
   490 basis functions,   852 primitive gaussians,   524 cartesian basis functions
    64 alpha electrons       63 beta electrons
       nuclear repulsion energy      1308.3412557159 Hartrees.
 NAtoms=   28 NActive=   28 NUniq=   28 SFac= 1.00D+00 NAtFMM=   60 NAOKFM=F Big=F
 Integral buffers will be    131072 words long.
 Raffenetti 2 integral format.
 Two-electron integral symmetry is turned on.
 Nuclear repulsion after empirical dispersion term =     1308.3216792927 Hartrees.
 One-electron integrals computed using PRISM.
 NBasis=   490 RedAO= T EigKep=  2.34D-06  NBF=   490
 NBsUse=   490 1.00D-06 EigRej= -1.00D+00 NBFU=   490
 ExpMin= 2.97D-02 ExpMax= 1.17D+04 ExpMxC= 4.01D+02 IAcc=3 IRadAn=         5 AccDes= 0.00D+00
 Harris functional with IExCor= 1009 and IRadAn=       5 diagonalized for initial guess.
 HarFok:  IExCor= 1009 AccDes= 0.00D+00 IRadAn=         5 IDoV= 1 UseB2=F ITyADJ=14
 ICtDFT=  3500011 ScaDFX=  1.000000  1.000000  1.000000  1.000000
 FoFCou: FMM=F IPFlag=           0 FMFlag=      100000 FMFlg1=           0
         NFxFlg=           0 DoJE=T BraDBF=F KetDBF=T FulRan=T
         wScrn=  0.000000 ICntrl=       500 IOpCl=  0 I1Cent=   200000004 NGrid=           0
         NMat0=    1 NMatS0=      1 NMatT0=    0 NMatD0=    1 NMtDS0=    0 NMtDT0=    0
 Petite list used in FoFCou.
 Initial guess <Sx>= 0.0000 <Sy>= 0.0000 <Sz>= 0.5000 <S**2>= 0.7500 S= 0.5000
 Requested convergence on RMS density matrix=1.00D-08 within 128 cycles.
 Requested convergence on MAX density matrix=1.00D-06.
 Requested convergence on             energy=1.00D-06.
 No special actions if energy rises.
 Restarting incremental Fock formation.
 SCF Done:  E(UPBE1PBE) =  -909.517222281     A.U. after   33 cycles
            NFock= 33  Conv=0.84D-08     -V/T= 2.0055
 <Sx>= 0.0000 <Sy>= 0.0000 <Sz>= 0.5000 <S**2>= 0.7744 S= 0.5121
 <L.S>= 0.000000000000E+00
 Annihilation of the first spin contaminant:
 S**2 before annihilation     0.7744,   after     0.7503

 **********************************************************************

            Population analysis using the SCF Density.

 **********************************************************************

 Orbital symmetries:
 Alpha Orbitals:
       Occupied  (A) (A) (A) (A) (A) (A) (A) (A) (A) (A) (A) (A)
                 (A) (A) (A) (A) (A) (A) (A) (A) (A) (A) (A) (A)
                 (A) (A) (A) (A) (A) (A) (A) (A) (A) (A) (A) (A)
                 (A) (A) (A) (A) (A) (A) (A) (A) (A) (A) (A) (A)
                 (A) (A) (A) (A) (A) (A) (A) (A) (A) (A) (A) (A)
                 (A) (A) (A) (A)
       Virtual   (A) (A) (A) (A) (A) (A) (A) (A) (A) (A) (A) (A)
                 (A) (A) (A) (A) (A) (A) (A) (A) (A) (A) (A) (A)
                 (A) (A) (A) (A) (A) (A) (A) (A) (A) (A) (A) (A)
                 (A) (A) (A) (A) (A) (A) (A) (A) (A) (A) (A) (A)
                 (A) (A) (A) (A) (A) (A) (A) (A) (A) (A) (A) (A)
                 (A) (A) (A) (A) (A) (A) (A) (A) (A) (A) (A) (A)
                 (A) (A) (A) (A) (A) (A) (A) (A) (A) (A) (A) (A)
                 (A) (A) (A) (A) (A) (A) (A) (A) (A) (A) (A) (A)
                 (A) (A) (A) (A) (A) (A) (A) (A) (A) (A) (A) (A)
                 (A) (A) (A) (A) (A) (A) (A) (A) (A) (A) (A) (A)
                 (A) (A) (A) (A) (A) (A) (A) (A) (A) (A) (A) (A)
                 (A) (A) (A) (A) (A) (A) (A) (A) (A) (A) (A) (A)
                 (A) (A) (A) (A) (A) (A) (A) (A) (A) (A) (A) (A)
                 (A) (A) (A) (A) (A) (A) (A) (A) (A) (A) (A) (A)
                 (A) (A) (A) (A) (A) (A) (A) (A) (A) (A) (A) (A)
                 (A) (A) (A) (A) (A) (A) (A) (A) (A) (A) (A) (A)
                 (A) (A) (A) (A) (A) (A) (A) (A) (A) (A) (A) (A)
                 (A) (A) (A) (A) (A) (A) (A) (A) (A) (A) (A) (A)
                 (A) (A) (A) (A) (A) (A) (A) (A) (A) (A) (A) (A)
                 (A) (A) (A) (A) (A) (A) (A) (A) (A) (A) (A) (A)
                 (A) (A) (A) (A) (A) (A) (A) (A) (A) (A) (A) (A)
                 (A) (A) (A) (A) (A) (A) (A) (A) (A) (A) (A) (A)
                 (A) (A) (A) (A) (A) (A) (A) (A) (A) (A) (A) (A)
                 (A) (A) (A) (A) (A) (A) (A) (A) (A) (A) (A) (A)
                 (A) (A) (A) (A) (A) (A) (A) (A) (A) (A) (A) (A)
                 (A) (A) (A) (A) (A) (A) (A) (A) (A) (A) (A) (A)
                 (A) (A) (A) (A) (A) (A) (A) (A) (A) (A) (A) (A)
                 (A) (A) (A) (A) (A) (A) (A) (A) (A) (A) (A) (A)
                 (A) (A) (A) (A) (A) (A) (A) (A) (A) (A) (A) (A)
                 (A) (A) (A) (A) (A) (A) (A) (A) (A) (A) (A) (A)
                 (A) (A) (A) (A) (A) (A) (A) (A) (A) (A) (A) (A)
                 (A) (A) (A) (A) (A) (A) (A) (A) (A) (A) (A) (A)
                 (A) (A) (A) (A) (A) (A) (A) (A) (A) (A) (A) (A)
                 (A) (A) (A) (A) (A) (A) (A) (A) (A) (A) (A) (A)
                 (A) (A) (A) (A) (A) (A) (A) (A) (A) (A) (A) (A)
                 (A) (A) (A) (A) (A) (A)
 Beta  Orbitals:
       Occupied  (A) (A) (A) (A) (A) (A) (A) (A) (A) (A) (A) (A)
                 (A) (A) (A) (A) (A) (A) (A) (A) (A) (A) (A) (A)
                 (A) (A) (A) (A) (A) (A) (A) (A) (A) (A) (A) (A)
                 (A) (A) (A) (A) (A) (A) (A) (A) (A) (A) (A) (A)
                 (A) (A) (A) (A) (A) (A) (A) (A) (A) (A) (A) (A)
                 (A) (A) (A)
       Virtual   (A) (A) (A) (A) (A) (A) (A) (A) (A) (A) (A) (A)
                 (A) (A) (A) (A) (A) (A) (A) (A) (A) (A) (A) (A)
                 (A) (A) (A) (A) (A) (A) (A) (A) (A) (A) (A) (A)
                 (A) (A) (A) (A) (A) (A) (A) (A) (A) (A) (A) (A)
                 (A) (A) (A) (A) (A) (A) (A) (A) (A) (A) (A) (A)
                 (A) (A) (A) (A) (A) (A) (A) (A) (A) (A) (A) (A)
                 (A) (A) (A) (A) (A) (A) (A) (A) (A) (A) (A) (A)
                 (A) (A) (A) (A) (A) (A) (A) (A) (A) (A) (A) (A)
                 (A) (A) (A) (A) (A) (A) (A) (A) (A) (A) (A) (A)
                 (A) (A) (A) (A) (A) (A) (A) (A) (A) (A) (A) (A)
                 (A) (A) (A) (A) (A) (A) (A) (A) (A) (A) (A) (A)
                 (A) (A) (A) (A) (A) (A) (A) (A) (A) (A) (A) (A)
                 (A) (A) (A) (A) (A) (A) (A) (A) (A) (A) (A) (A)
                 (A) (A) (A) (A) (A) (A) (A) (A) (A) (A) (A) (A)
                 (A) (A) (A) (A) (A) (A) (A) (A) (A) (A) (A) (A)
                 (A) (A) (A) (A) (A) (A) (A) (A) (A) (A) (A) (A)
                 (A) (A) (A) (A) (A) (A) (A) (A) (A) (A) (A) (A)
                 (A) (A) (A) (A) (A) (A) (A) (A) (A) (A) (A) (A)
                 (A) (A) (A) (A) (A) (A) (A) (A) (A) (A) (A) (A)
                 (A) (A) (A) (A) (A) (A) (A) (A) (A) (A) (A) (A)
                 (A) (A) (A) (A) (A) (A) (A) (A) (A) (A) (A) (A)
                 (A) (A) (A) (A) (A) (A) (A) (A) (A) (A) (A) (A)
                 (A) (A) (A) (A) (A) (A) (A) (A) (A) (A) (A) (A)
                 (A) (A) (A) (A) (A) (A) (A) (A) (A) (A) (A) (A)
                 (A) (A) (A) (A) (A) (A) (A) (A) (A) (A) (A) (A)
                 (A) (A) (A) (A) (A) (A) (A) (A) (A) (A) (A) (A)
                 (A) (A) (A) (A) (A) (A) (A) (A) (A) (A) (A) (A)
                 (A) (A) (A) (A) (A) (A) (A) (A) (A) (A) (A) (A)
                 (A) (A) (A) (A) (A) (A) (A) (A) (A) (A) (A) (A)
                 (A) (A) (A) (A) (A) (A) (A) (A) (A) (A) (A) (A)
                 (A) (A) (A) (A) (A) (A) (A) (A) (A) (A) (A) (A)
                 (A) (A) (A) (A) (A) (A) (A) (A) (A) (A) (A) (A)
                 (A) (A) (A) (A) (A) (A) (A) (A) (A) (A) (A) (A)
                 (A) (A) (A) (A) (A) (A) (A) (A) (A) (A) (A) (A)
                 (A) (A) (A) (A) (A) (A) (A) (A) (A) (A) (A) (A)
                 (A) (A) (A) (A) (A) (A) (A)
 The electronic state is 2-A.
 Alpha  occ. eigenvalues --  -19.27499 -19.26574 -19.26473 -19.23941 -19.21056
 Alpha  occ. eigenvalues --  -19.20047 -14.52018 -14.43022 -10.40549 -10.36310
 Alpha  occ. eigenvalues --  -10.36240 -10.32718 -10.31567 -10.30999 -10.30138
 Alpha  occ. eigenvalues --  -10.29516 -10.27198  -1.15048  -1.11824  -1.09257
 Alpha  occ. eigenvalues --   -1.07947  -1.06383  -1.05217  -1.03330  -0.96036
 Alpha  occ. eigenvalues --   -0.89016  -0.81390  -0.80282  -0.73176  -0.70115
 Alpha  occ. eigenvalues --   -0.70098  -0.65938  -0.62867  -0.61715  -0.60911
 Alpha  occ. eigenvalues --   -0.57372  -0.55246  -0.54145  -0.53509  -0.53254
 Alpha  occ. eigenvalues --   -0.51073  -0.50710  -0.49976  -0.49513  -0.47545
 Alpha  occ. eigenvalues --   -0.45379  -0.44546  -0.44201  -0.43231  -0.42644
 Alpha  occ. eigenvalues --   -0.41121  -0.40063  -0.38045  -0.36718  -0.35567
 Alpha  occ. eigenvalues --   -0.35078  -0.33466  -0.32228  -0.32068  -0.31028
 Alpha  occ. eigenvalues --   -0.30445  -0.29749  -0.28625  -0.27051
 Alpha virt. eigenvalues --   -0.07623  -0.03454  -0.03049  -0.01428   0.00135
 Alpha virt. eigenvalues --    0.01029   0.01216   0.02158   0.02899   0.03952
 Alpha virt. eigenvalues --    0.04165   0.04605   0.05029   0.05295   0.05717
 Alpha virt. eigenvalues --    0.05891   0.06251   0.06940   0.07633   0.08087
 Alpha virt. eigenvalues --    0.08383   0.08610   0.08994   0.09428   0.09824
 Alpha virt. eigenvalues --    0.09885   0.10229   0.10422   0.11266   0.11552
 Alpha virt. eigenvalues --    0.11708   0.12026   0.12163   0.12566   0.13020
 Alpha virt. eigenvalues --    0.13506   0.13799   0.14018   0.14638   0.15228
 Alpha virt. eigenvalues --    0.15275   0.15769   0.16342   0.16466   0.16724
 Alpha virt. eigenvalues --    0.16944   0.17588   0.18105   0.18223   0.18349
 Alpha virt. eigenvalues --    0.18855   0.19763   0.20400   0.20678   0.21194
 Alpha virt. eigenvalues --    0.21248   0.21649   0.22016   0.22208   0.22578
 Alpha virt. eigenvalues --    0.23049   0.23172   0.23518   0.23774   0.23943
 Alpha virt. eigenvalues --    0.24555   0.24612   0.24943   0.25206   0.25728
 Alpha virt. eigenvalues --    0.26399   0.26564   0.27274   0.27520   0.27669
 Alpha virt. eigenvalues --    0.27931   0.28239   0.28537   0.29102   0.29186
 Alpha virt. eigenvalues --    0.29610   0.29898   0.30166   0.30789   0.31359
 Alpha virt. eigenvalues --    0.31651   0.31918   0.32518   0.32710   0.33256
 Alpha virt. eigenvalues --    0.33965   0.34061   0.34645   0.34755   0.35438
 Alpha virt. eigenvalues --    0.35553   0.36012   0.36886   0.36959   0.37371
 Alpha virt. eigenvalues --    0.38341   0.38980   0.39254   0.39994   0.40355
 Alpha virt. eigenvalues --    0.40878   0.41002   0.41342   0.41814   0.42320
 Alpha virt. eigenvalues --    0.42629   0.43209   0.43567   0.43862   0.44868
 Alpha virt. eigenvalues --    0.45113   0.45185   0.46041   0.46405   0.47386
 Alpha virt. eigenvalues --    0.47521   0.47743   0.48858   0.49009   0.50304
 Alpha virt. eigenvalues --    0.50917   0.51742   0.52231   0.52902   0.53195
 Alpha virt. eigenvalues --    0.53964   0.54946   0.55263   0.55451   0.56031
 Alpha virt. eigenvalues --    0.56399   0.56867   0.57144   0.57288   0.57999
 Alpha virt. eigenvalues --    0.58570   0.59107   0.59337   0.59802   0.60642
 Alpha virt. eigenvalues --    0.61486   0.61851   0.62321   0.62792   0.62993
 Alpha virt. eigenvalues --    0.63652   0.63976   0.64747   0.65501   0.65529
 Alpha virt. eigenvalues --    0.65742   0.66880   0.67474   0.68156   0.68476
 Alpha virt. eigenvalues --    0.69228   0.69513   0.69968   0.70297   0.71049
 Alpha virt. eigenvalues --    0.71436   0.71651   0.72968   0.73051   0.73886
 Alpha virt. eigenvalues --    0.74723   0.75391   0.75947   0.76625   0.77219
 Alpha virt. eigenvalues --    0.78385   0.78724   0.78836   0.79416   0.79953
 Alpha virt. eigenvalues --    0.80438   0.80776   0.81712   0.82346   0.82841
 Alpha virt. eigenvalues --    0.83707   0.84240   0.86001   0.87007   0.87379
 Alpha virt. eigenvalues --    0.87443   0.88105   0.89055   0.89967   0.90620
 Alpha virt. eigenvalues --    0.90756   0.92320   0.92756   0.93383   0.94520
 Alpha virt. eigenvalues --    0.94751   0.96071   0.97009   0.97616   0.98769
 Alpha virt. eigenvalues --    0.99802   1.00150   1.01463   1.02032   1.02606
 Alpha virt. eigenvalues --    1.03429   1.04782   1.05040   1.06505   1.07784
 Alpha virt. eigenvalues --    1.08667   1.10068   1.10433   1.11458   1.11914
 Alpha virt. eigenvalues --    1.12808   1.13437   1.13839   1.14760   1.15570
 Alpha virt. eigenvalues --    1.15973   1.17626   1.18985   1.19660   1.20278
 Alpha virt. eigenvalues --    1.21113   1.21982   1.23398   1.24707   1.25226
 Alpha virt. eigenvalues --    1.25688   1.27541   1.28067   1.28618   1.29987
 Alpha virt. eigenvalues --    1.30856   1.31615   1.32111   1.33565   1.33897
 Alpha virt. eigenvalues --    1.34474   1.37051   1.37396   1.37824   1.39253
 Alpha virt. eigenvalues --    1.39869   1.41285   1.42778   1.43967   1.44790
 Alpha virt. eigenvalues --    1.45167   1.46326   1.47698   1.48359   1.48914
 Alpha virt. eigenvalues --    1.50225   1.50542   1.51294   1.52464   1.52888
 Alpha virt. eigenvalues --    1.54963   1.55489   1.57834   1.58099   1.58584
 Alpha virt. eigenvalues --    1.59283   1.59769   1.61198   1.61512   1.64017
 Alpha virt. eigenvalues --    1.64688   1.64995   1.66275   1.66731   1.68555
 Alpha virt. eigenvalues --    1.68861   1.69822   1.70258   1.72077   1.73122
 Alpha virt. eigenvalues --    1.73341   1.73873   1.75254   1.77005   1.77365
 Alpha virt. eigenvalues --    1.79162   1.80272   1.80892   1.81022   1.82089
 Alpha virt. eigenvalues --    1.83646   1.84827   1.86158   1.86555   1.86864
 Alpha virt. eigenvalues --    1.88813   1.90191   1.91113   1.92992   1.93177
 Alpha virt. eigenvalues --    1.94205   1.95307   1.96539   1.96984   1.98310
 Alpha virt. eigenvalues --    1.99697   2.00568   2.01629   2.02948   2.03706
 Alpha virt. eigenvalues --    2.05175   2.05790   2.06175   2.07438   2.08018
 Alpha virt. eigenvalues --    2.08108   2.10007   2.11156   2.11974   2.12810
 Alpha virt. eigenvalues --    2.13976   2.15581   2.16634   2.18076   2.19025
 Alpha virt. eigenvalues --    2.20822   2.21920   2.23654   2.24459   2.25036
 Alpha virt. eigenvalues --    2.26372   2.26570   2.27544   2.29383   2.30808
 Alpha virt. eigenvalues --    2.31844   2.32784   2.34594   2.36355   2.38583
 Alpha virt. eigenvalues --    2.39479   2.40356   2.41884   2.42465   2.43274
 Alpha virt. eigenvalues --    2.45293   2.46111   2.47419   2.48048   2.49376
 Alpha virt. eigenvalues --    2.51343   2.51946   2.53038   2.54266   2.58408
 Alpha virt. eigenvalues --    2.59186   2.61616   2.63234   2.65296   2.65985
 Alpha virt. eigenvalues --    2.67257   2.69908   2.70218   2.72320   2.75325
 Alpha virt. eigenvalues --    2.77093   2.77636   2.78558   2.79912   2.84483
 Alpha virt. eigenvalues --    2.87544   2.89246   2.90339   2.92993   2.95966
 Alpha virt. eigenvalues --    2.97914   3.00485   3.01137   3.06954   3.13572
 Alpha virt. eigenvalues --    3.18942   3.24327   3.25016   3.27676   3.30444
 Alpha virt. eigenvalues --    3.33031   3.37120   3.37344   3.41958   3.42917
 Alpha virt. eigenvalues --    3.45247   3.46118   3.47864   3.50757   3.51801
 Alpha virt. eigenvalues --    3.52750   3.54179   3.56260   3.58158   3.59413
 Alpha virt. eigenvalues --    3.61251   3.61516   3.63186   3.65002   3.66033
 Alpha virt. eigenvalues --    3.69652   3.71445   3.71759   3.73725   3.74251
 Alpha virt. eigenvalues --    3.75245   3.79790   3.85777   3.89669   3.97542
 Alpha virt. eigenvalues --    4.00379   4.05153   4.19568   4.25013   4.26798
 Alpha virt. eigenvalues --    4.85226
  Beta  occ. eigenvalues --  -19.26460 -19.26410 -19.26372 -19.23942 -19.21077
  Beta  occ. eigenvalues --  -19.20016 -14.51672 -14.42553 -10.40773 -10.36391
  Beta  occ. eigenvalues --  -10.36177 -10.32744 -10.31171 -10.30954 -10.30128
  Beta  occ. eigenvalues --  -10.29518 -10.27198  -1.13538  -1.11554  -1.09115
  Beta  occ. eigenvalues --   -1.07592  -1.06358  -1.04240  -1.03241  -0.95072
  Beta  occ. eigenvalues --   -0.88026  -0.81273  -0.80016  -0.72882  -0.69939
  Beta  occ. eigenvalues --   -0.69828  -0.65749  -0.62678  -0.61443  -0.60650
  Beta  occ. eigenvalues --   -0.57277  -0.55131  -0.53951  -0.53030  -0.51919
  Beta  occ. eigenvalues --   -0.50597  -0.50010  -0.49505  -0.49357  -0.47163
  Beta  occ. eigenvalues --   -0.45261  -0.44390  -0.42745  -0.42719  -0.41043
  Beta  occ. eigenvalues --   -0.40228  -0.39831  -0.37904  -0.36515  -0.34780
  Beta  occ. eigenvalues --   -0.34441  -0.32428  -0.31483  -0.30693  -0.30178
  Beta  occ. eigenvalues --   -0.28316  -0.27938  -0.26770
  Beta virt. eigenvalues --   -0.22300  -0.06209  -0.03028  -0.02139  -0.01391
  Beta virt. eigenvalues --    0.00170   0.01092   0.01251   0.02196   0.02943
  Beta virt. eigenvalues --    0.03980   0.04204   0.04637   0.05048   0.05328
  Beta virt. eigenvalues --    0.05810   0.05946   0.06454   0.06973   0.07895
  Beta virt. eigenvalues --    0.08137   0.08493   0.08711   0.09011   0.09487
  Beta virt. eigenvalues --    0.09899   0.10036   0.10402   0.10465   0.11293
  Beta virt. eigenvalues --    0.11695   0.11771   0.12069   0.12218   0.12598
  Beta virt. eigenvalues --    0.13067   0.13553   0.13837   0.14152   0.14815
  Beta virt. eigenvalues --    0.15257   0.15336   0.15886   0.16406   0.16536
  Beta virt. eigenvalues --    0.16779   0.17059   0.17742   0.18201   0.18299
  Beta virt. eigenvalues --    0.18443   0.18915   0.19820   0.20512   0.20721
  Beta virt. eigenvalues --    0.21280   0.21323   0.21697   0.22087   0.22272
  Beta virt. eigenvalues --    0.22618   0.23112   0.23345   0.23623   0.23873
  Beta virt. eigenvalues --    0.24072   0.24655   0.24723   0.25036   0.25316
  Beta virt. eigenvalues --    0.25855   0.26513   0.26656   0.27353   0.27601
  Beta virt. eigenvalues --    0.27731   0.28017   0.28304   0.28578   0.29175
  Beta virt. eigenvalues --    0.29288   0.29714   0.29980   0.30237   0.30855
  Beta virt. eigenvalues --    0.31399   0.31723   0.31985   0.32600   0.32808
  Beta virt. eigenvalues --    0.33329   0.34034   0.34157   0.34733   0.34831
  Beta virt. eigenvalues --    0.35537   0.35661   0.36113   0.37009   0.37086
  Beta virt. eigenvalues --    0.37421   0.38441   0.39057   0.39325   0.40041
  Beta virt. eigenvalues --    0.40406   0.40980   0.41047   0.41516   0.41878
  Beta virt. eigenvalues --    0.42418   0.42778   0.43335   0.43659   0.43965
  Beta virt. eigenvalues --    0.44975   0.45187   0.45276   0.46104   0.46469
  Beta virt. eigenvalues --    0.47481   0.47630   0.47793   0.48959   0.49109
  Beta virt. eigenvalues --    0.50388   0.51001   0.51881   0.52283   0.53055
  Beta virt. eigenvalues --    0.53349   0.54036   0.55006   0.55367   0.55540
  Beta virt. eigenvalues --    0.56096   0.56498   0.57005   0.57262   0.57461
  Beta virt. eigenvalues --    0.58096   0.58609   0.59291   0.59433   0.59955
  Beta virt. eigenvalues --    0.60732   0.61602   0.61976   0.62506   0.62882
  Beta virt. eigenvalues --    0.63129   0.63823   0.64064   0.64800   0.65588
  Beta virt. eigenvalues --    0.65801   0.65860   0.67043   0.67612   0.68229
  Beta virt. eigenvalues --    0.68571   0.69287   0.69566   0.70102   0.70355
  Beta virt. eigenvalues --    0.71124   0.71580   0.71721   0.73035   0.73188
  Beta virt. eigenvalues --    0.73991   0.74840   0.75482   0.76162   0.76743
  Beta virt. eigenvalues --    0.77360   0.78535   0.78844   0.79056   0.79549
  Beta virt. eigenvalues --    0.80041   0.80505   0.81031   0.81934   0.82446
  Beta virt. eigenvalues --    0.82922   0.83862   0.84321   0.86066   0.87128
  Beta virt. eigenvalues --    0.87557   0.87611   0.88307   0.89215   0.90076
  Beta virt. eigenvalues --    0.90835   0.90892   0.92401   0.92916   0.93645
  Beta virt. eigenvalues --    0.94627   0.95301   0.96229   0.97239   0.97925
  Beta virt. eigenvalues --    0.99020   0.99885   1.00327   1.02001   1.02277
  Beta virt. eigenvalues --    1.02708   1.03604   1.05118   1.05381   1.06680
  Beta virt. eigenvalues --    1.08085   1.08903   1.10157   1.10620   1.11641
  Beta virt. eigenvalues --    1.12091   1.12935   1.13586   1.14046   1.14852
  Beta virt. eigenvalues --    1.15674   1.16123   1.17733   1.19137   1.19799
  Beta virt. eigenvalues --    1.20403   1.21212   1.22204   1.23584   1.24866
  Beta virt. eigenvalues --    1.25306   1.25848   1.27713   1.28153   1.28749
  Beta virt. eigenvalues --    1.30226   1.30998   1.31909   1.32311   1.33780
  Beta virt. eigenvalues --    1.34119   1.34726   1.37257   1.37524   1.38138
  Beta virt. eigenvalues --    1.39393   1.40156   1.41462   1.43048   1.44115
  Beta virt. eigenvalues --    1.44938   1.45386   1.46479   1.47880   1.48705
  Beta virt. eigenvalues --    1.49561   1.50557   1.50925   1.51473   1.52801
  Beta virt. eigenvalues --    1.53431   1.55106   1.55804   1.57947   1.58193
  Beta virt. eigenvalues --    1.58790   1.59409   1.59957   1.61444   1.61659
  Beta virt. eigenvalues --    1.64158   1.64820   1.65217   1.66399   1.66807
  Beta virt. eigenvalues --    1.68753   1.68968   1.69958   1.70558   1.72304
  Beta virt. eigenvalues --    1.73248   1.73455   1.73973   1.75480   1.77232
  Beta virt. eigenvalues --    1.77401   1.79211   1.80312   1.81017   1.81128
  Beta virt. eigenvalues --    1.82220   1.83804   1.85035   1.86267   1.86601
  Beta virt. eigenvalues --    1.87044   1.88938   1.90282   1.91350   1.93131
  Beta virt. eigenvalues --    1.93440   1.94355   1.95412   1.96709   1.97215
  Beta virt. eigenvalues --    1.98428   1.99821   2.00752   2.01785   2.03198
  Beta virt. eigenvalues --    2.03797   2.05275   2.05921   2.06382   2.07606
  Beta virt. eigenvalues --    2.08208   2.08330   2.10130   2.11334   2.12103
  Beta virt. eigenvalues --    2.13001   2.14061   2.15664   2.16730   2.18379
  Beta virt. eigenvalues --    2.19156   2.20929   2.22078   2.23819   2.24561
  Beta virt. eigenvalues --    2.25091   2.26493   2.26799   2.27763   2.29503
  Beta virt. eigenvalues --    2.31011   2.31931   2.32939   2.34711   2.36464
  Beta virt. eigenvalues --    2.39076   2.39805   2.40533   2.42120   2.42719
  Beta virt. eigenvalues --    2.43683   2.45358   2.46269   2.47604   2.48668
  Beta virt. eigenvalues --    2.50070   2.51625   2.52384   2.53334   2.54377
  Beta virt. eigenvalues --    2.58691   2.59293   2.61728   2.63787   2.65523
  Beta virt. eigenvalues --    2.66153   2.67359   2.69995   2.70412   2.72382
  Beta virt. eigenvalues --    2.75414   2.77202   2.77755   2.78692   2.80061
  Beta virt. eigenvalues --    2.84722   2.87994   2.89368   2.90445   2.93294
  Beta virt. eigenvalues --    2.96168   2.98364   3.00625   3.01409   3.07126
  Beta virt. eigenvalues --    3.13762   3.19155   3.24620   3.25103   3.28006
  Beta virt. eigenvalues --    3.33160   3.33557   3.39436   3.39970   3.42093
  Beta virt. eigenvalues --    3.43086   3.45317   3.46150   3.47914   3.50811
  Beta virt. eigenvalues --    3.51934   3.53204   3.54353   3.56485   3.58307
  Beta virt. eigenvalues --    3.59620   3.61388   3.61584   3.63375   3.65355
  Beta virt. eigenvalues --    3.66170   3.69676   3.71562   3.71952   3.74040
  Beta virt. eigenvalues --    3.74519   3.75919   3.79877   3.85975   3.89882
  Beta virt. eigenvalues --    3.97777   4.00582   4.05216   4.19592   4.25096
  Beta virt. eigenvalues --    4.26888   4.85321
          Condensed to atoms (all electrons):
               1          2          3          4          5          6
     1  C   12.172961  -4.375417   1.808555   0.255694   0.497608  -0.279003
     2  C   -4.375417  10.647092  -3.726455  -0.567503  -0.845278   0.358039
     3  C    1.808555  -3.726455  16.887505   0.284901   0.234455  -0.401670
     4  O    0.255694  -0.567503   0.284901   8.756545  -0.110277  -0.001584
     5  H    0.497608  -0.845278   0.234455  -0.110277   1.970799  -0.009927
     6  O   -0.279003   0.358039  -0.401670  -0.001584  -0.009927   9.462880
     7  H    0.080350   0.337215  -0.996794  -0.018387   0.062271  -0.113626
     8  C   -0.119649   0.950364  -3.461228  -0.026728  -0.371555  -0.017097
     9  C   -2.744163   1.682900  -3.334965  -0.078634   0.186900  -0.329063
    10  H   -1.465806   0.728054  -0.146860  -0.014442  -0.181250   0.125970
    11  O   -0.857610   0.467151  -0.024489  -0.070384  -0.060373   0.017333
    12  C   -0.181263  -0.252283   0.562134   0.030512   0.000550   0.018489
    13  H    0.494965  -0.328852   0.382122   0.031468  -0.000692  -0.077613
    14  O   -0.100127   0.048405  -0.034848  -0.001189  -0.003074  -0.014316
    15  H   -0.001420   0.061465   0.002634  -0.001046   0.000258   0.095366
    16  H   -0.056753  -0.015402  -0.029605   0.002181   0.001195  -0.067465
    17  H    0.412088  -0.271411   0.042475   0.012934   0.024970  -0.008831
    18  H   -0.221124   0.204264  -0.123066   0.267824  -0.016788   0.017760
    19  H   -0.042309   0.020652  -0.056935  -0.001417   0.000275   0.025548
    20  C    0.282983  -0.529104  -1.108781  -0.009078   0.014242  -0.045712
    21  N   -0.004486   0.008706   0.058175  -0.000170   0.002400  -0.010716
    22  C   -0.039140   0.040493  -0.308818   0.001874  -0.007516  -0.002326
    23  N   -0.030380   0.015564   0.383883   0.001593  -0.008549  -0.009216
    24  C   -0.305855   0.375721  -2.070629  -0.045208  -0.003559   0.105884
    25  H   -0.026578   0.114575   0.028933  -0.008105   0.008687   0.038422
    26  H    0.002333  -0.006924  -0.021327   0.000156  -0.000354  -0.000797
    27  O    0.000626  -0.000460   0.019988  -0.000022  -0.000421   0.000076
    28  O    0.043177  -0.044213   0.177063   0.000612   0.018014  -0.004528
               7          8          9         10         11         12
     1  C    0.080350  -0.119649  -2.744163  -1.465806  -0.857610  -0.181263
     2  C    0.337215   0.950364   1.682900   0.728054   0.467151  -0.252283
     3  C   -0.996794  -3.461228  -3.334965  -0.146860  -0.024489   0.562134
     4  O   -0.018387  -0.026728  -0.078634  -0.014442  -0.070384   0.030512
     5  H    0.062271  -0.371555   0.186900  -0.181250  -0.060373   0.000550
     6  O   -0.113626  -0.017097  -0.329063   0.125970   0.017333   0.018489
     7  H    2.089195   0.173894   0.126320  -0.015505  -0.010685  -0.007571
     8  C    0.173894  13.117130   0.573515  -0.042651  -0.009736  -0.239718
     9  C    0.126320   0.573515  10.997933  -0.740908   0.220788  -0.263843
    10  H   -0.015505  -0.042651  -0.740908   3.061561   0.000408   0.020181
    11  O   -0.010685  -0.009736   0.220788   0.000408   8.635366   0.006701
    12  C   -0.007571  -0.239718  -0.263843   0.020181   0.006701   5.047274
    13  H    0.018913  -0.097457  -1.089283   0.138965  -0.053728  -0.047017
    14  O   -0.000345   0.005789   0.049851   0.044744   0.009657   0.030193
    15  H   -0.003662   0.001125  -0.106224  -0.011182   0.015305   0.101677
    16  H   -0.001955   0.023160   0.335213   0.021569   0.002612   0.083821
    17  H    0.003707   0.000377  -0.021497  -0.196625   0.284229  -0.002642
    18  H   -0.013006   0.017806   0.011916   0.048172   0.058657  -0.001956
    19  H    0.002132   0.010417   0.064023  -0.004804   0.000506  -0.049283
    20  C   -0.001186  -3.696913  -0.118871   0.018040  -0.001908  -0.084568
    21  N   -0.006286   0.103483  -0.002798  -0.000872  -0.000053   0.006381
    22  C    0.007986   0.347538   0.016221   0.001847   0.000756  -0.005301
    23  N    0.005312   0.293981   0.014555  -0.002168   0.001362   0.006707
    24  C   -0.098110  -3.036756  -0.046975   0.159124   0.006752  -0.012993
    25  H   -0.091377   0.289118   0.049412  -0.000182  -0.000154  -0.002220
    26  H   -0.001556   0.068356  -0.002267   0.000328   0.000002   0.000184
    27  O    0.000300   0.052127  -0.000331   0.000288  -0.000004   0.000353
    28  O    0.009161  -0.087297  -0.069136   0.015933   0.000226   0.031063
              13         14         15         16         17         18
     1  C    0.494965  -0.100127  -0.001420  -0.056753   0.412088  -0.221124
     2  C   -0.328852   0.048405   0.061465  -0.015402  -0.271411   0.204264
     3  C    0.382122  -0.034848   0.002634  -0.029605   0.042475  -0.123066
     4  O    0.031468  -0.001189  -0.001046   0.002181   0.012934   0.267824
     5  H   -0.000692  -0.003074   0.000258   0.001195   0.024970  -0.016788
     6  O   -0.077613  -0.014316   0.095366  -0.067465  -0.008831   0.017760
     7  H    0.018913  -0.000345  -0.003662  -0.001955   0.003707  -0.013006
     8  C   -0.097457   0.005789   0.001125   0.023160   0.000377   0.017806
     9  C   -1.089283   0.049851  -0.106224   0.335213  -0.021497   0.011916
    10  H    0.138965   0.044744  -0.011182   0.021569  -0.196625   0.048172
    11  O   -0.053728   0.009657   0.015305   0.002612   0.284229   0.058657
    12  C   -0.047017   0.030193   0.101677   0.083821  -0.002642  -0.001956
    13  H    2.182129   0.016784  -0.112391  -0.012979  -0.013540   0.006527
    14  O    0.016784   8.490580  -0.098253  -0.059059  -0.003110   0.000458
    15  H   -0.112391  -0.098253   1.585403  -0.285933  -0.003574   0.002585
    16  H   -0.012979  -0.059059  -0.285933   1.295501  -0.000463  -0.000850
    17  H   -0.013540  -0.003110  -0.003574  -0.000463   0.600040  -0.018934
    18  H    0.006527   0.000458   0.002585  -0.000850  -0.018934   0.590796
    19  H   -0.003395   0.198551   0.007180  -0.029862  -0.000918   0.000030
    20  C    0.012127  -0.000234  -0.006583   0.002873   0.001740  -0.006737
    21  N   -0.000633   0.000039   0.000343   0.000100   0.000016  -0.000038
    22  C    0.000352  -0.001501  -0.000842   0.001292  -0.000441   0.000322
    23  N   -0.000546  -0.004642   0.000031   0.000676  -0.000351  -0.000030
    24  C    0.016621   0.023040  -0.011303   0.002471  -0.013339   0.010380
    25  H    0.000992  -0.000148   0.000382   0.000369  -0.000376   0.001718
    26  H    0.000052  -0.000053  -0.000033   0.000064   0.000008  -0.000024
    27  O   -0.000031   0.000025   0.000027  -0.000001  -0.000002   0.000007
    28  O    0.005057  -0.054349   0.003437  -0.000560  -0.000222  -0.000425
              19         20         21         22         23         24
     1  C   -0.042309   0.282983  -0.004486  -0.039140  -0.030380  -0.305855
     2  C    0.020652  -0.529104   0.008706   0.040493   0.015564   0.375721
     3  C   -0.056935  -1.108781   0.058175  -0.308818   0.383883  -2.070629
     4  O   -0.001417  -0.009078  -0.000170   0.001874   0.001593  -0.045208
     5  H    0.000275   0.014242   0.002400  -0.007516  -0.008549  -0.003559
     6  O    0.025548  -0.045712  -0.010716  -0.002326  -0.009216   0.105884
     7  H    0.002132  -0.001186  -0.006286   0.007986   0.005312  -0.098110
     8  C    0.010417  -3.696913   0.103483   0.347538   0.293981  -3.036756
     9  C    0.064023  -0.118871  -0.002798   0.016221   0.014555  -0.046975
    10  H   -0.004804   0.018040  -0.000872   0.001847  -0.002168   0.159124
    11  O    0.000506  -0.001908  -0.000053   0.000756   0.001362   0.006752
    12  C   -0.049283  -0.084568   0.006381  -0.005301   0.006707  -0.012993
    13  H   -0.003395   0.012127  -0.000633   0.000352  -0.000546   0.016621
    14  O    0.198551  -0.000234   0.000039  -0.001501  -0.004642   0.023040
    15  H    0.007180  -0.006583   0.000343  -0.000842   0.000031  -0.011303
    16  H   -0.029862   0.002873   0.000100   0.001292   0.000676   0.002471
    17  H   -0.000918   0.001740   0.000016  -0.000441  -0.000351  -0.013339
    18  H    0.000030  -0.006737  -0.000038   0.000322  -0.000030   0.010380
    19  H    0.582560  -0.000001   0.000393   0.000917  -0.006345   0.009749
    20  C   -0.000001  13.461452  -0.660819  -0.338356  -0.098631  -0.929544
    21  N    0.000393  -0.660819   7.384856  -0.098163  -0.006728   0.241083
    22  C    0.000917  -0.338356  -0.098163   6.252842   0.077055  -0.669550
    23  N   -0.006345  -0.098631  -0.006728   0.077055   8.213044  -1.051107
    24  C    0.009749  -0.929544   0.241083  -0.669550  -1.051107  13.100215
    25  H    0.000130  -0.987910   0.183202   0.002849  -0.003814   0.042425
    26  H   -0.000422  -0.265729   0.475598  -0.187698   0.004167  -0.013382
    27  O   -0.000042  -0.036872  -0.110771   0.057270  -0.093223   0.097670
    28  O    0.029612  -0.088693  -0.003448   0.042658  -0.154776   0.011814
              25         26         27         28
     1  C   -0.026578   0.002333   0.000626   0.043177
     2  C    0.114575  -0.006924  -0.000460  -0.044213
     3  C    0.028933  -0.021327   0.019988   0.177063
     4  O   -0.008105   0.000156  -0.000022   0.000612
     5  H    0.008687  -0.000354  -0.000421   0.018014
     6  O    0.038422  -0.000797   0.000076  -0.004528
     7  H   -0.091377  -0.001556   0.000300   0.009161
     8  C    0.289118   0.068356   0.052127  -0.087297
     9  C    0.049412  -0.002267  -0.000331  -0.069136
    10  H   -0.000182   0.000328   0.000288   0.015933
    11  O   -0.000154   0.000002  -0.000004   0.000226
    12  C   -0.002220   0.000184   0.000353   0.031063
    13  H    0.000992   0.000052  -0.000031   0.005057
    14  O   -0.000148  -0.000053   0.000025  -0.054349
    15  H    0.000382  -0.000033   0.000027   0.003437
    16  H    0.000369   0.000064  -0.000001  -0.000560
    17  H   -0.000376   0.000008  -0.000002  -0.000222
    18  H    0.001718  -0.000024   0.000007  -0.000425
    19  H    0.000130  -0.000422  -0.000042   0.029612
    20  C   -0.987910  -0.265729  -0.036872  -0.088693
    21  N    0.183202   0.475598  -0.110771  -0.003448
    22  C    0.002849  -0.187698   0.057270   0.042658
    23  N   -0.003814   0.004167  -0.093223  -0.154776
    24  C    0.042425  -0.013382   0.097670   0.011814
    25  H    2.077354  -0.050303   0.001989  -0.002416
    26  H   -0.050303   1.065986  -0.006877   0.002188
    27  O    0.001989  -0.006877   8.565962  -0.003637
    28  O   -0.002416   0.002188  -0.003637   8.975806
          Atomic-Atomic Spin Densities.
               1          2          3          4          5          6
     1  C    0.040895  -0.006910  -0.022843   0.003107  -0.010168   0.009876
     2  C   -0.006910   0.023819  -0.001032  -0.000513   0.001013  -0.004496
     3  C   -0.022843  -0.001032   0.021784   0.006049   0.021040  -0.049918
     4  O    0.003107  -0.000513   0.006049  -0.002670  -0.001341  -0.000728
     5  H   -0.010168   0.001013   0.021040  -0.001341   0.000737  -0.004040
     6  O    0.009876  -0.004496  -0.049918  -0.000728  -0.004040   0.110278
     7  H    0.003195  -0.007179  -0.025161  -0.001399  -0.001237   0.000706
     8  C    0.008754   0.004659  -0.057230  -0.000580  -0.013308   0.003160
     9  C   -0.023406   0.007765  -0.005910  -0.001144   0.001065  -0.012714
    10  H    0.009859  -0.002596  -0.001025  -0.000100  -0.002150   0.002693
    11  O   -0.006587   0.000632   0.002128  -0.000448   0.001438  -0.000591
    12  C    0.001684  -0.002769   0.009623  -0.000268   0.000087  -0.000558
    13  H    0.005175  -0.001765   0.004837  -0.000133  -0.000363  -0.000541
    14  O    0.000917  -0.000197   0.000564  -0.000017  -0.000120   0.000124
    15  H    0.000383   0.000117  -0.000361  -0.000008  -0.000018   0.000078
    16  H    0.001003  -0.000601   0.000171  -0.000006  -0.000046  -0.000286
    17  H   -0.002360   0.000505   0.000279  -0.000056   0.000336  -0.000163
    18  H   -0.001528   0.000765  -0.002553  -0.000194   0.000449   0.000332
    19  H   -0.001914   0.000686   0.003202  -0.000049   0.000355  -0.002638
    20  C    0.001394   0.007588   0.024151  -0.000491  -0.000034   0.004984
    21  N   -0.000901   0.000051   0.006855   0.000037   0.000361   0.000174
    22  C    0.000663   0.002266   0.002960  -0.000087  -0.000102   0.001661
    23  N    0.001028  -0.002088  -0.008233  -0.000006   0.000027   0.002744
    24  C   -0.003922   0.007640   0.031812   0.000396   0.003908   0.000945
    25  H    0.000843   0.002158  -0.005403   0.000091  -0.000446   0.000912
    26  H   -0.000020   0.000089  -0.000801  -0.000005   0.000026   0.000077
    27  O    0.000041   0.000262  -0.000769   0.000001  -0.000079  -0.000069
    28  O    0.002019  -0.000610  -0.006258   0.000122  -0.001331   0.001737
               7          8          9         10         11         12
     1  C    0.003195   0.008754  -0.023406   0.009859  -0.006587   0.001684
     2  C   -0.007179   0.004659   0.007765  -0.002596   0.000632  -0.002769
     3  C   -0.025161  -0.057230  -0.005910  -0.001025   0.002128   0.009623
     4  O   -0.001399  -0.000580  -0.001144  -0.000100  -0.000448  -0.000268
     5  H   -0.001237  -0.013308   0.001065  -0.002150   0.001438   0.000087
     6  O    0.000706   0.003160  -0.012714   0.002693  -0.000591  -0.000558
     7  H    0.002812   0.018433  -0.002057  -0.000333   0.000136  -0.000219
     8  C    0.018433   0.211252   0.008686  -0.000568  -0.000736  -0.002985
     9  C   -0.002057   0.008686   0.034787  -0.007314   0.002171  -0.006320
    10  H   -0.000333  -0.000568  -0.007314   0.000065  -0.000918  -0.000033
    11  O    0.000136  -0.000736   0.002171  -0.000918   0.006489   0.000110
    12  C   -0.000219  -0.002985  -0.006320  -0.000033   0.000110   0.000502
    13  H   -0.000401  -0.001832  -0.007453   0.000208  -0.000205   0.001534
    14  O    0.000022  -0.000806  -0.001779   0.000399  -0.000144  -0.001226
    15  H   -0.000002   0.000268  -0.000242   0.000009  -0.000159   0.000295
    16  H   -0.000177  -0.000371   0.000161   0.000252   0.000003  -0.001078
    17  H    0.000106   0.000138   0.000697  -0.000241   0.000645   0.000082
    18  H    0.000082   0.000959   0.000475   0.000011   0.000509  -0.000163
    19  H    0.000177   0.000184   0.002221  -0.000657   0.000057  -0.000084
    20  C    0.018953   0.160770  -0.000557  -0.000232  -0.000234  -0.000314
    21  N   -0.000306  -0.001244   0.000565  -0.000117   0.000018   0.000088
    22  C   -0.000422  -0.017573   0.001430   0.000240  -0.000041  -0.000031
    23  N   -0.000738  -0.025313  -0.000901   0.000139  -0.000026   0.000578
    24  C    0.005342   0.058110   0.003157   0.001888  -0.000102   0.000932
    25  H    0.002971   0.010407  -0.000125   0.000134  -0.000047   0.000068
    26  H    0.000077   0.005928  -0.000015   0.000004  -0.000001  -0.000002
    27  O   -0.000053   0.003730  -0.000039   0.000011  -0.000000  -0.000007
    28  O   -0.000467   0.003206  -0.000100   0.000674   0.000011  -0.000225
              13         14         15         16         17         18
     1  C    0.005175   0.000917   0.000383   0.001003  -0.002360  -0.001528
     2  C   -0.001765  -0.000197   0.000117  -0.000601   0.000505   0.000765
     3  C    0.004837   0.000564  -0.000361   0.000171   0.000279  -0.002553
     4  O   -0.000133  -0.000017  -0.000008  -0.000006  -0.000056  -0.000194
     5  H   -0.000363  -0.000120  -0.000018  -0.000046   0.000336   0.000449
     6  O   -0.000541   0.000124   0.000078  -0.000286  -0.000163   0.000332
     7  H   -0.000401   0.000022  -0.000002  -0.000177   0.000106   0.000082
     8  C   -0.001832  -0.000806   0.000268  -0.000371   0.000138   0.000959
     9  C   -0.007453  -0.001779  -0.000242   0.000161   0.000697   0.000475
    10  H    0.000208   0.000399   0.000009   0.000252  -0.000241   0.000011
    11  O   -0.000205  -0.000144  -0.000159   0.000003   0.000645   0.000509
    12  C    0.001534  -0.001226   0.000295  -0.001078   0.000082  -0.000163
    13  H    0.008747   0.000049  -0.000143   0.000512  -0.000007   0.000000
    14  O    0.000049   0.013895  -0.000075  -0.000345  -0.000033   0.000008
    15  H   -0.000143  -0.000075  -0.000016  -0.000124  -0.000003  -0.000010
    16  H    0.000512  -0.000345  -0.000124   0.002057  -0.000012   0.000008
    17  H   -0.000007  -0.000033  -0.000003  -0.000012  -0.000191   0.000060
    18  H    0.000000   0.000008  -0.000010   0.000008   0.000060   0.001324
    19  H   -0.000135   0.000085  -0.000028  -0.000324   0.000059  -0.000020
    20  C   -0.000223  -0.000023   0.000032   0.000044  -0.000052   0.000212
    21  N    0.000013  -0.000007   0.000002   0.000010   0.000004  -0.000019
    22  C    0.000048  -0.000034   0.000016   0.000005  -0.000008   0.000031
    23  N    0.000005  -0.000475   0.000056   0.000021  -0.000004   0.000009
    24  C    0.000068   0.000510  -0.000134   0.000275  -0.000118   0.000026
    25  H   -0.000015  -0.000011   0.000010   0.000042  -0.000013   0.000063
    26  H    0.000001  -0.000001   0.000000  -0.000000  -0.000001   0.000002
    27  O   -0.000000   0.000007  -0.000001   0.000001  -0.000000   0.000003
    28  O    0.000139   0.000346  -0.000047   0.000034  -0.000063   0.000032
              19         20         21         22         23         24
     1  C   -0.001914   0.001394  -0.000901   0.000663   0.001028  -0.003922
     2  C    0.000686   0.007588   0.000051   0.002266  -0.002088   0.007640
     3  C    0.003202   0.024151   0.006855   0.002960  -0.008233   0.031812
     4  O   -0.000049  -0.000491   0.000037  -0.000087  -0.000006   0.000396
     5  H    0.000355  -0.000034   0.000361  -0.000102   0.000027   0.003908
     6  O   -0.002638   0.004984   0.000174   0.001661   0.002744   0.000945
     7  H    0.000177   0.018953  -0.000306  -0.000422  -0.000738   0.005342
     8  C    0.000184   0.160770  -0.001244  -0.017573  -0.025313   0.058110
     9  C    0.002221  -0.000557   0.000565   0.001430  -0.000901   0.003157
    10  H   -0.000657  -0.000232  -0.000117   0.000240   0.000139   0.001888
    11  O    0.000057  -0.000234   0.000018  -0.000041  -0.000026  -0.000102
    12  C   -0.000084  -0.000314   0.000088  -0.000031   0.000578   0.000932
    13  H   -0.000135  -0.000223   0.000013   0.000048   0.000005   0.000068
    14  O    0.000085  -0.000023  -0.000007  -0.000034  -0.000475   0.000510
    15  H   -0.000028   0.000032   0.000002   0.000016   0.000056  -0.000134
    16  H   -0.000324   0.000044   0.000010   0.000005   0.000021   0.000275
    17  H    0.000059  -0.000052   0.000004  -0.000008  -0.000004  -0.000118
    18  H   -0.000020   0.000212  -0.000019   0.000031   0.000009   0.000026
    19  H    0.000061   0.000338  -0.000056  -0.000335  -0.000328  -0.001189
    20  C    0.000338  -0.314015  -0.064016   0.033884   0.015003   0.081388
    21  N   -0.000056  -0.064016   0.218935   0.021528   0.004464  -0.009208
    22  C   -0.000335   0.033884   0.021528  -0.230628   0.025201   0.031897
    23  N   -0.000328   0.015003   0.004464   0.025201   0.253546  -0.006578
    24  C   -0.001189   0.081388  -0.009208   0.031897  -0.006578  -0.272445
    25  H   -0.000093  -0.021061   0.006103   0.002524   0.001764  -0.007526
    26  H   -0.000004  -0.012968   0.008615   0.002324   0.000011   0.003103
    27  O    0.000042  -0.003257  -0.015660  -0.013426  -0.013586  -0.005810
    28  O   -0.000887   0.010897  -0.000687  -0.001507  -0.000016   0.005546
              25         26         27         28
     1  C    0.000843  -0.000020   0.000041   0.002019
     2  C    0.002158   0.000089   0.000262  -0.000610
     3  C   -0.005403  -0.000801  -0.000769  -0.006258
     4  O    0.000091  -0.000005   0.000001   0.000122
     5  H   -0.000446   0.000026  -0.000079  -0.001331
     6  O    0.000912   0.000077  -0.000069   0.001737
     7  H    0.002971   0.000077  -0.000053  -0.000467
     8  C    0.010407   0.005928   0.003730   0.003206
     9  C   -0.000125  -0.000015  -0.000039  -0.000100
    10  H    0.000134   0.000004   0.000011   0.000674
    11  O   -0.000047  -0.000001  -0.000000   0.000011
    12  C    0.000068  -0.000002  -0.000007  -0.000225
    13  H   -0.000015   0.000001  -0.000000   0.000139
    14  O   -0.000011  -0.000001   0.000007   0.000346
    15  H    0.000010   0.000000  -0.000001  -0.000047
    16  H    0.000042  -0.000000   0.000001   0.000034
    17  H   -0.000013  -0.000001  -0.000000  -0.000063
    18  H    0.000063   0.000002   0.000003   0.000032
    19  H   -0.000093  -0.000004   0.000042  -0.000887
    20  C   -0.021061  -0.012968  -0.003257   0.010897
    21  N    0.006103   0.008615  -0.015660  -0.000687
    22  C    0.002524   0.002324  -0.013426  -0.001507
    23  N    0.001764   0.000011  -0.013586  -0.000016
    24  C   -0.007526   0.003103  -0.005810   0.005546
    25  H    0.002168  -0.001196   0.000136   0.000597
    26  H   -0.001196  -0.014505  -0.002183   0.000021
    27  O    0.000136  -0.002183   0.460298   0.000048
    28  O    0.000597   0.000021   0.000048  -0.015635
 Mulliken charges and spin densities:
               1          2
     1  C    0.799740   0.010279
     2  C    0.902644   0.029258
     3  C    0.973646  -0.052045
     4  O   -0.692120  -0.000441
     5  H   -0.403011  -0.003944
     6  O   -0.872277   0.063739
     7  H   -0.536707   0.012860
     8  C    1.178604   0.376098
     9  C    0.619410  -0.006896
    10  H   -0.561927   0.000299
    11  O   -0.638685   0.004107
    12  C    1.204439  -0.000701
    13  H   -0.468916   0.008118
    14  O   -0.542869   0.011632
    15  H   -0.234772  -0.000103
    16  H   -0.212210   0.001224
    17  H    0.173691  -0.000415
    18  H    0.163759   0.000874
    19  H    0.243056  -0.001275
    20  C    1.222774  -0.057840
    21  N   -0.558792   0.175603
    22  C    0.807378  -0.137516
    23  N   -0.547425   0.246307
    24  C    0.105359  -0.070089
    25  H   -0.666974  -0.004944
    26  H   -0.061677  -0.011425
    27  O   -0.544015   0.409640
    28  O   -0.852121  -0.002404
 Sum of Mulliken charges =  -0.00000   1.00000
 Mulliken charges and spin densities with hydrogens summed into heavy atoms:
               1          2
     1  C    0.237813   0.010578
     2  C    0.499632   0.025314
     3  C    0.436939  -0.039185
     4  O   -0.528361   0.000433
     6  O   -0.872277   0.063739
     8  C    1.178604   0.376098
     9  C    0.150494   0.001222
    11  O   -0.464994   0.003692
    12  C    0.757457   0.000420
    14  O   -0.299813   0.010357
    20  C    0.555800  -0.062784
    21  N   -0.620469   0.164178
    22  C    0.807378  -0.137516
    23  N   -0.547425   0.246307
    24  C    0.105359  -0.070089
    27  O   -0.544015   0.409640
    28  O   -0.852121  -0.002404
 Electronic spatial extent (au):  <R**2>=           4111.5371
 Charge=             -0.0000 electrons
 Dipole moment (field-independent basis, Debye):
    X=             -0.6158    Y=             -6.5041    Z=              2.1247  Tot=              6.8699
 Quadrupole moment (field-independent basis, Debye-Ang):
   XX=            -97.1040   YY=           -110.4855   ZZ=            -93.1267
   XY=             13.7424   XZ=            -15.6616   YZ=              1.0421
 Traceless Quadrupole moment (field-independent basis, Debye-Ang):
   XX=              3.1347   YY=            -10.2468   ZZ=              7.1121
   XY=             13.7424   XZ=            -15.6616   YZ=              1.0421
 Octapole moment (field-independent basis, Debye-Ang**2):
  XXX=             67.5185  YYY=            -23.1235  ZZZ=            -15.9694  XYY=            -26.8138
  XXY=            -53.1609  XXZ=             26.0771  XZZ=             19.6320  YZZ=            -11.2417
  YYZ=             15.4519  XYZ=              8.6606
 Hexadecapole moment (field-independent basis, Debye-Ang**3):
 XXXX=          -3917.0674 YYYY=          -1223.0044 ZZZZ=           -439.6128 XXXY=            201.5703
 XXXZ=           -222.7337 YYYX=             -2.8388 YYYZ=             -8.9294 ZZZX=            -75.3337
 ZZZY=              5.5987 XXYY=           -766.8032 XXZZ=           -596.7615 YYZZ=           -245.7881
 XXYZ=              6.7679 YYXZ=            -32.7042 ZZXY=             16.0363
 N-N= 1.308321679293D+03 E-N=-4.746848940560D+03  KE= 9.045857650959D+02
                          Isotropic Fermi Contact Couplings
        Atom                 a.u.       MegaHertz       Gauss      10(-4) cm-1
     1  C(13)             -0.00047      -0.52813      -0.18845      -0.17617
     2  C(13)              0.00925      10.39479       3.70912       3.46733
     3  C(13)             -0.01080     -12.14266      -4.33280      -4.05036
     4  O(17)             -0.00015       0.08825       0.03149       0.02944
     5  H(1)              -0.00030      -1.35367      -0.48302      -0.45153
     6  O(17)              0.02117     -12.83427      -4.57959      -4.28105
     7  H(1)               0.00464      20.72902       7.39663       6.91446
     8  C(13)              0.02945      33.10973      11.81438      11.04422
     9  C(13)             -0.00186      -2.08623      -0.74442      -0.69589
    10  H(1)              -0.00009      -0.42451      -0.15147      -0.14160
    11  O(17)              0.00105      -0.63705      -0.22731      -0.21250
    12  C(13)             -0.00081      -0.90953      -0.32454      -0.30339
    13  H(1)               0.00337      15.04373       5.36798       5.01805
    14  O(17)              0.00201      -1.21909      -0.43500      -0.40665
    15  H(1)               0.00002       0.08036       0.02867       0.02680
    16  H(1)               0.00044       1.95468       0.69748       0.65201
    17  H(1)              -0.00007      -0.30435      -0.10860      -0.10152
    18  H(1)               0.00029       1.28114       0.45714       0.42734
    19  H(1)              -0.00014      -0.62063      -0.22146      -0.20702
[...]
 00004835,0.00004731,0.00011751,0.00003770,0.00063498,0.00017394,0.0003
 8075,-0.00063749,0.06084494,-0.11204096,-0.11040545,-0.30755105,0.4544
 9322,-0.00137547,-0.00142615,0.00020977,-0.00005108,0.00329532,0.00203
 838,-0.00114779,0.00444601,-0.00215988,0.00129508,-0.00101296,-0.00033
 750,-0.00016239,-0.00015590,0.00021932,0.00638844,0.00286899,0.0006524
 1,-0.00144561,-0.00020424,-0.00054425,-0.01958218,-0.02437476,0.013740
 07,-0.00229089,-0.00136122,0.00205886,0.00019695,-0.00001072,-0.000020
 70,0.00199827,0.00018347,-0.00100580,0.00060454,-0.00095597,0.00021708
 ,0.00090346,0.00013689,-0.00033049,-0.00047389,0.00114751,-0.00038071,
 0.00004896,0.00025813,-0.00010678,-0.00010445,0.00004980,-0.00001939,-
 0.00008094,-0.00012901,0.00030154,-0.00022493,-0.00001510,0.00012541,0
 .00021031,-0.00072402,0.00033281,0.03295235,0.03677830,-0.02924866,-0.
 12159229,0.00668602,-0.03823253,0.74642442,-0.00000091,0.00025641,0.00
 006971,-0.00140296,-0.00010865,-0.00062156,0.00033660,-0.00323941,0.00
 727845,-0.00068792,0.00019313,0.00008278,0.00005079,0.00005322,-0.0004
 0784,-0.00154899,0.00126802,-0.00050296,0.00118732,-0.00043555,0.00009
 125,-0.00640274,-0.01021927,0.00790214,0.00030720,-0.00045008,0.000057
 10,0.00003893,0.00001284,0.,-0.00032846,-0.00011890,0.00014255,-0.0001
 3468,0.00015823,-0.00006230,-0.00001455,0.00006601,-0.00003729,0.00003
 814,-0.00025397,-0.00000496,-0.00003560,-0.00004567,0.00000529,0.00000
 355,-0.00001314,-0.00000241,0.00001990,0.00003542,-0.00004826,0.000061
 60,0.00016005,0.00000900,0.00018861,0.00041974,0.00010408,0.06122322,-
 0.00853894,0.00315778,-0.02572366,-0.12045576,0.09026880,-0.07897462,0
 .34768176,0.00044920,0.00071829,-0.00015921,0.00148113,-0.00160735,-0.
 00013424,0.00058589,0.00194293,-0.00815930,0.00039357,-0.00011733,0.00
 001423,0.00004006,0.00016173,0.00043028,-0.00180942,-0.00325534,-0.000
 31374,-0.00075495,0.00079523,0.00035585,0.01460708,0.01767288,-0.01663
 150,0.00068662,0.00132448,-0.00131846,-0.00021339,-0.00006546,0.000103
 23,-0.00041106,-0.00017369,0.00022120,-0.00030954,0.00057591,-0.000272
 57,-0.00048105,-0.00016505,0.00029799,0.00066983,-0.00050153,0.0003181
 4,0.00007700,-0.00010957,0.00006060,0.00002854,-0.00003392,0.00005871,
 -0.00003811,0.00006783,-0.00003293,0.00004578,-0.00013336,-0.00004566,
 -0.00102076,0.00002097,-0.00036893,-0.09063993,0.00314043,-0.00368052,
 0.03727101,0.06420675,-0.15186409,0.07170251,-0.17079897,0.38755266,0.
 00023242,-0.00144992,0.00039537,-0.00000241,0.00011745,0.00061917,-0.0
 0280666,0.00023034,0.00238328,0.00019808,0.00067880,-0.00022754,-0.000
 13413,-0.00019973,0.00013990,0.00264715,0.00319159,-0.00098570,0.00014
 730,0.00020296,-0.00007922,-0.00888801,0.02413755,-0.03648931,-0.00020
 607,-0.00044271,0.00113703,0.00083860,0.00012074,-0.00040099,-0.000306
 07,0.00078782,-0.00019717,0.00132770,-0.00144196,0.00131067,0.00012969
 ,0.00022187,-0.00021854,-0.00285239,0.00011417,-0.00166077,-0.00028443
 ,0.00026684,-0.00014406,-0.00013469,0.00015447,-0.00033930,0.00020194,
 -0.00013236,-0.00011127,-0.00004410,-0.00025873,0.00001226,0.00379275,
 0.00188287,0.00251856,-0.02349397,0.00091966,-0.00329023,0.00020279,-0
 .01382349,0.03282929,-0.08564435,-0.09190310,0.08987179,0.48436986,0.0
 0017395,-0.00067056,0.00026290,0.00043405,-0.00002356,0.00043045,0.003
 62459,0.00153919,-0.00192009,0.00001385,0.00038640,0.00008487,-0.00012
 814,-0.00013170,0.00012548,0.00032708,-0.00038375,-0.00064541,-0.00144
 528,0.00003107,-0.00012284,0.00433568,-0.00352889,0.01599209,0.0003630
 6,-0.00006382,0.00009761,0.00043450,0.00011494,-0.00018132,-0.00029185
 ,0.00040520,-0.00010511,0.00047431,-0.00054539,0.00060276,-0.00005106,
 0.00011520,-0.00012259,-0.00118434,-0.00008095,-0.00080270,-0.00011996
 ,0.00006830,-0.00005615,-0.00004471,0.00006723,-0.00016991,0.00013189,
 -0.00006287,-0.00006849,0.00000980,-0.00014195,0.00000203,0.00115389,0
 .00074323,0.00121277,-0.01059817,0.00049246,0.00237573,-0.00199926,-0.
 01616035,0.03031432,-0.07972882,-0.07572578,0.04016682,0.11966344,0.11
 217317,-0.00032047,-0.00112945,0.00065459,-0.00079665,0.00128969,-0.00
 018273,-0.00496492,-0.00121747,0.00645622,0.00015480,0.00000618,-0.000
 26179,-0.00004045,-0.00016283,-0.00015394,0.00346502,0.00441051,0.0006
 6460,0.00117894,-0.00058032,-0.00071442,-0.01590603,0.01858737,-0.0103
 9746,-0.00117478,-0.00129951,0.00166480,0.00025257,0.00021232,-0.00033
 832,0.00052596,0.00046382,-0.00039321,0.00044608,-0.00065077,0.0003099
 1,0.00059850,0.00012021,-0.00035646,-0.00060648,0.00062885,-0.00043949
 ,-0.00003749,0.00016094,-0.00006481,-0.00005378,0.00002534,-0.00007344
 ,0.00002178,-0.00011994,0.00000910,-0.00015537,0.00001710,0.00006886,0
 .00086385,-0.00018472,0.00058277,0.02214683,-0.00026395,-0.00199673,0.
 00176926,0.03839522,-0.02720776,0.04960847,0.03264393,-0.10912294,-0.0
 2812030,-0.06805798,0.18252755,-0.00071182,0.00401031,-0.00064236,-0.0
 0111366,-0.00135722,-0.00498488,0.00184620,0.03111576,-0.02143298,-0.0
 0055930,-0.00140378,0.00174138,0.00041205,0.00136305,0.00104986,-0.004
 04237,-0.01019776,0.00239250,-0.00550286,0.00113231,0.00016920,-0.0940
 2297,0.02663737,-0.00726991,0.00082748,0.00165867,-0.00321094,-0.00212
 131,-0.00085696,0.00080955,-0.00007965,-0.00192902,0.00090696,-0.00281
 625,0.00281434,-0.00247417,-0.00042771,-0.00041816,0.00073511,0.005053
 14,-0.00088390,0.00247698,0.00046759,-0.00056977,0.00026606,0.00020669
 ,-0.00021704,0.00062572,-0.00047640,0.00033235,0.00011906,0.00016913,0
 .00054153,0.00016992,-0.00732367,-0.00289518,-0.00292383,0.00486821,-0
 .03012934,0.01869793,-0.00326266,0.00725793,-0.00588368,-0.02672307,-0
 .02027197,-0.00142374,-0.17138108,0.00192999,-0.03993966,0.62188044,-0
 .00075186,0.00231966,-0.00111448,-0.00213987,0.00131151,-0.00121694,0.
 00710630,-0.00726379,0.01901439,-0.00111540,-0.00096565,0.00018595,0.0
 0055143,0.00026723,-0.00071850,-0.00085509,-0.00309470,0.00251321,0.00
 334928,-0.00004301,0.00042311,0.05329089,-0.12611019,0.04849962,-0.001
 29900,-0.00025374,-0.00043019,-0.00188336,-0.00032737,0.00073915,0.001
 09352,-0.00186252,0.00042491,-0.00258616,0.00246873,-0.00254974,0.0003
 3520,-0.00039352,0.00022118,0.00554858,0.00014846,0.00273832,0.0005131
 8,-0.00041240,0.00021678,0.00016898,-0.00028951,0.00062161,-0.00044836
 ,0.00031580,0.00027820,0.00016542,0.00077737,0.00018366,-0.00711023,-0
 .00390502,-0.00348467,-0.01296450,-0.01840867,0.01256097,-0.00199906,0
 .00062151,0.00263611,0.00420121,-0.00946158,0.00242387,-0.00916012,-0.
 02078646,-0.02454805,0.26585634,0.54334759,0.00069972,-0.00078864,0.00
 034019,0.00265727,-0.00157583,0.00277732,-0.00675417,0.00735872,-0.011
 33903,0.00026595,0.00082521,-0.00087187,-0.00013835,-0.00073524,-0.000
 17708,0.00202916,0.00069871,-0.00142809,-0.00157509,0.00126367,0.00103
 035,-0.03471340,0.03218427,-0.09725115,-0.00047947,0.00066623,0.000280
 13,0.00076418,0.00022589,-0.00027806,-0.00058379,0.00066282,-0.0003028
 2,0.00114270,-0.00104089,0.00105801,-0.00009140,0.00003459,0.00001353,
 -0.00293518,-0.00040442,-0.00169249,-0.00020286,0.00026247,-0.00015272
 ,-0.00013516,0.00006246,-0.00033864,0.00025605,-0.00012119,-0.00009173
 ,0.00006573,-0.00037258,-0.00010376,0.00340495,0.00173244,0.00255259,0
 .02905268,0.02003305,-0.01357443,-0.00517240,0.00527944,-0.01750228,-0
 .00577792,-0.00271867,0.00277413,-0.05919198,-0.01942870,-0.06769739,-
 0.05248656,-0.17653986,0.31513052,-0.00000620,-0.00006891,0.00000005,-
 0.00011031,0.00005243,-0.00007016,0.00095501,-0.00240694,0.00145988,0.
 00003823,0.00005723,-0.00011968,0.00003811,0.00000071,-0.00011255,0.00
 018439,0.00064963,0.00013690,-0.00049309,0.00080936,-0.00043862,0.0083
 4167,-0.01459056,0.01465165,-0.00025994,-0.00004842,0.00004937,0.00000
 938,0.00000836,-0.00002769,0.00008386,0.00005347,-0.00004853,0.0000324
 2,-0.00005653,0.00002474,0.00000953,-0.00002015,0.00000261,-0.00004454
 ,0.00006707,-0.00004035,0.00000333,0.00001262,-0.00000898,-0.00000696,
 -0.00000091,-0.00000399,-0.00000625,-0.00001375,0.00000875,-0.00002921
 ,0.00000119,0.00000219,0.00006004,-0.00002176,0.00005391,-0.06207794,0
 .02385876,-0.02301737,-0.00542902,0.02531283,-0.02679520,-0.00380201,-
 0.00168755,0.00288737,0.00090473,0.00052658,-0.00046437,-0.00433588,-0
 .00141303,0.00173958,0.06706963,0.00001422,-0.00027066,-0.00011141,0.0
 0044995,0.00066632,0.00036117,0.00139323,-0.00221099,-0.00292575,0.000
 09921,-0.00010910,-0.00005228,0.00001155,-0.00005391,-0.00008843,-0.00
 064488,-0.00011821,-0.00010063,-0.00055249,0.00047278,-0.00014325,0.00
 103519,-0.00301812,0.01176491,-0.00019764,-0.00009899,-0.00010877,0.00
 003597,0.00004615,-0.00003086,0.00015740,0.00007375,-0.00008946,0.0000
 1027,-0.00006652,0.00008005,-0.00001198,-0.00000524,-0.00000088,-0.000
 08102,0.00006109,-0.00008525,-0.00000009,0.00000506,-0.00001569,-0.000
 01337,0.00000176,-0.00001928,0.00001333,-0.00001049,0.00001667,-0.0000
 1301,-0.00001537,-0.00000963,0.00010774,-0.00000913,0.00011322,0.03256
 320,-0.19187593,0.15077140,-0.00310672,0.00096001,0.00318301,0.0018501
 5,0.00101487,0.00356456,-0.00102926,0.00057907,-0.00258029,-0.00005688
 ,0.00304752,0.00715351,-0.03121664,0.19190128,-0.00000433,-0.00013894,
 -0.00008686,0.00031965,0.00025024,0.00048779,-0.00104715,-0.00210377,-
 0.00233349,0.00005488,-0.00008658,-0.00011645,-0.00008315,-0.00001282,
 -0.00004190,-0.00070466,-0.00002682,0.00021235,0.00062027,-0.00035058,
 0.00028576,-0.00583507,0.00997805,-0.00083578,-0.00005774,-0.00020334,
 -0.00002771,0.00001264,0.00003429,-0.00001671,0.00002596,0.00001313,-0
 .00002379,-0.00005523,0.00000068,0.00005370,-0.00000320,0.00000665,-0.
 00001147,-0.00002866,0.00001286,-0.00004457,-0.00000777,-0.00001829,-0
 .00000890,-0.00000269,-0.00000628,-0.00001833,0.00001750,0.00000222,0.
 00000390,0.00001504,-0.00003854,-0.00001876,0.00004811,-0.00000282,0.0
 0005203,-0.02329371,0.15082189,-0.19334045,-0.00351068,0.00728042,-0.0
 0302776,-0.00005010,-0.00163284,0.00759599,-0.00074634,-0.00006993,-0.
 00188332,0.00421337,0.00242331,0.00612342,0.03160535,-0.16697858,0.191
 77275,-0.00009418,-0.00007794,-0.00001052,-0.00003393,0.00026636,-0.00
 007188,-0.00008937,-0.00070324,0.00035359,0.00006231,-0.00007096,0.000
 01834,-0.00000900,0.00000786,0.00005593,0.00005850,0.00005310,0.000034
 78,-0.00004219,0.00002313,-0.00005211,-0.00257954,0.00353480,-0.002589
 16,-0.00014372,-0.00004246,0.00000278,-0.00001598,-0.00000640,0.000015
 16,0.00014841,-0.00001353,-0.00005002,-0.00002332,0.00000392,-0.000025
 88,0.00002488,-0.00000709,-0.00000372,0.00006053,0.00003913,0.00002611
 ,0.00001458,0.00000089,-0.00000282,-0.00000546,-0.00000094,0.00000909,
 -0.00001723,-0.00000056,0.00002294,-0.00001829,0.00002078,0.00001438,-
 0.00008652,-0.00006161,-0.00003326,-0.01708751,-0.01202783,0.01747091,
 -0.28956233,-0.09262550,0.16753171,0.01084695,0.00169781,-0.00336286,0
 .00231403,0.00070347,-0.00089137,0.00017008,0.00040224,-0.00051092,0.0
 0066650,0.00013521,-0.00040977,0.29725184,-0.00011232,-0.00008359,0.00
 006696,-0.00015023,0.00034716,0.00007599,-0.00091271,0.00168143,0.0006
 0959,0.00011726,-0.00020054,-0.00003113,-0.00000367,0.00000052,0.00003
 818,0.00129053,0.00008281,0.00009554,0.00005508,-0.00005012,0.00010494
 ,0.00356233,0.00276859,0.00042358,-0.00022463,0.00001925,0.00027119,0.
 00000341,-0.00001696,-0.00000716,0.00016561,-0.00002096,-0.00008301,0.
 00008312,-0.00004225,-0.00001076,0.00009869,0.00000299,-0.00000592,-0.
 00000041,0.00004285,-0.00003266,0.00001222,0.00003857,-0.00000788,-0.0
 0001465,-0.00000367,0.00000029,-0.00001194,-0.00000158,0.00002336,-0.0
 0001263,0.00002136,0.00001080,0.00002632,-0.00001876,0.00004551,0.0028
 9059,0.00189538,-0.01190522,-0.08817903,-0.07504756,0.10193156,-0.0195
 2352,-0.00805903,0.01139927,-0.00177085,0.00190867,0.00252840,0.002536
 26,-0.00284710,0.00343334,0.00016254,-0.00077074,-0.00132584,0.0992586
 8,0.07717081,-0.00000321,-0.00016407,0.00004319,-0.00013333,0.00026224
 ,-0.00001312,-0.00038581,0.00117594,0.00147003,-0.00016658,0.00009323,
 0.00000652,-0.00003084,-0.00003495,-0.00005799,0.00078066,0.00016432,-
 0.00005869,-0.00016142,-0.00000883,-0.00006985,-0.00510072,-0.00059432
 ,0.00232713,-0.00007503,-0.00015542,0.00028938,0.00007533,0.00001841,-
 0.00003250,-0.00002342,0.00004749,-0.00004075,0.00013556,-0.00012156,0
 .00013598,0.00007198,0.00004383,-0.00004830,-0.00022519,0.00004488,-0.
 00018277,-0.00002501,0.00002956,-0.00001476,-0.00001449,-0.00000278,-0
 .00004578,0.00003349,-0.00001105,-0.00000101,0.00001770,0.00002114,0.0
 0002137,0.00028355,0.00008931,0.00021692,-0.00551203,-0.00885923,0.006
 81802,0.17255945,0.10684311,-0.17434536,0.01396211,0.00327491,-0.00748
 190,0.00127561,0.00376976,-0.00246051,0.00229627,0.00048470,-0.0016761
 8,-0.00018820,-0.00080813,-0.00069179,-0.17842167,-0.10182291,0.173904
 05,0.00078868,0.00048373,-0.00008524,-0.00007716,-0.00141949,-0.001110
 68,0.00232291,-0.00095903,0.00210205,-0.00099830,0.00075983,0.00028099
 ,0.00004049,0.00001839,-0.00020775,-0.00284121,-0.00117663,-0.00017833
 ,0.00033445,-0.00003168,0.00010544,0.00210764,0.00563682,-0.00404145,0
 .00131370,0.00032511,-0.00077485,-0.00000694,0.00003622,-0.00006072,-0
 .00116599,0.00002363,0.00054328,-0.00017564,0.00028875,0.00014727,-0.0
 0037499,-0.00000432,0.00006349,-0.00020425,-0.00060226,-0.00011786,-0.
 00008335,-0.00011471,0.00002990,0.00004080,-0.00000802,-0.00006492,0.0
 0010701,0.00004330,-0.00018285,0.00016263,0.00002295,-0.00004166,0.000
 38314,0.00063925,0.00024701,-0.00256625,-0.00104756,-0.00127725,-0.028
 42941,0.03980442,-0.02732090,-0.54331072,0.16366103,-0.11618400,-0.116
 37056,0.00925841,0.02326161,0.00693906,-0.00725272,0.01008918,-0.00182
 820,0.00002063,-0.00031993,-0.00245844,0.00094883,0.00002743,0.6939567
 9,-0.00001878,0.00011939,-0.00007881,0.00041977,-0.00012627,0.00013902
 ,0.00002772,0.00001915,-0.00299542,0.00028680,-0.00013466,-0.00000750,
 0.00001156,0.00002882,0.00015042,-0.00015387,-0.00065386,0.00015714,-0
 .00022559,0.00026541,0.00002026,0.00278213,0.00251114,-0.00237942,-0.0
 0004706,0.00029082,-0.00026611,-0.00008106,-0.00003884,0.00004520,0.00
 011598,-0.00003347,-0.00001235,-0.00006637,0.00006181,-0.00010060,-0.0
 0006360,-0.00005380,0.00006706,0.00022415,0.00008674,0.00017396,0.0000
 3592,-0.00001330,0.00001345,0.00001171,-0.00000299,0.00003834,-0.00003
 832,-0.00000075,0.00002182,-0.00002967,-0.00005090,-0.00001752,-0.0003
 7469,-0.00028012,-0.00027833,-0.01714110,-0.00101696,0.00661096,0.0618
 6815,-0.01975846,0.02989559,0.13639822,-0.11798596,0.03607092,0.021455
 39,0.01458821,-0.00210261,-0.00494771,0.00467725,0.00092299,0.00158396
 ,0.00050092,0.00120488,-0.00089118,0.00089374,-0.00319266,-0.20443597,
 0.11506630,-0.00007120,-0.00005971,-0.00001303,-0.00038078,0.00022574,
 -0.00009373,0.00014136,-0.00039162,0.00174045,-0.00013605,0.00004446,0
 .00006609,-0.00000554,-0.00001230,-0.00006242,-0.00000053,0.00037182,0
 .00000806,0.00013162,-0.00026107,0.00005124,-0.00362474,-0.00360260,0.
 00307792,-0.00000731,-0.00020380,0.00014434,0.00003251,0.00000082,0.00
 000435,0.00000904,-0.00000024,0.00001497,0.00001178,-0.00004980,0.0000
 1407,0.00005031,0.00003254,-0.00003648,-0.00007725,0.00005275,0.000009
 87,-0.00001780,0.00000284,-0.00000435,0.00000420,0.00000690,0.00000275
 ,0.00000098,-0.00000292,-0.00000750,0.00000223,0.00003701,0.00000177,0
 .00015598,0.00000511,-0.00000609,0.01803329,0.00576723,-0.00208377,-0.
 06139827,0.03784647,-0.00738293,-0.07746662,0.02803660,-0.10121660,0.0
 0767910,-0.00222065,0.01804123,-0.00022226,0.00281557,-0.00103609,-0.0
 0173129,-0.00097367,-0.00178412,0.00104765,-0.00467317,0.00148140,0.11
 648563,-0.06284331,0.08827360,-0.00035045,-0.00347349,0.00224029,0.000
 77253,0.00012897,0.00236739,-0.00753489,-0.00709460,0.00068066,0.00067
 404,0.00117152,-0.00093354,-0.00022696,-0.00067689,-0.00044066,0.00348
 586,0.00903786,-0.00303141,0.00130564,-0.00019130,-0.00062531,0.005539
 82,-0.02061894,0.00916884,-0.00021941,-0.00147121,0.00257220,-0.000302
 09,0.00195606,-0.00123052,-0.00090935,0.00233849,-0.00092481,0.0023029
 6,-0.00265654,0.00226018,0.00035086,0.00032136,-0.00057923,-0.00649505
 ,-0.00129767,-0.00420181,-0.00048444,0.00053041,-0.00032068,-0.0002991
 9,0.00022963,-0.00064302,0.00050380,-0.00033076,-0.00033326,-0.0002312
 9,-0.00061164,-0.00011836,0.00208305,0.00261279,0.00244447,0.01426136,
 0.00618965,-0.00260159,-0.00919772,0.00055607,0.00069643,0.00614233,0.
 00030301,-0.00414857,-0.08475813,-0.04796696,-0.01082156,-0.31793939,-
 0.29160382,0.11858150,0.00003271,-0.00097326,-0.00077258,0.00064838,-0
 .00029487,-0.00105221,-0.00760590,0.00329353,0.00135396,0.39845090,0.0
 0027523,-0.00112416,-0.00048119,0.00024658,0.00094092,0.00082614,-0.00
 483920,0.00108585,-0.00728994,0.00088663,0.00022789,-0.00004704,0.0000
 8015,-0.00008342,0.00028526,0.00262219,0.00254011,0.00061038,-0.000762
 34,0.00093394,-0.00011913,-0.03943002,-0.04508641,0.03370689,-0.000782
 21,-0.00012447,0.00029361,0.00147317,-0.00094320,-0.00037651,0.0004006
 1,0.00087618,-0.00006789,0.00206932,-0.00347539,0.00258466,0.00002467,
 0.00034229,-0.00006790,-0.00731262,0.00090088,-0.00373060,-0.00058378,
 0.00056623,-0.00039432,-0.00025862,0.00040476,-0.00060207,0.00009041,-
 0.00025936,-0.00002210,-0.00021976,-0.00041415,-0.00009140,0.00690097,
 0.00166757,0.00360052,0.00959470,-0.00126489,0.00428913,-0.00163179,-0
 .00133116,0.00079996,0.01029698,0.00379200,-0.00729128,-0.05253372,-0.
 01490631,0.00340802,-0.27105151,-0.36287742,0.12092622,-0.00161157,-0.
 00069715,0.00096734,0.00038187,0.00028872,-0.00058694,-0.00491891,0.00
 104062,0.00004901,0.35059259,0.41697954,-0.00009906,0.00121784,-0.0010
 1760,-0.00090359,0.00035184,-0.00150080,0.00162192,-0.00373004,0.00156
 979,0.00001599,-0.00067468,0.00068266,0.00034832,0.00055262,0.00033374
 ,-0.00388900,0.00262325,-0.00159660,0.00074266,-0.00048471,0.00000772,
 0.02264239,0.04404503,-0.00363307,0.00177159,-0.00047373,-0.00080826,-
 0.00094795,-0.00061987,0.00038622,0.00048815,-0.00080020,0.00057230,-0
 .00029395,-0.00017687,0.00016420,-0.00019785,0.00006762,0.00024134,-0.
 00024500,-0.00021285,0.00087238,-0.00012265,-0.00004771,-0.00008575,0.
 00006960,0.00008763,0.00015508,-0.00030830,0.00015520,0.00006811,-0.00
 000340,0.00020658,0.00000099,-0.00095030,-0.00016230,-0.00267752,-0.01
 049720,0.00156529,0.00211709,0.00271367,-0.00146039,0.00370079,0.00051
 257,0.00371368,0.00101958,-0.00796928,-0.00146569,0.01276506,0.1062250
 9,0.11119780,-0.11656639,0.00044465,-0.00188627,-0.00227551,-0.0001674
 0,-0.00115284,0.00050728,-0.00141488,-0.00125739,0.00079499,-0.1095868
 0,-0.15117884,0.10420217\\0.00000987,0.00000920,0.00001150,0.00000326,
 -0.00001120,0.00000308,0.00001899,0.00001021,-0.00000189,-0.00000225,0
 .00000351,0.00000509,0.00000111,0.00000792,-0.00000163,-0.00000373,-0.
 00000058,-0.00000392,-0.00000128,-0.00000128,0.00000107,-0.00002797,-0
 .00000262,-0.00000391,-0.00000774,0.00000114,0.00000854,-0.00000322,-0
 .00000597,-0.00000475,-0.00000857,-0.00001395,-0.00001679,-0.00000362,
 -0.00000229,-0.00000467,0.00000060,-0.00000275,-0.00000267,0.00000383,
 0.00000427,0.00000178,0.00000125,-0.00000033,0.00000299,-0.00000114,0.
 00000211,0.00000031,0.00000619,0.00001329,0.00000791,-0.00000457,0.000
 00191,-0.00000304,-0.00000402,-0.00000057,0.00000444,0.00002280,0.0000
 0203,-0.00000047,-0.00001081,0.00000399,-0.00002236,0.00001492,-0.0000
 1515,0.00001487,-0.00001481,-0.00000510,0.00000999,0.00002243,0.000004
 90,0.00000642,0.00000152,-0.00000398,-0.00000549,0.00000009,0.00000667
 ,0.00000347,-0.00000475,0.00000523,-0.00000957,-0.00000838,-0.00001062
 ,-0.00000028\\\@
 The archive entry for this job was punched.


 I DON'T PRETEND TO UNDERSTAND THE UNIVERSE --
 IT'S A GREAT DEAL BIGGER THAN I AM.
       -- ATTR. TO WILLIAM ALLINGHAM (1828-89)
 Job cpu time:       0 days 17 hours 24 minutes 12.6 seconds.
 Elapsed time:       0 days  0 hours 26 minutes 21.8 seconds.
 File lengths (MBytes):  RWF=   1167 Int=      0 D2E=      0 Chk=     28 Scr=      1
 Normal termination of Gaussian 16 at Mon Oct 28 10:25:24 2024.
