 Entering Gaussian System, Link 0=g16
 Input=PseudoUridineAnNarrgPBE0aVDZ.gjf
 Output=PseudoUridineAnNarrgPBE0aVDZ.log
 Initial command:
 /sw/contrib/chem-src/g16/c01/g16/l1.exe "/scr/Gau-56798.inp" -scrdir="/scr/"
 Entering Link 1 = /sw/contrib/chem-src/g16/c01/g16/l1.exe PID=     56799.
  
 Copyright (c) 1988-2019, Gaussian, Inc.  All Rights Reserved.
  
 This is part of the Gaussian(R) 16 program.  It is based on
 the Gaussian(R) 09 system (copyright 2009, Gaussian, Inc.),
 the Gaussian(R) 03 system (copyright 2003, Gaussian, Inc.),
 the Gaussian(R) 98 system (copyright 1998, Gaussian, Inc.),
 the Gaussian(R) 94 system (copyright 1995, Gaussian, Inc.),
 the Gaussian 92(TM) system (copyright 1992, Gaussian, Inc.),
 the Gaussian 90(TM) system (copyright 1990, Gaussian, Inc.),
 the Gaussian 88(TM) system (copyright 1988, Gaussian, Inc.),
 the Gaussian 86(TM) system (copyright 1986, Carnegie Mellon
 University), and the Gaussian 82(TM) system (copyright 1983,
 Carnegie Mellon University). Gaussian is a federally registered
 trademark of Gaussian, Inc.
  
 This software contains proprietary and confidential information,
 including trade secrets, belonging to Gaussian, Inc.
  
 This software is provided under written license and may be
 used, copied, transmitted, or stored only in accord with that
 written license.
  
 The following legend is applicable only to US Government
 contracts under FAR:
  
                    RESTRICTED RIGHTS LEGEND
  
 Use, reproduction and disclosure by the US Government is
 subject to restrictions as set forth in subparagraphs (a)
 and (c) of the Commercial Computer Software - Restricted
 Rights clause in FAR 52.227-19.
  
 Gaussian, Inc.
 340 Quinnipiac St., Bldg. 40, Wallingford CT 06492
  
  
 ---------------------------------------------------------------
 Warning -- This program may not be used in any manner that
 competes with the business of Gaussian, Inc. or will provide
 assistance to any competitor of Gaussian, Inc.  The licensee
 of this program is prohibited from giving any competitor of
 Gaussian, Inc. access to this program.  By using this program,
 the user acknowledges that Gaussian, Inc. is engaged in the
 business of creating and licensing software in the field of
 computational chemistry and represents and warrants to the
 licensee that it is not a competitor of Gaussian, Inc. and that
 it will not use this program in any manner prohibited above.
 ---------------------------------------------------------------
  

 Cite this work as:
 Gaussian 16, Revision C.01,
 M. J. Frisch, G. W. Trucks, H. B. Schlegel, G. E. Scuseria, 
 M. A. Robb, J. R. Cheeseman, G. Scalmani, V. Barone, 
 G. A. Petersson, H. Nakatsuji, X. Li, M. Caricato, A. V. Marenich, 
 J. Bloino, B. G. Janesko, R. Gomperts, B. Mennucci, H. P. Hratchian, 
 J. V. Ortiz, A. F. Izmaylov, J. L. Sonnenberg, D. Williams-Young, 
 F. Ding, F. Lipparini, F. Egidi, J. Goings, B. Peng, A. Petrone, 
 T. Henderson, D. Ranasinghe, V. G. Zakrzewski, J. Gao, N. Rega, 
 G. Zheng, W. Liang, M. Hada, M. Ehara, K. Toyota, R. Fukuda, 
 J. Hasegawa, M. Ishida, T. Nakajima, Y. Honda, O. Kitao, H. Nakai, 
 T. Vreven, K. Throssell, J. A. Montgomery, Jr., J. E. Peralta, 
 F. Ogliaro, M. J. Bearpark, J. J. Heyd, E. N. Brothers, K. N. Kudin, 
 V. N. Staroverov, T. A. Keith, R. Kobayashi, J. Normand, 
 K. Raghavachari, A. P. Rendell, J. C. Burant, S. S. Iyengar, 
 J. Tomasi, M. Cossi, J. M. Millam, M. Klene, C. Adamo, R. Cammi, 
 J. W. Ochterski, R. L. Martin, K. Morokuma, O. Farkas, 
 J. B. Foresman, and D. J. Fox, Gaussian, Inc., Wallingford CT, 2019.
 
 ******************************************
 Gaussian 16:  EM64L-G16RevC.01  3-Jul-2019
                27-Oct-2024 
 ******************************************
 %nprocshared=40
 Will use up to   40 processors via shared memory.
 %mem=50gb
 ------------------------------------------------------
 # PBE1PBE/aug-cc-pVDZ opt freq EmpiricalDispersion=GD3
 ------------------------------------------------------
 1/18=20,19=15,26=3,38=1/1,3;
 2/9=110,12=2,17=6,18=5,40=1/2;
 3/5=16,7=10,11=2,25=1,30=1,71=1,74=-13,124=31/1,2,3;
 4//1;
 5/5=2,38=5/2;
 6/7=2,8=2,9=2,10=2,28=1/1;
 7//1,2,3,16;
 1/18=20,19=15,26=3/3(2);
 2/9=110/2;
 99//99;
 2/9=110/2;
 3/5=16,7=10,11=2,25=1,30=1,71=1,74=-13,124=31/1,2,3;
 4/5=5,16=3,69=1/1;
 5/5=2,38=5/2;
 7//1,2,3,16;
 1/18=20,19=15,26=3/3(-5);
 2/9=110/2;
 6/7=2,8=2,9=2,10=2,19=2,28=1/1;
 99/9=1/99;
 ----
 blah
 ----
 Symbolic Z-matrix:
 Charge = -1 Multiplicity = 1
 C                     2.30365  -0.22133  -0.64504 
 C                     1.23828  -1.32968  -0.58834 
 C                     0.38734  -0.94582   0.63952 
 O                     1.83703  -2.58533  -0.35432 
 H                     0.63146  -1.36222  -1.50711 
 O                     1.04904   0.13534   1.29436 
 H                     0.37852  -1.82953   1.29831 
 C                    -1.02646  -0.54306   0.35668 
 C                     2.37573   0.27033   0.79721 
 H                     1.96339   0.59482  -1.2916 
 O                     3.56717  -0.72139  -1.05867 
 C                     2.78406   1.72105   0.95033 
 H                     3.07287  -0.37478   1.36247 
 O                     2.05731   2.58913   0.11157 
 H                     3.84591   1.82043   0.68368 
 H                     2.67257   2.00094   2.01249 
 H                     3.71112  -0.47795  -1.97652 
 H                     2.74274  -2.5136   -0.69108 
 H                     1.13964   2.28389   0.07538 
 C                    -2.07868  -1.21426   0.87828 
 N                    -3.37642  -0.86274   0.62664 
 C                    -3.73753   0.21204  -0.16607 
 N                    -2.65151   0.89109  -0.67859 
 C                    -1.29867   0.61338  -0.48904 
 H                    -1.94176  -2.07794   1.52807 
 H                    -4.14645  -1.37956   1.02584 
 O                    -4.89242   0.51844  -0.38168 
 O                    -0.45451   1.32016  -1.0232 
 

 GradGradGradGradGradGradGradGradGradGradGradGradGradGradGradGradGradGrad
 Berny optimization.
 Initialization pass.
                           ----------------------------
                           !    Initial Parameters    !
                           ! (Angstroms and Degrees)  !
 --------------------------                            --------------------------
 ! Name  Definition              Value          Derivative Info.                !
 --------------------------------------------------------------------------------
 ! R1    R(1,2)                  1.5384         estimate D2E/DX2                !
 ! R2    R(1,9)                  1.5254         estimate D2E/DX2                !
 ! R3    R(1,10)                 1.0954         estimate D2E/DX2                !
 ! R4    R(1,11)                 1.4204         estimate D2E/DX2                !
 ! R5    R(2,3)                  1.5424         estimate D2E/DX2                !
 ! R6    R(2,4)                  1.4107         estimate D2E/DX2                !
 ! R7    R(2,5)                  1.1016         estimate D2E/DX2                !
 ! R8    R(3,6)                  1.4267         estimate D2E/DX2                !
 ! R9    R(3,7)                  1.1023         estimate D2E/DX2                !
 ! R10   R(3,8)                  1.497          estimate D2E/DX2                !
 ! R11   R(4,18)                 0.969          estimate D2E/DX2                !
 ! R12   R(6,9)                  1.4232         estimate D2E/DX2                !
 ! R13   R(8,20)                 1.3527         estimate D2E/DX2                !
 ! R14   R(8,24)                 1.4583         estimate D2E/DX2                !
 ! R15   R(9,12)                 1.5149         estimate D2E/DX2                !
 ! R16   R(9,13)                 1.1053         estimate D2E/DX2                !
 ! R17   R(11,17)                0.9604         estimate D2E/DX2                !
 ! R18   R(12,14)                1.409          estimate D2E/DX2                !
 ! R19   R(12,15)                1.0993         estimate D2E/DX2                !
 ! R20   R(12,16)                1.1041         estimate D2E/DX2                !
 ! R21   R(14,19)                0.9678         estimate D2E/DX2                !
 ! R22   R(20,21)                1.3679         estimate D2E/DX2                !
 ! R23   R(20,25)                1.0895         estimate D2E/DX2                !
 ! R24   R(21,22)                1.3835         estimate D2E/DX2                !
 ! R25   R(21,26)                1.0097         estimate D2E/DX2                !
 ! R26   R(22,23)                1.3796         estimate D2E/DX2                !
 ! R27   R(22,27)                1.2141         estimate D2E/DX2                !
 ! R28   R(23,24)                1.394          estimate D2E/DX2                !
 ! R29   R(24,28)                1.2237         estimate D2E/DX2                !
 ! A1    A(2,1,9)              103.3017         estimate D2E/DX2                !
 ! A2    A(2,1,10)             110.086          estimate D2E/DX2                !
 ! A3    A(2,1,11)             111.9078         estimate D2E/DX2                !
 ! A4    A(9,1,10)             109.4266         estimate D2E/DX2                !
 ! A5    A(9,1,11)             110.2886         estimate D2E/DX2                !
 ! A6    A(10,1,11)            111.5139         estimate D2E/DX2                !
 ! A7    A(1,2,3)              103.4207         estimate D2E/DX2                !
 ! A8    A(1,2,4)              110.7            estimate D2E/DX2                !
 ! A9    A(1,2,5)              111.8409         estimate D2E/DX2                !
 ! A10   A(3,2,4)              108.8825         estimate D2E/DX2                !
 ! A11   A(3,2,5)              111.5556         estimate D2E/DX2                !
 ! A12   A(4,2,5)              110.2358         estimate D2E/DX2                !
 ! A13   A(2,3,6)              107.3428         estimate D2E/DX2                !
 ! A14   A(2,3,7)              106.2997         estimate D2E/DX2                !
 ! A15   A(2,3,8)              115.9492         estimate D2E/DX2                !
 ! A16   A(6,3,7)              109.6893         estimate D2E/DX2                !
 ! A17   A(6,3,8)              108.7147         estimate D2E/DX2                !
 ! A18   A(7,3,8)              108.7273         estimate D2E/DX2                !
 ! A19   A(2,4,18)             105.8545         estimate D2E/DX2                !
 ! A20   A(3,6,9)              110.1141         estimate D2E/DX2                !
 ! A21   A(3,8,20)             121.8896         estimate D2E/DX2                !
 ! A22   A(3,8,24)             119.9474         estimate D2E/DX2                !
 ! A23   A(20,8,24)            118.1583         estimate D2E/DX2                !
 ! A24   A(1,9,6)              104.8118         estimate D2E/DX2                !
 ! A25   A(1,9,12)             114.643          estimate D2E/DX2                !
 ! A26   A(1,9,13)             108.9783         estimate D2E/DX2                !
 ! A27   A(6,9,12)             107.8665         estimate D2E/DX2                !
 ! A28   A(6,9,13)             110.7292         estimate D2E/DX2                !
 ! A29   A(12,9,13)            109.7083         estimate D2E/DX2                !
 ! A30   A(1,11,17)            108.8068         estimate D2E/DX2                !
 ! A31   A(9,12,14)            113.0048         estimate D2E/DX2                !
 ! A32   A(9,12,15)            108.8095         estimate D2E/DX2                !
 ! A33   A(9,12,16)            108.228          estimate D2E/DX2                !
 ! A34   A(14,12,15)           107.3449         estimate D2E/DX2                !
 ! A35   A(14,12,16)           111.3721         estimate D2E/DX2                !
 ! A36   A(15,12,16)           107.938          estimate D2E/DX2                !
 ! A37   A(12,14,19)           108.484          estimate D2E/DX2                !
 ! A38   A(8,20,21)            122.6532         estimate D2E/DX2                !
 ! A39   A(8,20,25)            121.7085         estimate D2E/DX2                !
 ! A40   A(21,20,25)           115.638          estimate D2E/DX2                !
 ! A41   A(20,21,22)           123.5523         estimate D2E/DX2                !
 ! A42   A(20,21,26)           121.2851         estimate D2E/DX2                !
 ! A43   A(22,21,26)           115.1598         estimate D2E/DX2                !
 ! A44   A(21,22,23)           112.9414         estimate D2E/DX2                !
 ! A45   A(21,22,27)           123.0989         estimate D2E/DX2                !
 ! A46   A(23,22,27)           123.9596         estimate D2E/DX2                !
 ! A47   A(22,23,24)           127.9805         estimate D2E/DX2                !
 ! A48   A(8,24,23)            114.7076         estimate D2E/DX2                !
 ! A49   A(8,24,28)            125.6188         estimate D2E/DX2                !
 ! A50   A(23,24,28)           119.6729         estimate D2E/DX2                !
 ! D1    D(9,1,2,3)             24.6731         estimate D2E/DX2                !
 ! D2    D(9,1,2,4)            -91.804          estimate D2E/DX2                !
 ! D3    D(9,1,2,5)            144.8429         estimate D2E/DX2                !
 ! D4    D(10,1,2,3)           -92.0933         estimate D2E/DX2                !
 ! D5    D(10,1,2,4)           151.4296         estimate D2E/DX2                !
 ! D6    D(10,1,2,5)            28.0765         estimate D2E/DX2                !
 ! D7    D(11,1,2,3)           143.301          estimate D2E/DX2                !
 ! D8    D(11,1,2,4)            26.8239         estimate D2E/DX2                !
 ! D9    D(11,1,2,5)           -96.5292         estimate D2E/DX2                !
 ! D10   D(2,1,9,6)            -33.3849         estimate D2E/DX2                !
 ! D11   D(2,1,9,12)          -151.4485         estimate D2E/DX2                !
 ! D12   D(2,1,9,13)            85.1766         estimate D2E/DX2                !
 ! D13   D(10,1,9,6)            83.8462         estimate D2E/DX2                !
 ! D14   D(10,1,9,12)          -34.2173         estimate D2E/DX2                !
 ! D15   D(10,1,9,13)         -157.5923         estimate D2E/DX2                !
 ! D16   D(11,1,9,6)          -153.1313         estimate D2E/DX2                !
 ! D17   D(11,1,9,12)           88.8051         estimate D2E/DX2                !
 ! D18   D(11,1,9,13)          -34.5698         estimate D2E/DX2                !
 ! D19   D(2,1,11,17)          103.2536         estimate D2E/DX2                !
 ! D20   D(9,1,11,17)         -142.3491         estimate D2E/DX2                !
 ! D21   D(10,1,11,17)         -20.5541         estimate D2E/DX2                !
 ! D22   D(1,2,3,6)             -8.0139         estimate D2E/DX2                !
 ! D23   D(1,2,3,7)           -125.3405         estimate D2E/DX2                !
 ! D24   D(1,2,3,8)            113.7079         estimate D2E/DX2                !
 ! D25   D(4,2,3,6)            109.7406         estimate D2E/DX2                !
 ! D26   D(4,2,3,7)             -7.5861         estimate D2E/DX2                !
 ! D27   D(4,2,3,8)           -128.5377         estimate D2E/DX2                !
 ! D28   D(5,2,3,6)           -128.3782         estimate D2E/DX2                !
 ! D29   D(5,2,3,7)            114.2952         estimate D2E/DX2                !
 ! D30   D(5,2,3,8)             -6.6564         estimate D2E/DX2                !
 ! D31   D(1,2,4,18)           -25.8187         estimate D2E/DX2                !
 ! D32   D(3,2,4,18)          -138.8649         estimate D2E/DX2                !
 ! D33   D(5,2,4,18)            98.4561         estimate D2E/DX2                !
 ! D34   D(2,3,6,9)            -13.58           estimate D2E/DX2                !
 ! D35   D(7,3,6,9)            101.5096         estimate D2E/DX2                !
 ! D36   D(8,3,6,9)           -139.7226         estimate D2E/DX2                !
 ! D37   D(2,3,8,20)           119.9766         estimate D2E/DX2                !
 ! D38   D(2,3,8,24)           -60.8289         estimate D2E/DX2                !
 ! D39   D(6,3,8,20)          -119.0345         estimate D2E/DX2                !
 ! D40   D(6,3,8,24)            60.16           estimate D2E/DX2                !
 ! D41   D(7,3,8,20)             0.3362         estimate D2E/DX2                !
 ! D42   D(7,3,8,24)           179.5308         estimate D2E/DX2                !
 ! D43   D(3,6,9,1)             29.769          estimate D2E/DX2                !
 ! D44   D(3,6,9,12)           152.3429         estimate D2E/DX2                !
 ! D45   D(3,6,9,13)           -87.6017         estimate D2E/DX2                !
 ! D46   D(3,8,20,21)         -179.7726         estimate D2E/DX2                !
 ! D47   D(3,8,20,25)            0.0284         estimate D2E/DX2                !
 ! D48   D(24,8,20,21)           1.019          estimate D2E/DX2                !
 ! D49   D(24,8,20,25)        -179.18           estimate D2E/DX2                !
 ! D50   D(3,8,24,23)         -179.9227         estimate D2E/DX2                !
 ! D51   D(3,8,24,28)            0.3865         estimate D2E/DX2                !
 ! D52   D(20,8,24,23)          -0.6984         estimate D2E/DX2                !
 ! D53   D(20,8,24,28)         179.6108         estimate D2E/DX2                !
 ! D54   D(1,9,12,14)           48.7549         estimate D2E/DX2                !
 ! D55   D(1,9,12,15)          -70.3735         estimate D2E/DX2                !
 ! D56   D(1,9,12,16)          172.5792         estimate D2E/DX2                !
 ! D57   D(6,9,12,14)          -67.5654         estimate D2E/DX2                !
 ! D58   D(6,9,12,15)          173.3063         estimate D2E/DX2                !
 ! D59   D(6,9,12,16)           56.259          estimate D2E/DX2                !
 ! D60   D(13,9,12,14)         171.7379         estimate D2E/DX2                !
 ! D61   D(13,9,12,15)          52.6095         estimate D2E/DX2                !
 ! D62   D(13,9,12,16)         -64.4378         estimate D2E/DX2                !
 ! D63   D(9,12,14,19)          38.2766         estimate D2E/DX2                !
 ! D64   D(15,12,14,19)        158.2482         estimate D2E/DX2                !
 ! D65   D(16,12,14,19)        -83.8011         estimate D2E/DX2                !
 ! D66   D(8,20,21,22)          -0.7404         estimate D2E/DX2                !
 ! D67   D(8,20,21,26)         179.8959         estimate D2E/DX2                !
 ! D68   D(25,20,21,22)        179.4474         estimate D2E/DX2                !
 ! D69   D(25,20,21,26)          0.0837         estimate D2E/DX2                !
 ! D70   D(20,21,22,23)          0.1156         estimate D2E/DX2                !
 ! D71   D(20,21,22,27)       -179.8374         estimate D2E/DX2                !
 ! D72   D(26,21,22,23)        179.5149         estimate D2E/DX2                !
 ! D73   D(26,21,22,27)         -0.4382         estimate D2E/DX2                !
 ! D74   D(21,22,23,24)          0.1709         estimate D2E/DX2                !
 ! D75   D(27,22,23,24)       -179.8765         estimate D2E/DX2                !
 ! D76   D(22,23,24,8)           0.12           estimate D2E/DX2                !
 ! D77   D(22,23,24,28)        179.8307         estimate D2E/DX2                !
 --------------------------------------------------------------------------------
 Trust Radius=3.00D-01 FncErr=1.00D-07 GrdErr=1.00D-06 EigMax=2.50D+02 EigMin=1.00D-04
 Number of steps in this run=    166 maximum allowed number of steps=    168.
 GradGradGradGradGradGradGradGradGradGradGradGradGradGradGradGradGradGrad

                          Input orientation:                          
 ---------------------------------------------------------------------
 Center     Atomic      Atomic             Coordinates (Angstroms)
 Number     Number       Type             X           Y           Z
 ---------------------------------------------------------------------
      1          6           0        2.303647   -0.221326   -0.645041
      2          6           0        1.238282   -1.329676   -0.588336
      3          6           0        0.387335   -0.945815    0.639522
      4          8           0        1.837031   -2.585331   -0.354319
      5          1           0        0.631463   -1.362221   -1.507113
      6          8           0        1.049039    0.135335    1.294356
      7          1           0        0.378521   -1.829527    1.298314
      8          6           0       -1.026459   -0.543058    0.356677
      9          6           0        2.375731    0.270327    0.797206
     10          1           0        1.963388    0.594815   -1.291599
     11          8           0        3.567168   -0.721386   -1.058673
     12          6           0        2.784064    1.721050    0.950332
     13          1           0        3.072868   -0.374777    1.362465
     14          8           0        2.057309    2.589126    0.111572
     15          1           0        3.845909    1.820432    0.683677
     16          1           0        2.672565    2.000936    2.012488
     17          1           0        3.711116   -0.477946   -1.976520
     18          1           0        2.742742   -2.513602   -0.691082
     19          1           0        1.139642    2.283894    0.075382
     20          6           0       -2.078680   -1.214255    0.878283
     21          7           0       -3.376423   -0.862742    0.626640
     22          6           0       -3.737529    0.212035   -0.166073
     23          7           0       -2.651508    0.891089   -0.678594
     24          6           0       -1.298668    0.613379   -0.489037
     25          1           0       -1.941763   -2.077937    1.528073
     26          1           0       -4.146452   -1.379555    1.025835
     27          8           0       -4.892417    0.518436   -0.381677
     28          8           0       -0.454509    1.320162   -1.023196
 ---------------------------------------------------------------------
                    Distance matrix (angstroms):
                    1          2          3          4          5
     1  C    0.000000
     2  C    1.538395   0.000000
     3  C    2.418106   1.542432   0.000000
     4  O    2.427091   1.410650   2.403612   0.000000
     5  H    2.200229   1.101562   2.200235   2.068412   0.000000
     6  O    2.337201   2.393031   1.426725   3.277359   3.203946
     7  H    3.173177   2.132719   1.102285   2.330169   2.855306
     8  C    3.492357   2.576988   1.497006   3.588310   2.625537
     9  C    1.525449   2.402816   2.336147   3.125858   3.319272
    10  H    1.095399   2.173482   2.930309   3.317799   2.377070
    11  O    1.420435   2.452538   3.611866   2.638897   3.038113
    12  C    2.559070   3.750183   3.599039   4.598250   4.492136
    13  H    2.155302   2.843090   2.839158   3.059606   3.894866
    14  O    2.920922   4.064196   3.945041   5.200056   4.501813
    15  H    2.883199   4.282630   4.428973   4.952148   5.026082
    16  H    3.483821   4.462559   3.973745   5.228168   5.278685
    17  H    1.954395   2.960981   4.255596   3.253429   3.238294
    18  H    2.334406   1.917195   3.126724   0.968951   2.539505
    19  H    2.854828   3.675342   3.363813   4.937646   4.007080
    20  C    4.744598   3.628571   2.492047   4.328042   3.613431
    21  N    5.855919   4.794757   3.764697   5.577607   4.567880
    22  C    6.075609   5.226268   4.359370   6.239905   4.833711
    23  N    5.078598   4.480001   3.787639   5.686619   4.067155
    24  C    3.701046   3.197098   2.558777   4.481351   2.943617
    25  H    5.117903   3.892527   2.737868   4.252074   4.043030
    26  H    6.762921   5.621690   4.570842   6.257858   5.407827
    27  O    7.238781   6.406535   5.573389   7.410775   5.942788
    28  O    3.182234   3.174317   2.933937   4.577273   2.934057
                    6          7          8          9         10
     6  O    0.000000
     7  H    2.076124   0.000000
     8  C    2.376373   2.125006   0.000000
     9  C    1.423198   2.940977   3.525700   0.000000
    10  H    2.781064   3.885471   3.598716   2.153700   0.000000
    11  O    3.551294   4.117139   4.810034   2.418120   2.087762
    12  C    2.375533   4.302828   4.471990   1.514853   2.639729
    13  H    2.088238   3.062665   4.224264   1.105295   3.035640
    14  O    2.904596   4.873518   4.402304   2.438917   2.440284
    15  H    3.321891   5.071761   5.425217   2.139425   2.991277
    16  H    2.575270   4.521629   4.785018   2.135422   3.660205
    17  H    4.261619   4.863897   5.281351   3.168079   2.162056
    18  H    3.718529   3.164679   4.380379   3.178043   3.260409
    19  H    2.471925   4.358337   3.572503   2.470506   2.323829
    20  C    3.431783   2.567649   1.352682   4.695991   4.931474
    21  N    4.585490   3.935152   2.386925   5.865170   5.858131
    22  C    5.004994   4.822268   2.862400   6.188962   5.823554
    23  N    4.261190   4.526698   2.401947   5.276027   4.664849
    24  C    2.986762   3.460546   1.458313   3.908109   3.359384
    25  H    3.728015   2.344827   2.136774   4.968829   5.508571
    26  H    5.418498   4.555447   3.298766   6.731512   6.826330
    27  O    6.185204   6.009833   4.076465   7.367313   6.916347
    28  O    3.005914   4.000486   2.388046   3.525092   2.538581
                   11         12         13         14         15
    11  O    0.000000
    12  C    3.258043   0.000000
    13  H    2.495271   2.155401   0.000000
    14  O    3.822125   1.408988   3.373546   0.000000
    15  H    3.094240   1.099316   2.424312   2.029109   0.000000
    16  H    4.200403   1.104058   2.495353   2.082784   1.781869
    17  H    0.960431   3.776436   3.401004   4.062282   3.518147
    18  H    2.006699   4.541831   2.983389   5.210749   4.678759
    19  H    4.026248   1.945881   3.530223   0.967775   2.812241
    20  C    5.989183   5.680448   5.241908   5.670975   6.659426
    21  N    7.146588   6.688225   6.509447   6.458028   7.704853
    22  C    7.417992   6.786358   7.004447   6.269593   7.798561
    23  N    6.435563   5.734778   6.207803   5.067608   6.703424
    24  C    5.077641   4.468492   4.849210   3.940417   5.412847
    25  H    6.235367   6.090938   5.298557   6.307181   7.029042
    26  H    8.017374   7.592859   7.296676   7.421116   8.615963
    27  O    8.576716   7.883457   8.202782   7.268407   8.898793
    28  O    4.510328   3.813644   4.583294   3.034336   4.653738
                   16         17         18         19         20
    16  H    0.000000
    17  H    4.809951   0.000000
    18  H    5.262629   2.594994   0.000000
    19  H    2.486423   4.295409   5.115991   0.000000
    20  C    5.847923   6.497214   5.234245   4.820715   0.000000
    21  N    6.834580   7.560272   6.473477   5.531731   1.367853
    22  C    7.002542   7.696499   7.049727   5.304498   2.424204
    23  N    6.067902   6.636404   6.378872   4.108674   2.680386
    24  C    4.894245   5.338683   5.113886   3.009077   2.412100
    25  H    6.177693   6.840847   5.201830   5.534522   1.089459
    26  H    7.674646   8.459811   7.189914   6.501308   2.079610
    27  O    8.072099   8.806650   8.220988   6.301705   3.536500
    28  O    4.411057   4.636211   5.003045   2.162630   3.560453
                   21         22         23         24         25
    21  N    0.000000
    22  C    1.383451   0.000000
    23  N    2.303272   1.379577   0.000000
    24  C    2.782217   2.492674   1.393998   0.000000
    25  H    2.085073   3.367325   3.766727   3.424250   0.000000
    26  H    1.009652   2.030030   3.208701   3.791635   2.366566
    27  O    2.285299   1.214139   2.291005   3.596606   4.369743
    28  O    4.003075   3.569429   2.264875   1.223713   4.501997
                   26         27         28
    26  H    0.000000
    27  O    2.477887   0.000000
    28  O    5.011731   4.555144   0.000000
 Stoichiometry    C9H11N2O6(1-)
 Framework group  C1[X(C9H11N2O6)]
 Deg. of freedom    78
 Full point group                 C1      NOp   1
 Largest Abelian subgroup         C1      NOp   1
 Largest concise Abelian subgroup C1      NOp   1
                         Standard orientation:                         
 ---------------------------------------------------------------------
 Center     Atomic      Atomic             Coordinates (Angstroms)
 Number     Number       Type             X           Y           Z
 ---------------------------------------------------------------------
      1          6           0        2.282488   -0.236788   -0.640030
      2          6           0        1.207948   -1.335530   -0.570844
      3          6           0        0.354104   -0.925096    0.646363
      4          8           0        1.795388   -2.591984   -0.313605
      5          1           0        0.605407   -1.378065   -1.492025
      6          8           0        1.021286    0.161171    1.287016
      7          1           0        0.334923   -1.797951    1.319258
      8          6           0       -1.054987   -0.515679    0.349939
      9          6           0        2.351450    0.277510    0.794451
     10          1           0        1.952006    0.571494   -1.301364
     11          8           0        3.543949   -0.753543   -1.039174
     12          6           0        2.770720    1.727209    0.926235
     13          1           0        3.040574   -0.363927    1.373541
     14          8           0        2.055122    2.587400    0.069941
     15          1           0        3.834629    1.813784    0.663371
     16          1           0        2.656266    2.025100    1.983167
     17          1           0        3.694364   -0.526121   -1.960087
     18          1           0        2.703292   -2.532943   -0.646909
     19          1           0        1.135211    2.288964    0.034048
     20          6           0       -2.115140   -1.169934    0.876981
     21          7           0       -3.408752   -0.812176    0.613166
     22          6           0       -3.757275    0.252505   -0.198575
     23          7           0       -2.663305    0.914492   -0.716491
     24          6           0       -1.313697    0.629082   -0.515664
     25          1           0       -1.988391   -2.024072    1.541288
     26          1           0       -4.184878   -1.316304    1.016750
     27          8           0       -4.908580    0.564600   -0.424910
     28          8           0       -0.461249    1.320376   -1.056881
 ---------------------------------------------------------------------
 Rotational constants (GHZ):           0.9233665           0.2958735           0.2569705
 Standard basis: Aug-CC-pVDZ (5D, 7F)
 There are   524 symmetry adapted cartesian basis functions of A   symmetry.
 There are   490 symmetry adapted basis functions of A   symmetry.
   490 basis functions,   852 primitive gaussians,   524 cartesian basis functions
    64 alpha electrons       64 beta electrons
       nuclear repulsion energy      1300.1196687416 Hartrees.
 NAtoms=   28 NActive=   28 NUniq=   28 SFac= 1.00D+00 NAtFMM=   60 NAOKFM=F Big=F
 Integral buffers will be    131072 words long.
 Raffenetti 2 integral format.
 Two-electron integral symmetry is turned on.
 Nuclear repulsion after empirical dispersion term =     1300.1003013120 Hartrees.
 One-electron integrals computed using PRISM.
 NBasis=   490 RedAO= T EigKep=  2.33D-06  NBF=   490
 NBsUse=   490 1.00D-06 EigRej= -1.00D+00 NBFU=   490
 ExpMin= 2.97D-02 ExpMax= 1.17D+04 ExpMxC= 4.01D+02 IAcc=3 IRadAn=         5 AccDes= 0.00D+00
 Harris functional with IExCor= 1009 and IRadAn=       5 diagonalized for initial guess.
 HarFok:  IExCor= 1009 AccDes= 0.00D+00 IRadAn=         5 IDoV= 1 UseB2=F ITyADJ=14
 ICtDFT=  3500011 ScaDFX=  1.000000  1.000000  1.000000  1.000000
 FoFCou: FMM=F IPFlag=           0 FMFlag=      100000 FMFlg1=           0
         NFxFlg=           0 DoJE=T BraDBF=F KetDBF=T FulRan=T
         wScrn=  0.000000 ICntrl=       500 IOpCl=  0 I1Cent=   200000004 NGrid=           0
         NMat0=    1 NMatS0=      1 NMatT0=    0 NMatD0=    1 NMtDS0=    0 NMtDT0=    0
 Petite list used in FoFCou.
 Requested convergence on RMS density matrix=1.00D-08 within 128 cycles.
 Requested convergence on MAX density matrix=1.00D-06.
 Requested convergence on             energy=1.00D-06.
 No special actions if energy rises.
 EnCoef did     1 forward-backward iterations
 SCF Done:  E(RPBE1PBE) =  -909.666287207     A.U. after   16 cycles
            NFock= 16  Conv=0.69D-08     -V/T= 2.0052

 **********************************************************************

            Population analysis using the SCF Density.

 **********************************************************************

 Orbital symmetries:
       Occupied  (A) (A) (A) (A) (A) (A) (A) (A) (A) (A) (A) (A)
                 (A) (A) (A) (A) (A) (A) (A) (A) (A) (A) (A) (A)
                 (A) (A) (A) (A) (A) (A) (A) (A) (A) (A) (A) (A)
                 (A) (A) (A) (A) (A) (A) (A) (A) (A) (A) (A) (A)
                 (A) (A) (A) (A) (A) (A) (A) (A) (A) (A) (A) (A)
                 (A) (A) (A) (A)
       Virtual   (A) (A) (A) (A) (A) (A) (A) (A) (A) (A) (A) (A)
                 (A) (A) (A) (A) (A) (A) (A) (A) (A) (A) (A) (A)
                 (A) (A) (A) (A) (A) (A) (A) (A) (A) (A) (A) (A)
                 (A) (A) (A) (A) (A) (A) (A) (A) (A) (A) (A) (A)
                 (A) (A) (A) (A) (A) (A) (A) (A) (A) (A) (A) (A)
                 (A) (A) (A) (A) (A) (A) (A) (A) (A) (A) (A) (A)
                 (A) (A) (A) (A) (A) (A) (A) (A) (A) (A) (A) (A)
                 (A) (A) (A) (A) (A) (A) (A) (A) (A) (A) (A) (A)
                 (A) (A) (A) (A) (A) (A) (A) (A) (A) (A) (A) (A)
                 (A) (A) (A) (A) (A) (A) (A) (A) (A) (A) (A) (A)
                 (A) (A) (A) (A) (A) (A) (A) (A) (A) (A) (A) (A)
                 (A) (A) (A) (A) (A) (A) (A) (A) (A) (A) (A) (A)
                 (A) (A) (A) (A) (A) (A) (A) (A) (A) (A) (A) (A)
                 (A) (A) (A) (A) (A) (A) (A) (A) (A) (A) (A) (A)
                 (A) (A) (A) (A) (A) (A) (A) (A) (A) (A) (A) (A)
                 (A) (A) (A) (A) (A) (A) (A) (A) (A) (A) (A) (A)
                 (A) (A) (A) (A) (A) (A) (A) (A) (A) (A) (A) (A)
                 (A) (A) (A) (A) (A) (A) (A) (A) (A) (A) (A) (A)
                 (A) (A) (A) (A) (A) (A) (A) (A) (A) (A) (A) (A)
                 (A) (A) (A) (A) (A) (A) (A) (A) (A) (A) (A) (A)
                 (A) (A) (A) (A) (A) (A) (A) (A) (A) (A) (A) (A)
                 (A) (A) (A) (A) (A) (A) (A) (A) (A) (A) (A) (A)
                 (A) (A) (A) (A) (A) (A) (A) (A) (A) (A) (A) (A)
                 (A) (A) (A) (A) (A) (A) (A) (A) (A) (A) (A) (A)
                 (A) (A) (A) (A) (A) (A) (A) (A) (A) (A) (A) (A)
                 (A) (A) (A) (A) (A) (A) (A) (A) (A) (A) (A) (A)
                 (A) (A) (A) (A) (A) (A) (A) (A) (A) (A) (A) (A)
                 (A) (A) (A) (A) (A) (A) (A) (A) (A) (A) (A) (A)
                 (A) (A) (A) (A) (A) (A) (A) (A) (A) (A) (A) (A)
                 (A) (A) (A) (A) (A) (A) (A) (A) (A) (A) (A) (A)
                 (A) (A) (A) (A) (A) (A) (A) (A) (A) (A) (A) (A)
                 (A) (A) (A) (A) (A) (A) (A) (A) (A) (A) (A) (A)
                 (A) (A) (A) (A) (A) (A) (A) (A) (A) (A) (A) (A)
                 (A) (A) (A) (A) (A) (A) (A) (A) (A) (A) (A) (A)
                 (A) (A) (A) (A) (A) (A) (A) (A) (A) (A) (A) (A)
                 (A) (A) (A) (A) (A) (A)
 The electronic state is 1-A.
 Alpha  occ. eigenvalues --  -19.15884 -19.12379 -19.12170 -19.10312 -19.02909
 Alpha  occ. eigenvalues --  -19.02785 -14.31039 -14.19648 -10.19279 -10.18262
 Alpha  occ. eigenvalues --  -10.17834 -10.17550 -10.17280 -10.17265 -10.16755
 Alpha  occ. eigenvalues --  -10.16451 -10.10474  -0.99740  -0.97052  -0.95173
 Alpha  occ. eigenvalues --   -0.93391  -0.93028  -0.90300  -0.84772  -0.72476
 Alpha  occ. eigenvalues --   -0.70706  -0.69152  -0.65102  -0.58958  -0.53836
 Alpha  occ. eigenvalues --   -0.51420  -0.50582  -0.49281  -0.46362  -0.44254
 Alpha  occ. eigenvalues --   -0.42924  -0.41894  -0.40023  -0.38533  -0.37286
 Alpha  occ. eigenvalues --   -0.37044  -0.34611  -0.33959  -0.32532  -0.31892
 Alpha  occ. eigenvalues --   -0.30701  -0.29559  -0.29376  -0.27963  -0.27369
 Alpha  occ. eigenvalues --   -0.26633  -0.25152  -0.24361  -0.23698  -0.21872
 Alpha  occ. eigenvalues --   -0.20428  -0.18660  -0.17756  -0.16676  -0.14062
 Alpha  occ. eigenvalues --   -0.11119  -0.10968  -0.09045  -0.08864
 Alpha virt. eigenvalues --    0.06812   0.08371   0.08748   0.09794   0.11105
 Alpha virt. eigenvalues --    0.11134   0.11570   0.11897   0.12406   0.13104
 Alpha virt. eigenvalues --    0.14083   0.14617   0.15459   0.15669   0.16191
 Alpha virt. eigenvalues --    0.16583   0.16598   0.17095   0.17658   0.18038
 Alpha virt. eigenvalues --    0.18582   0.19075   0.19214   0.19408   0.19542
 Alpha virt. eigenvalues --    0.19900   0.20313   0.20528   0.21220   0.21351
 Alpha virt. eigenvalues --    0.22131   0.22335   0.22899   0.23120   0.23397
 Alpha virt. eigenvalues --    0.24167   0.24364   0.24615   0.25532   0.25803
 Alpha virt. eigenvalues --    0.26138   0.26732   0.27405   0.27834   0.28026
 Alpha virt. eigenvalues --    0.28461   0.28916   0.29728   0.30159   0.30642
 Alpha virt. eigenvalues --    0.30781   0.31087   0.31149   0.31655   0.31832
 Alpha virt. eigenvalues --    0.32634   0.33058   0.33391   0.33567   0.33847
 Alpha virt. eigenvalues --    0.34371   0.34721   0.35084   0.35708   0.36268
 Alpha virt. eigenvalues --    0.36283   0.36618   0.36809   0.37051   0.37720
 Alpha virt. eigenvalues --    0.38005   0.38158   0.38451   0.38569   0.39098
 Alpha virt. eigenvalues --    0.39457   0.39792   0.39942   0.40761   0.41184
 Alpha virt. eigenvalues --    0.41754   0.41934   0.42375   0.42717   0.42859
 Alpha virt. eigenvalues --    0.43714   0.43960   0.44319   0.44954   0.45193
 Alpha virt. eigenvalues --    0.45433   0.46075   0.46659   0.47438   0.47688
 Alpha virt. eigenvalues --    0.47894   0.48158   0.49235   0.49682   0.50176
 Alpha virt. eigenvalues --    0.50774   0.51010   0.51646   0.51750   0.52147
 Alpha virt. eigenvalues --    0.52657   0.53344   0.53563   0.53660   0.54275
 Alpha virt. eigenvalues --    0.54499   0.55501   0.55849   0.56172   0.56526
 Alpha virt. eigenvalues --    0.57927   0.58149   0.58967   0.59036   0.59310
 Alpha virt. eigenvalues --    0.60216   0.60841   0.61815   0.61953   0.63011
 Alpha virt. eigenvalues --    0.63580   0.64231   0.64665   0.65812   0.66131
 Alpha virt. eigenvalues --    0.66663   0.66880   0.67203   0.67736   0.68561
 Alpha virt. eigenvalues --    0.69009   0.69405   0.69853   0.70601   0.70823
 Alpha virt. eigenvalues --    0.72049   0.73161   0.73294   0.73530   0.73726
 Alpha virt. eigenvalues --    0.74301   0.74583   0.74986   0.75591   0.76060
 Alpha virt. eigenvalues --    0.76855   0.77335   0.77864   0.78177   0.78351
 Alpha virt. eigenvalues --    0.79093   0.79846   0.80327   0.80647   0.81256
 Alpha virt. eigenvalues --    0.81704   0.82592   0.82615   0.83594   0.84186
 Alpha virt. eigenvalues --    0.84808   0.85853   0.86148   0.86775   0.86794
 Alpha virt. eigenvalues --    0.87563   0.87995   0.89094   0.89356   0.90260
 Alpha virt. eigenvalues --    0.90833   0.91633   0.91985   0.92430   0.93497
 Alpha virt. eigenvalues --    0.94710   0.95160   0.95547   0.95705   0.96602
 Alpha virt. eigenvalues --    0.97299   0.98305   0.99019   0.99541   1.00571
 Alpha virt. eigenvalues --    1.00645   1.01994   1.02721   1.03674   1.04366
 Alpha virt. eigenvalues --    1.04436   1.05129   1.06865   1.07554   1.08661
 Alpha virt. eigenvalues --    1.08795   1.09735   1.10858   1.12518   1.12634
 Alpha virt. eigenvalues --    1.12955   1.13878   1.14536   1.15868   1.16769
 Alpha virt. eigenvalues --    1.18187   1.18795   1.20470   1.20743   1.21067
 Alpha virt. eigenvalues --    1.22326   1.23062   1.23747   1.23811   1.25185
 Alpha virt. eigenvalues --    1.26020   1.27320   1.27611   1.28497   1.29500
 Alpha virt. eigenvalues --    1.29663   1.31234   1.31685   1.32753   1.33951
 Alpha virt. eigenvalues --    1.34459   1.35561   1.36464   1.36815   1.38767
 Alpha virt. eigenvalues --    1.39980   1.40872   1.41373   1.42458   1.43201
 Alpha virt. eigenvalues --    1.44866   1.45364   1.46824   1.46934   1.47765
 Alpha virt. eigenvalues --    1.48898   1.50529   1.51792   1.52748   1.53322
 Alpha virt. eigenvalues --    1.53752   1.55038   1.55431   1.55846   1.57960
 Alpha virt. eigenvalues --    1.58586   1.59244   1.61108   1.62707   1.63604
 Alpha virt. eigenvalues --    1.64268   1.64857   1.65927   1.66965   1.67154
 Alpha virt. eigenvalues --    1.68904   1.69616   1.69940   1.70436   1.71342
 Alpha virt. eigenvalues --    1.71802   1.74194   1.75025   1.77474   1.78383
 Alpha virt. eigenvalues --    1.78414   1.79105   1.81635   1.81911   1.82155
 Alpha virt. eigenvalues --    1.82853   1.84206   1.86278   1.86824   1.87747
 Alpha virt. eigenvalues --    1.88345   1.89288   1.90550   1.91847   1.92789
 Alpha virt. eigenvalues --    1.93244   1.93784   1.94955   1.96826   1.97075
 Alpha virt. eigenvalues --    1.98275   1.98593   1.99674   2.00617   2.02045
 Alpha virt. eigenvalues --    2.03738   2.04205   2.04263   2.06173   2.07036
 Alpha virt. eigenvalues --    2.08960   2.09520   2.10804   2.11560   2.12815
 Alpha virt. eigenvalues --    2.13343   2.14160   2.14973   2.17154   2.17641
 Alpha virt. eigenvalues --    2.19588   2.19986   2.21784   2.22230   2.22726
 Alpha virt. eigenvalues --    2.24176   2.24851   2.25584   2.26268   2.26434
 Alpha virt. eigenvalues --    2.27800   2.29629   2.31542   2.32639   2.34587
 Alpha virt. eigenvalues --    2.36256   2.36644   2.37376   2.39034   2.39898
 Alpha virt. eigenvalues --    2.40242   2.41584   2.42567   2.43526   2.44057
 Alpha virt. eigenvalues --    2.47048   2.47626   2.49494   2.51006   2.52753
 Alpha virt. eigenvalues --    2.53673   2.55119   2.56894   2.57843   2.58114
 Alpha virt. eigenvalues --    2.59183   2.60530   2.61171   2.63180   2.63942
 Alpha virt. eigenvalues --    2.65949   2.67921   2.69243   2.71080   2.71425
 Alpha virt. eigenvalues --    2.71923   2.73132   2.75829   2.76864   2.78846
 Alpha virt. eigenvalues --    2.80608   2.83131   2.83282   2.84695   2.87290
 Alpha virt. eigenvalues --    2.89369   2.91214   2.92200   2.96625   2.99240
 Alpha virt. eigenvalues --    3.00864   3.04100   3.04785   3.07149   3.09732
 Alpha virt. eigenvalues --    3.11249   3.16067   3.16811   3.20852   3.29369
 Alpha virt. eigenvalues --    3.33105   3.36105   3.40585   3.44293   3.45272
 Alpha virt. eigenvalues --    3.52333   3.54242   3.55012   3.56597   3.56863
 Alpha virt. eigenvalues --    3.58996   3.60041   3.61054   3.61600   3.63011
 Alpha virt. eigenvalues --    3.64067   3.66413   3.68972   3.70668   3.72137
 Alpha virt. eigenvalues --    3.72901   3.74508   3.77130   3.78065   3.79438
 Alpha virt. eigenvalues --    3.80361   3.83221   3.86010   3.88018   3.88771
 Alpha virt. eigenvalues --    3.92165   3.94075   4.00598   4.03671   4.10105
 Alpha virt. eigenvalues --    4.15237   4.17516   4.22116   4.34856   4.36450
 Alpha virt. eigenvalues --    5.06345
          Condensed to atoms (all electrons):
               1          2          3          4          5          6
     1  C   12.013332  -4.147471   1.178082   0.286202   0.441717  -0.159807
     2  C   -4.147471  10.865289  -3.491798  -0.706222  -0.798883   0.255728
     3  C    1.178082  -3.491798  17.647732   0.316594   0.130700  -0.359286
     4  O    0.286202  -0.706222   0.316594   8.850530  -0.124875   0.012554
     5  H    0.441717  -0.798883   0.130700  -0.124875   1.973307  -0.001208
     6  O   -0.159807   0.255728  -0.359286   0.012554  -0.001208   9.479263
     7  H    0.104593   0.428376  -1.258492  -0.030122   0.069897  -0.115239
     8  C    0.278723   0.567991  -3.531620   0.004501  -0.295611  -0.079033
     9  C   -2.931239   1.544194  -2.667637  -0.089035   0.246183  -0.359397
    10  H   -1.309167   0.772818  -0.222763  -0.018727  -0.196585   0.128554
    11  O   -0.927779   0.436431   0.072464  -0.070655  -0.062537   0.006040
    12  C   -0.155515  -0.253388   0.524489   0.030958   0.002703   0.009173
    13  H    0.467254  -0.205864   0.205494   0.023561   0.003679  -0.032879
    14  O   -0.083906   0.035794  -0.023904  -0.000592  -0.005408  -0.025682
    15  H   -0.027114   0.092324  -0.011726  -0.000524   0.002098   0.102328
    16  H   -0.053265  -0.022610  -0.027296   0.001493   0.000493  -0.080233
    17  H    0.411409  -0.277231   0.037443   0.016710   0.025094  -0.007602
    18  H   -0.221064   0.195910  -0.112166   0.268380  -0.014270   0.014597
    19  H   -0.016087   0.011793  -0.037425  -0.001086   0.001845   0.032912
    20  C    0.311494  -0.500468  -1.311866  -0.014865   0.014235   0.001454
    21  N   -0.009434   0.005521   0.091976   0.000007   0.001082  -0.013445
    22  C   -0.014905   0.008585  -0.408940   0.002542  -0.005956  -0.010163
    23  N   -0.038810   0.025925   0.500909   0.000328   0.002603  -0.000758
    24  C   -0.170507   0.204670  -2.528138  -0.037870  -0.033509   0.089601
    25  H   -0.034755   0.145350   0.156912  -0.009819   0.010567   0.044860
    26  H    0.003103  -0.008631  -0.051536   0.000143  -0.000998  -0.001384
    27  O   -0.000178   0.000506   0.027694  -0.000031  -0.000338   0.000218
    28  O    0.018981   0.008702   0.111102  -0.002486   0.027087  -0.015752
               7          8          9         10         11         12
     1  C    0.104593   0.278723  -2.931239  -1.309167  -0.927779  -0.155515
     2  C    0.428376   0.567991   1.544194   0.772818   0.436431  -0.253388
     3  C   -1.258492  -3.531620  -2.667637  -0.222763   0.072464   0.524489
     4  O   -0.030122   0.004501  -0.089035  -0.018727  -0.070655   0.030958
     5  H    0.069897  -0.295611   0.246183  -0.196585  -0.062537   0.002703
     6  O   -0.115239  -0.079033  -0.359397   0.128554   0.006040   0.009173
     7  H    2.208917   0.300214   0.111303  -0.020184  -0.013763  -0.009553
     8  C    0.300214  14.260656   0.060000   0.005950  -0.046188  -0.221939
     9  C    0.111303   0.060000  11.489682  -0.585944   0.208043  -0.407554
    10  H   -0.020184   0.005950  -0.585944   2.782857  -0.011505  -0.005484
    11  O   -0.013763  -0.046188   0.208043  -0.011505   8.730786   0.008604
    12  C   -0.009553  -0.221939  -0.407554  -0.005484   0.008604   5.170090
    13  H    0.015920  -0.023597  -1.191638   0.139727  -0.048949  -0.032579
    14  O    0.000061   0.006953   0.037192   0.039960   0.011297   0.057093
    15  H   -0.003234  -0.001268  -0.212683  -0.014491   0.027594   0.147166
    16  H   -0.003536   0.023575   0.411647   0.020164   0.000416   0.045568
    17  H    0.004657   0.003613  -0.029369  -0.191585   0.275747   0.000686
    18  H   -0.013839   0.011365   0.031882   0.042202   0.054851  -0.005116
    19  H    0.001756   0.026265   0.008674  -0.007800  -0.000160  -0.036802
    20  C    0.030887  -4.372196  -0.203270   0.028632  -0.001927  -0.091771
    21  N   -0.002764   0.217980   0.004516  -0.001748   0.000012   0.006454
    22  C    0.005187   0.544111  -0.000196   0.001252   0.000410  -0.005092
    23  N    0.007293   0.372424   0.038981  -0.004943   0.000750   0.002243
    24  C   -0.126830  -3.523173  -0.162246   0.101044   0.008257   0.009665
    25  H   -0.085200   0.336632   0.064116  -0.000282  -0.000327  -0.002796
    26  H   -0.002922   0.016275  -0.003585   0.000352   0.000003   0.000170
    27  O    0.000903   0.067825   0.000316   0.000144  -0.000001   0.000188
    28  O    0.011825  -0.051812  -0.000007   0.012594  -0.000853   0.006610
              13         14         15         16         17         18
     1  C    0.467254  -0.083906  -0.027114  -0.053265   0.411409  -0.221064
     2  C   -0.205864   0.035794   0.092324  -0.022610  -0.277231   0.195910
     3  C    0.205494  -0.023904  -0.011726  -0.027296   0.037443  -0.112166
     4  O    0.023561  -0.000592  -0.000524   0.001493   0.016710   0.268380
     5  H    0.003679  -0.005408   0.002098   0.000493   0.025094  -0.014270
     6  O   -0.032879  -0.025682   0.102328  -0.080233  -0.007602   0.014597
     7  H    0.015920   0.000061  -0.003234  -0.003536   0.004657  -0.013839
     8  C   -0.023597   0.006953  -0.001268   0.023575   0.003613   0.011365
     9  C   -1.191638   0.037192  -0.212683   0.411647  -0.029369   0.031882
    10  H    0.139727   0.039960  -0.014491   0.020164  -0.191585   0.042202
    11  O   -0.048949   0.011297   0.027594   0.000416   0.275747   0.054851
    12  C   -0.032579   0.057093   0.147166   0.045568   0.000686  -0.005116
    13  H    2.281504   0.017845  -0.086992  -0.027239  -0.013717   0.006969
    14  O    0.017845   8.440894  -0.124811  -0.051193  -0.003267   0.000588
    15  H   -0.086992  -0.124811   1.680295  -0.324169  -0.005680   0.002097
    16  H   -0.027239  -0.051193  -0.324169   1.361648  -0.000189  -0.000828
    17  H   -0.013717  -0.003267  -0.005680  -0.000189   0.621413  -0.018963
    18  H    0.006969   0.000588   0.002097  -0.000828  -0.018963   0.612289
    19  H    0.000428   0.231201   0.022802  -0.039400  -0.000505   0.000134
    20  C    0.014310  -0.000624  -0.006863   0.002763   0.001082  -0.007104
    21  N   -0.000748  -0.000061   0.000330   0.000194   0.000013   0.000019
    22  C   -0.000072  -0.000124  -0.000384   0.000254  -0.000151   0.000123
    23  N    0.000032  -0.003430   0.000228   0.000364  -0.000382  -0.000203
    24  C    0.005937   0.015591  -0.004754  -0.003879  -0.009152   0.008354
    25  H    0.003694  -0.000351   0.000371   0.000320  -0.000497   0.001873
    26  H   -0.000031   0.000019  -0.000027   0.000049   0.000018  -0.000010
    27  O   -0.000026   0.000002   0.000019  -0.000010  -0.000008   0.000007
    28  O    0.002380  -0.016898   0.003316  -0.001290  -0.000291  -0.001011
              19         20         21         22         23         24
     1  C   -0.016087   0.311494  -0.009434  -0.014905  -0.038810  -0.170507
     2  C    0.011793  -0.500468   0.005521   0.008585   0.025925   0.204670
     3  C   -0.037425  -1.311866   0.091976  -0.408940   0.500909  -2.528138
     4  O   -0.001086  -0.014865   0.000007   0.002542   0.000328  -0.037870
     5  H    0.001845   0.014235   0.001082  -0.005956   0.002603  -0.033509
     6  O    0.032912   0.001454  -0.013445  -0.010163  -0.000758   0.089601
     7  H    0.001756   0.030887  -0.002764   0.005187   0.007293  -0.126830
     8  C    0.026265  -4.372196   0.217980   0.544111   0.372424  -3.523173
     9  C    0.008674  -0.203270   0.004516  -0.000196   0.038981  -0.162246
    10  H   -0.007800   0.028632  -0.001748   0.001252  -0.004943   0.101044
    11  O   -0.000160  -0.001927   0.000012   0.000410   0.000750   0.008257
    12  C   -0.036802  -0.091771   0.006454  -0.005092   0.002243   0.009665
    13  H    0.000428   0.014310  -0.000748  -0.000072   0.000032   0.005937
    14  O    0.231201  -0.000624  -0.000061  -0.000124  -0.003430   0.015591
    15  H    0.022802  -0.006863   0.000330  -0.000384   0.000228  -0.004754
    16  H   -0.039400   0.002763   0.000194   0.000254   0.000364  -0.003879
    17  H   -0.000505   0.001082   0.000013  -0.000151  -0.000382  -0.009152
    18  H    0.000134  -0.007104   0.000019   0.000123  -0.000203   0.008354
    19  H    0.584923  -0.002974   0.000615   0.001137   0.002639  -0.026595
    20  C   -0.002974  15.094586  -0.880562  -0.554464   0.070420  -1.197202
    21  N    0.000615  -0.880562   7.390029  -0.063938   0.025730   0.225114
    22  C    0.001137  -0.554464  -0.063938   6.367590  -0.074935  -0.371348
    23  N    0.002639   0.070420   0.025730  -0.074935   8.560188  -1.416799
    24  C   -0.026595  -1.197202   0.225114  -0.371348  -1.416799  14.575663
    25  H    0.000533  -1.262694   0.195695  -0.010281   0.003265  -0.003469
    26  H   -0.000293  -0.211170   0.426420  -0.203335   0.002975   0.040074
    27  O    0.000018  -0.039334  -0.086728   0.102724  -0.118701   0.061525
    28  O    0.043422  -0.101894  -0.002771   0.035926  -0.199658   0.042021
              25         26         27         28
     1  C   -0.034755   0.003103  -0.000178   0.018981
     2  C    0.145350  -0.008631   0.000506   0.008702
     3  C    0.156912  -0.051536   0.027694   0.111102
     4  O   -0.009819   0.000143  -0.000031  -0.002486
     5  H    0.010567  -0.000998  -0.000338   0.027087
     6  O    0.044860  -0.001384   0.000218  -0.015752
     7  H   -0.085200  -0.002922   0.000903   0.011825
     8  C    0.336632   0.016275   0.067825  -0.051812
     9  C    0.064116  -0.003585   0.000316  -0.000007
    10  H   -0.000282   0.000352   0.000144   0.012594
    11  O   -0.000327   0.000003  -0.000001  -0.000853
    12  C   -0.002796   0.000170   0.000188   0.006610
    13  H    0.003694  -0.000031  -0.000026   0.002380
    14  O   -0.000351   0.000019   0.000002  -0.016898
    15  H    0.000371  -0.000027   0.000019   0.003316
    16  H    0.000320   0.000049  -0.000010  -0.001290
    17  H   -0.000497   0.000018  -0.000008  -0.000291
    18  H    0.001873  -0.000010   0.000007  -0.001011
    19  H    0.000533  -0.000293   0.000018   0.043422
    20  C   -1.262694  -0.211170  -0.039334  -0.101894
    21  N    0.195695   0.426420  -0.086728  -0.002771
    22  C   -0.010281  -0.203335   0.102724   0.035926
    23  N    0.003265   0.002975  -0.118701  -0.199658
    24  C   -0.003469   0.040074   0.061525   0.042021
    25  H    2.270386  -0.061414   0.000832  -0.001923
    26  H   -0.061414   1.181469  -0.009813   0.001523
    27  O    0.000832  -0.009813   8.693058  -0.005416
    28  O   -0.001923   0.001523  -0.005416   8.896306
 Mulliken charges:
               1
     1  C    0.786113
     2  C    0.806658
     3  C    1.043004
     4  O   -0.707596
     5  H   -0.413115
     6  O   -0.915416
     7  H   -0.616111
     8  C    1.041382
     9  C    0.587072
    10  H   -0.485042
    11  O   -0.657061
    12  C    1.205729
    13  H   -0.524402
    14  O   -0.554242
    15  H   -0.256248
    16  H   -0.233809
    17  H    0.160701
    18  H    0.142932
    19  H    0.198028
    20  C    1.191384
    21  N   -0.529507
    22  C    0.654441
    23  N   -0.758677
    24  C    0.227956
    25  H   -0.761599
    26  H   -0.117444
    27  O   -0.695396
    28  O   -0.819735
 Sum of Mulliken charges =  -1.00000
 Mulliken charges with hydrogens summed into heavy atoms:
               1
     1  C    0.301071
     2  C    0.393543
     3  C    0.426893
     4  O   -0.564664
     6  O   -0.915416
     8  C    1.041382
     9  C    0.062670
    11  O   -0.496360
    12  C    0.715673
    14  O   -0.356214
    20  C    0.429784
    21  N   -0.646952
    22  C    0.654441
    23  N   -0.758677
    24  C    0.227956
    27  O   -0.695396
    28  O   -0.819735
 Electronic spatial extent (au):  <R**2>=           4280.2880
 Charge=             -1.0000 electrons
 Dipole moment (field-independent basis, Debye):
    X=              9.3544    Y=             -6.3674    Z=              2.8616  Tot=             11.6721
 Quadrupole moment (field-independent basis, Debye-Ang):
   XX=           -153.2030   YY=           -121.6745   ZZ=           -101.5023
   XY=             15.3057   XZ=            -17.9447   YZ=              4.7818
 Traceless Quadrupole moment (field-independent basis, Debye-Ang):
   XX=            -27.7431   YY=              3.7854   ZZ=             23.9576
   XY=             15.3057   XZ=            -17.9447   YZ=              4.7818
 Octapole moment (field-independent basis, Debye-Ang**2):
  XXX=            264.4159  YYY=            -16.0170  ZZZ=            -13.1585  XYY=            -14.3826
  XXY=            -70.6961  XXZ=             34.6742  XZZ=             29.2984  YZZ=            -12.8625
  YYZ=             15.0302  XYZ=              0.6960
 Hexadecapole moment (field-independent basis, Debye-Ang**3):
 XXXX=          -5282.9879 YYYY=          -1273.8579 ZZZZ=           -473.1688 XXXY=            269.9317
 XXXZ=           -289.6332 YYYX=            -19.4472 YYYZ=             10.2165 ZZZX=            -76.7626
 ZZZY=             15.6526 XXYY=           -904.8739 XXZZ=           -689.6637 YYZZ=           -263.5489
 XXYZ=             25.9657 YYXZ=            -33.3008 ZZXY=             13.6457
 N-N= 1.300100301312D+03 E-N=-4.750501742786D+03  KE= 9.049212376564D+02
 Calling FoFJK, ICntrl=      2127 FMM=F ISym2X=0 I1Cent= 0 IOpClX= 0 NMat=1 NMatS=1 NMatT=0.
 ***** Axes restored to original set *****
 -------------------------------------------------------------------
 Center     Atomic                   Forces (Hartrees/Bohr)
 Number     Number              X              Y              Z
 -------------------------------------------------------------------
      1        6          -0.004981297    0.000501775    0.000817354
      2        6          -0.003061459    0.006645700    0.000856107
      3        6          -0.010730025   -0.003879065   -0.001998264
      4        8           0.005473812   -0.005936922   -0.000347488
      5        1           0.000119418    0.000721978    0.001321600
      6        8           0.010505553    0.002463917    0.001542265
      7        1           0.002101421   -0.000983689    0.001169638
      8        6           0.012336292   -0.003906956    0.002416937
      9        6          -0.007132663   -0.000197596    0.001467308
     10        1          -0.001537832   -0.000331767    0.000512745
     11        8           0.007399520   -0.001766999   -0.002293364
     12        6          -0.002285043    0.001304382   -0.002967529
     13        1           0.001690280   -0.000847791    0.000537163
     14        8           0.006188990    0.001113004    0.003142830
     15        1           0.001252691    0.000143452   -0.000141874
     16        1          -0.000160268   -0.000053913    0.001085662
     17        1          -0.001438663    0.000158311    0.000860604
     18        1          -0.001192102    0.000504165    0.000102265
     19        1          -0.006969104   -0.003281743   -0.003630991
     20        6          -0.004997307   -0.000869791    0.000584777
     21        7          -0.005374384   -0.019016445    0.014383050
     22        6           0.073347396    0.027053302   -0.020989090
     23        7           0.001623810    0.004644845   -0.003805315
     24        6          -0.077842242   -0.007167622    0.006339300
     25        1           0.000179661   -0.001142956    0.000869577
     26        1           0.001919945   -0.003288348    0.002437419
     27        8          -0.032802583   -0.004561770    0.003638497
     28        8           0.036366183    0.011978544   -0.007911182
 -------------------------------------------------------------------
 Cartesian Forces:  Max     0.077842242 RMS     0.014173672

 GradGradGradGradGradGradGradGradGradGradGradGradGradGradGradGradGradGrad
 Berny optimization.
 FormGI is forming the generalized inverse of G from B-inverse, IUseBI=4.
 Internal  Forces:  Max     0.035458144 RMS     0.007033910
 Search for a local minimum.
 Step number   1 out of a maximum of  166
 All quantities printed in internal units (Hartrees-Bohrs-Radians)
 Mixed Optimization -- RFO/linear search
 Second derivative matrix not updated -- first step.
 ITU=  0
     Eigenvalues ---    0.00382   0.00569   0.00806   0.00937   0.01421
     Eigenvalues ---    0.01439   0.01518   0.01551   0.01573   0.01692
     Eigenvalues ---    0.01927   0.01940   0.02030   0.02282   0.02468
     Eigenvalues ---    0.03103   0.03746   0.04359   0.04875   0.04945
     Eigenvalues ---    0.04991   0.05457   0.05562   0.06075   0.06103
     Eigenvalues ---    0.06165   0.06507   0.08006   0.08354   0.10148
     Eigenvalues ---    0.11650   0.13194   0.14013   0.15788   0.15999
     Eigenvalues ---    0.16000   0.16000   0.16000   0.16000   0.17176
     Eigenvalues ---    0.19205   0.19519   0.22083   0.22442   0.24449
     Eigenvalues ---    0.24997   0.25000   0.25000   0.25000   0.26450
     Eigenvalues ---    0.27718   0.28950   0.30868   0.32693   0.33103
     Eigenvalues ---    0.33237   0.33431   0.33510   0.33758   0.34196
     Eigenvalues ---    0.34875   0.36224   0.39312   0.40031   0.42395
     Eigenvalues ---    0.43900   0.44163   0.44264   0.46031   0.46667
     Eigenvalues ---    0.48192   0.50502   0.53425   0.53592   0.53834
     Eigenvalues ---    0.55381   0.93757   0.98028
 RFO step:  Lambda=-2.19378106D-02 EMin= 3.82431890D-03
 Linear search not attempted -- first point.
 Iteration  1 RMS(Cart)=  0.10498319 RMS(Int)=  0.00319682
 Iteration  2 RMS(Cart)=  0.00540776 RMS(Int)=  0.00013260
 Iteration  3 RMS(Cart)=  0.00001648 RMS(Int)=  0.00013227
 Iteration  4 RMS(Cart)=  0.00000000 RMS(Int)=  0.00013227
 Variable       Old X    -DE/DX   Delta X   Delta X   Delta X     New X
                                 (Linear)    (Quad)   (Total)
    R1        2.90714  -0.00168   0.00000  -0.00783  -0.00780   2.89934
    R2        2.88268  -0.00073   0.00000  -0.00337  -0.00333   2.87935
    R3        2.07000  -0.00007   0.00000  -0.00020  -0.00020   2.06981
    R4        2.68423   0.00629   0.00000   0.01410   0.01410   2.69833
    R5        2.91477  -0.00068   0.00000  -0.00082  -0.00079   2.91399
    R6        2.66574   0.00661   0.00000   0.01434   0.01434   2.68009
    R7        2.08165  -0.00119   0.00000  -0.00333  -0.00333   2.07832
    R8        2.69612   0.00296   0.00000   0.00865   0.00862   2.70474
    R9        2.08302   0.00147   0.00000   0.00413   0.00413   2.08714
   R10        2.82893  -0.00311   0.00000  -0.00891  -0.00891   2.82002
   R11        1.83105  -0.00111   0.00000  -0.00199  -0.00199   1.82906
   R12        2.68945  -0.00691   0.00000  -0.01591  -0.01599   2.67347
   R13        2.55620  -0.00558   0.00000  -0.00892  -0.00898   2.54722
   R14        2.75581   0.01349   0.00000   0.03324   0.03321   2.78902
   R15        2.86266  -0.00153   0.00000  -0.00462  -0.00462   2.85804
   R16        2.08870   0.00184   0.00000   0.00520   0.00520   2.09391
   R17        1.81495  -0.00100   0.00000  -0.00173  -0.00173   1.81322
   R18        2.66260  -0.00064   0.00000  -0.00139  -0.00139   2.66121
   R19        2.07741   0.00126   0.00000   0.00350   0.00350   2.08090
   R20        2.08637   0.00105   0.00000   0.00296   0.00296   2.08932
   R21        1.82883   0.00778   0.00000   0.01388   0.01388   1.84271
   R22        2.58487  -0.01261   0.00000  -0.02182  -0.02184   2.56302
   R23        2.05878   0.00145   0.00000   0.00391   0.00391   2.06268
   R24        2.61434   0.02314   0.00000   0.04660   0.04663   2.66098
   R25        1.90797   0.00118   0.00000   0.00245   0.00245   1.91042
   R26        2.60702  -0.01848   0.00000  -0.03702  -0.03696   2.57006
   R27        2.29439   0.02940   0.00000   0.02934   0.02934   2.32373
   R28        2.63427  -0.02307   0.00000  -0.04913  -0.04910   2.58517
   R29        2.31248   0.03546   0.00000   0.03695   0.03695   2.34944
    A1        1.80296   0.00013   0.00000   0.00290   0.00282   1.80577
    A2        1.92136  -0.00135   0.00000  -0.01875  -0.01879   1.90258
    A3        1.95316   0.00118   0.00000   0.01380   0.01381   1.96697
    A4        1.90985  -0.00069   0.00000  -0.00583  -0.00578   1.90408
    A5        1.92490   0.00051   0.00000   0.00481   0.00461   1.92951
    A6        1.94628   0.00018   0.00000   0.00263   0.00270   1.94899
    A7        1.80503  -0.00063   0.00000   0.00120   0.00112   1.80615
    A8        1.93208  -0.00020   0.00000   0.00066   0.00046   1.93254
    A9        1.95199  -0.00064   0.00000  -0.01337  -0.01338   1.93861
   A10        1.90036   0.00206   0.00000   0.02137   0.02146   1.92181
   A11        1.94701  -0.00058   0.00000  -0.01317  -0.01337   1.93364
   A12        1.92398   0.00004   0.00000   0.00395   0.00401   1.92799
   A13        1.87348  -0.00058   0.00000  -0.00690  -0.00738   1.86610
   A14        1.85528  -0.00039   0.00000   0.00085   0.00101   1.85628
   A15        2.02370  -0.00246   0.00000  -0.02023  -0.02056   2.00314
   A16        1.91444   0.00003   0.00000   0.00409   0.00427   1.91871
   A17        1.89743  -0.00056   0.00000  -0.01873  -0.01924   1.87819
   A18        1.89765   0.00399   0.00000   0.04181   0.04197   1.93962
   A19        1.84751  -0.00121   0.00000  -0.00664  -0.00664   1.84087
   A20        1.92185  -0.00013   0.00000   0.01057   0.01053   1.93238
   A21        2.12737   0.00133   0.00000   0.00403   0.00408   2.13145
   A22        2.09348  -0.00370   0.00000  -0.01449  -0.01444   2.07904
   A23        2.06225   0.00237   0.00000   0.01041   0.01031   2.07256
   A24        1.82931   0.00145   0.00000   0.00401   0.00368   1.83299
   A25        2.00090  -0.00217   0.00000  -0.01693  -0.01700   1.98390
   A26        1.90203   0.00030   0.00000   0.00782   0.00782   1.90985
   A27        1.88263  -0.00230   0.00000  -0.01960  -0.01967   1.86295
   A28        1.93259   0.00058   0.00000   0.00650   0.00653   1.93912
   A29        1.91477   0.00211   0.00000   0.01762   0.01774   1.93251
   A30        1.89904  -0.00243   0.00000  -0.01333  -0.01333   1.88571
   A31        1.97231  -0.00368   0.00000  -0.01592  -0.01593   1.95638
   A32        1.89908   0.00201   0.00000   0.01070   0.01072   1.90980
   A33        1.88893  -0.00043   0.00000  -0.00531  -0.00531   1.88363
   A34        1.87352   0.00042   0.00000   0.00017   0.00020   1.87372
   A35        1.94381   0.00213   0.00000   0.00968   0.00961   1.95342
   A36        1.88387  -0.00029   0.00000   0.00164   0.00164   1.88551
   A37        1.89340   0.00244   0.00000   0.01343   0.01343   1.90684
   A38        2.14070  -0.01105   0.00000  -0.03851  -0.03861   2.10210
   A39        2.12421   0.00553   0.00000   0.01927   0.01931   2.14352
   A40        2.01826   0.00552   0.00000   0.01924   0.01928   2.03755
   A41        2.15639  -0.00545   0.00000  -0.01568  -0.01568   2.14071
   A42        2.11682  -0.00144   0.00000  -0.01503  -0.01503   2.10180
   A43        2.00992   0.00689   0.00000   0.03073   0.03073   2.04065
   A44        1.97120   0.02130   0.00000   0.07938   0.07946   2.05066
   A45        2.14848  -0.02863   0.00000  -0.10579  -0.10583   2.04265
   A46        2.16350   0.00732   0.00000   0.02640   0.02635   2.18986
   A47        2.23368  -0.02428   0.00000  -0.09478  -0.09466   2.13902
   A48        2.00203   0.01710   0.00000   0.05907   0.05902   2.06105
   A49        2.19246  -0.02754   0.00000  -0.09934  -0.09937   2.09310
   A50        2.08869   0.01044   0.00000   0.04034   0.04031   2.12900
    D1        0.43063  -0.00010   0.00000   0.01077   0.01095   0.44157
    D2       -1.60228  -0.00205   0.00000  -0.01500  -0.01488  -1.61716
    D3        2.52799  -0.00150   0.00000  -0.01102  -0.01089   2.51710
    D4       -1.60733   0.00124   0.00000   0.02439   0.02443  -1.58290
    D5        2.64294  -0.00072   0.00000  -0.00138  -0.00139   2.64155
    D6        0.49003  -0.00016   0.00000   0.00261   0.00260   0.49263
    D7        2.50107   0.00116   0.00000   0.02491   0.02503   2.52611
    D8        0.46816  -0.00080   0.00000  -0.00086  -0.00080   0.46737
    D9       -1.68475  -0.00024   0.00000   0.00313   0.00320  -1.68155
   D10       -0.58268  -0.00033   0.00000   0.01315   0.01318  -0.56950
   D11       -2.64328   0.00272   0.00000   0.04377   0.04378  -2.59950
   D12        1.48661   0.00127   0.00000   0.02669   0.02671   1.51332
   D13        1.46339  -0.00213   0.00000  -0.00953  -0.00948   1.45391
   D14       -0.59721   0.00092   0.00000   0.02109   0.02111  -0.57609
   D15       -2.75050  -0.00052   0.00000   0.00401   0.00405  -2.74646
   D16       -2.67265  -0.00203   0.00000  -0.00696  -0.00693  -2.67958
   D17        1.54994   0.00102   0.00000   0.02366   0.02366   1.57361
   D18       -0.60336  -0.00042   0.00000   0.00658   0.00660  -0.59676
   D19        1.80212  -0.00078   0.00000  -0.01270  -0.01272   1.78940
   D20       -2.48446   0.00039   0.00000   0.00191   0.00193  -2.48253
   D21       -0.35874  -0.00001   0.00000  -0.00038  -0.00038  -0.35912
   D22       -0.13987  -0.00089   0.00000  -0.03200  -0.03192  -0.17179
   D23       -2.18760  -0.00044   0.00000  -0.03377  -0.03374  -2.22134
   D24        1.98458  -0.00370   0.00000  -0.07510  -0.07498   1.90960
   D25        1.91533  -0.00052   0.00000  -0.02102  -0.02093   1.89441
   D26       -0.13240  -0.00007   0.00000  -0.02280  -0.02274  -0.15514
   D27       -2.24341  -0.00333   0.00000  -0.06412  -0.06399  -2.30739
   D28       -2.24062   0.00055   0.00000  -0.01012  -0.01012  -2.25074
   D29        1.99483   0.00099   0.00000  -0.01189  -0.01193   1.98289
   D30       -0.11618  -0.00226   0.00000  -0.05322  -0.05318  -0.16935
   D31       -0.45062   0.00034   0.00000   0.00731   0.00737  -0.44325
   D32       -2.42365   0.00006   0.00000  -0.00635  -0.00637  -2.43002
   D33        1.71838  -0.00060   0.00000  -0.00654  -0.00658   1.71180
   D34       -0.23702   0.00099   0.00000   0.04189   0.04192  -0.19510
   D35        1.77168   0.00023   0.00000   0.04125   0.04127   1.81295
   D36       -2.43862   0.00475   0.00000   0.08316   0.08308  -2.35554
   D37        2.09399   0.00059   0.00000  -0.00342  -0.00366   2.09033
   D38       -1.06166   0.00044   0.00000  -0.00758  -0.00770  -1.06936
   D39       -2.07754  -0.00229   0.00000  -0.04081  -0.04069  -2.11824
   D40        1.04999  -0.00244   0.00000  -0.04496  -0.04473   1.00526
   D41        0.00587  -0.00026   0.00000  -0.02250  -0.02255  -0.01668
   D42        3.13340  -0.00041   0.00000  -0.02666  -0.02659   3.10681
   D43        0.51957  -0.00076   0.00000  -0.03492  -0.03501   0.48456
   D44        2.65889  -0.00370   0.00000  -0.06275  -0.06279   2.59610
   D45       -1.52894  -0.00221   0.00000  -0.04959  -0.04964  -1.57858
   D46       -3.13762   0.00007   0.00000   0.00352   0.00350  -3.13412
   D47        0.00050  -0.00005   0.00000  -0.00019  -0.00032   0.00018
   D48        0.01779   0.00026   0.00000   0.00780   0.00772   0.02550
   D49       -3.12728   0.00015   0.00000   0.00409   0.00390  -3.12338
   D50       -3.14024  -0.00029   0.00000  -0.00540  -0.00565   3.13729
   D51        0.00675  -0.00083   0.00000  -0.02113  -0.02085  -0.01410
   D52       -0.01219  -0.00044   0.00000  -0.00944  -0.00959  -0.02178
   D53        3.13480  -0.00098   0.00000  -0.02517  -0.02479   3.11001
   D54        0.85093  -0.00119   0.00000  -0.03124  -0.03113   0.81980
   D55       -1.22825  -0.00076   0.00000  -0.02870  -0.02855  -1.25680
   D56        3.01208  -0.00127   0.00000  -0.03354  -0.03338   2.97870
   D57       -1.17924  -0.00018   0.00000  -0.01315  -0.01333  -1.19257
   D58        3.02477   0.00024   0.00000  -0.01061  -0.01075   3.01402
   D59        0.98190  -0.00026   0.00000  -0.01545  -0.01558   0.96633
   D60        2.99739  -0.00073   0.00000  -0.01948  -0.01950   2.97789
   D61        0.91821  -0.00030   0.00000  -0.01694  -0.01692   0.90129
   D62       -1.12465  -0.00081   0.00000  -0.02179  -0.02175  -1.14640
   D63        0.66805  -0.00258   0.00000  -0.05409  -0.05413   0.61392
   D64        2.76195  -0.00203   0.00000  -0.05031  -0.05031   2.71165
   D65       -1.46261  -0.00093   0.00000  -0.04279  -0.04274  -1.50535
   D66       -0.01292   0.00002   0.00000   0.00061   0.00031  -0.01261
   D67        3.13978  -0.00011   0.00000  -0.00296  -0.00317   3.13661
   D68        3.13195   0.00012   0.00000   0.00411   0.00389   3.13584
   D69        0.00146  -0.00001   0.00000   0.00053   0.00041   0.00187
   D70        0.00202  -0.00023   0.00000  -0.00687  -0.00706  -0.00504
   D71       -3.13875  -0.00007   0.00000  -0.00240  -0.00250  -3.14126
   D72        3.13313  -0.00015   0.00000  -0.00374  -0.00395   3.12917
   D73       -0.00765   0.00000   0.00000   0.00073   0.00061  -0.00704
   D74        0.00298   0.00020   0.00000   0.00518   0.00544   0.00843
   D75       -3.13944   0.00002   0.00000   0.00060   0.00039  -3.13905
   D76        0.00209   0.00009   0.00000   0.00263   0.00246   0.00455
   D77        3.13864   0.00047   0.00000   0.01687   0.01752  -3.12703
         Item               Value     Threshold  Converged?
 Maximum Force            0.035458     0.000450     NO 
 RMS     Force            0.007034     0.000300     NO 
 Maximum Displacement     0.420140     0.001800     NO 
 RMS     Displacement     0.107906     0.001200     NO 
 Predicted change in Energy=-1.229739D-02
 GradGradGradGradGradGradGradGradGradGradGradGradGradGradGradGradGradGrad

                          Input orientation:                          
 ---------------------------------------------------------------------
 Center     Atomic      Atomic             Coordinates (Angstroms)
 Number     Number       Type             X           Y           Z
 ---------------------------------------------------------------------
      1          6           0        2.260412   -0.235073   -0.637297
      2          6           0        1.239473   -1.376971   -0.549423
      3          6           0        0.402972   -1.016461    0.694806
      4          8           0        1.892854   -2.620512   -0.354223
      5          1           0        0.606866   -1.411902   -1.448394
      6          8           0        1.072511    0.067406    1.347137
      7          1           0        0.410948   -1.909629    1.344452
      8          6           0       -0.992611   -0.575410    0.403671
      9          6           0        2.362698    0.260707    0.799839
     10          1           0        1.849069    0.563860   -1.263536
     11          8           0        3.535606   -0.671153   -1.109098
     12          6           0        2.666729    1.737966    0.912307
     13          1           0        3.120359   -0.338033    1.343188
     14          8           0        1.852109    2.512452    0.063931
     15          1           0        3.712542    1.919924    0.619500
     16          1           0        2.552646    2.029059    1.972802
     17          1           0        3.615522   -0.414143   -2.030091
     18          1           0        2.780592   -2.506424   -0.722638
     19          1           0        0.965979    2.108729    0.012493
     20          6           0       -2.066979   -1.233977    0.882150
     21          7           0       -3.320818   -0.807986    0.588970
     22          6           0       -3.571168    0.329938   -0.201776
     23          7           0       -2.495611    1.015526   -0.673784
     24          6           0       -1.207733    0.633202   -0.415606
     25          1           0       -1.984550   -2.124428    1.508033
     26          1           0       -4.126439   -1.304622    0.944421
     27          8           0       -4.748383    0.623188   -0.402386
     28          8           0       -0.232181    1.276630   -0.839887
 ---------------------------------------------------------------------
                    Distance matrix (angstroms):
                    1          2          3          4          5
     1  C    0.000000
     2  C    1.534265   0.000000
     3  C    2.415606   1.542015   0.000000
     4  O    2.430134   1.418240   2.427590   0.000000
     5  H    2.185640   1.099800   2.188894   2.076467   0.000000
     6  O    2.332506   2.389779   1.431288   3.285194   3.196901
     7  H    3.186218   2.134700   1.104470   2.363662   2.843608
     8  C    3.432434   2.555991   1.492293   3.617010   2.586154
     9  C    1.523686   2.400861   2.341520   3.139114   3.306830
    10  H    1.095295   2.156012   2.902364   3.311947   2.341128
    11  O    1.427895   2.466505   3.631351   2.658660   3.039959
    12  C    2.541506   3.725124   3.571942   4.604271   4.442704
    13  H    2.161580   2.863407   2.874866   3.098012   3.906888
    14  O    2.864843   3.984863   3.866681   5.150129   4.386150
    15  H    2.886561   4.283920   4.425074   4.987480   5.002247
    16  H    3.467610   4.437014   3.940757   5.241077   5.227893
    17  H    1.951477   2.960579   4.255389   3.262542   3.222718
    18  H    2.331717   1.918519   3.143599   0.967897   2.539643
    19  H    2.755212   3.541278   3.247975   4.833146   3.828576
    20  C    4.693916   3.605895   2.486578   4.373944   3.551414
    21  N    5.743003   4.734547   3.731122   5.599754   4.465676
    22  C    5.875052   5.116313   4.290738   6.211597   4.695107
    23  N    4.917833   4.437382   3.795233   5.708023   4.014697
    24  C    3.582049   3.169781   2.559057   4.494893   2.922648
    25  H    5.117793   3.896940   2.754848   4.329938   3.995447
    26  H    6.666156   5.570441   4.545427   6.296820   5.304833
    27  O    7.065055   6.314798   5.516225   7.391207   5.823609
    28  O    2.922209   3.048234   2.831425   4.465351   2.881403
                    6          7          8          9         10
     6  O    0.000000
     7  H    2.084788   0.000000
     8  C    2.359676   2.152949   0.000000
     9  C    1.414738   2.969224   3.480537   0.000000
    10  H    2.768596   3.871427   3.486067   2.147843   0.000000
    11  O    3.556038   4.161397   4.775185   2.426545   2.096071
    12  C    2.349761   4.310481   4.359035   1.512408   2.604109
    13  H    2.087601   3.132223   4.225584   1.108047   3.037202
    14  O    2.869257   4.824052   4.212213   2.423348   2.357793
    15  H    3.306212   5.107989   5.330266   2.146532   2.976116
    16  H    2.535812   4.527136   4.670577   2.130491   3.621563
    17  H    4.254934   4.888079   5.213837   3.167569   2.159734
    18  H    3.718348   3.200662   4.385710   3.185842   3.253759
    19  H    2.441234   4.269587   3.345698   2.446614   2.189685
    20  C    3.430191   2.609665   1.347932   4.675778   4.813691
    21  N    4.543398   3.963641   2.347120   5.786962   5.660519
    22  C    4.902225   4.823249   2.799139   6.018205   5.528203
    23  N    4.208865   4.591067   2.439466   5.132688   4.407727
    24  C    2.937158   3.490547   1.475884   3.789991   3.172985
    25  H    3.765056   2.410665   2.145464   5.008890   5.441059
    26  H    5.392005   4.594991   3.262674   6.676830   6.638750
    27  O    6.103485   6.007104   4.023952   7.221095   6.653681
    28  O    2.819134   3.916273   2.356850   3.233295   2.240339
                   11         12         13         14         15
    11  O    0.000000
    12  C    3.262650   0.000000
    13  H    2.509404   2.168228   0.000000
    14  O    3.787546   1.408253   3.371976   0.000000
    15  H    3.119782   1.101167   2.443926   2.030014   0.000000
    16  H    4.213724   1.105622   2.514327   2.090026   1.785691
    17  H    0.959514   3.766893   3.410277   4.007432   3.532366
    18  H    2.021786   4.549819   3.014133   5.164289   4.718307
    19  H    3.948253   1.959511   3.521186   0.975123   2.819169
    20  C    5.972505   5.589396   5.284292   5.483106   6.589305
    21  N    7.064893   6.514379   6.502188   6.169290   7.543909
    22  C    7.234063   6.491155   6.899973   5.852000   7.500332
    23  N    6.277736   5.448611   6.118776   4.657003   6.405598
    24  C    4.968052   4.242088   4.771690   3.622729   5.190009
    25  H    6.279611   6.075143   5.410958   6.189186   7.042948
    26  H    7.957711   7.443488   7.321843   7.147611   8.482505
    27  O    8.414229   7.612820   8.117147   6.881370   8.620500
    28  O    4.250006   3.418580   4.314217   2.586195   4.254935
                   16         17         18         19         20
    16  H    0.000000
    17  H    4.808544   0.000000
    18  H    5.280906   2.604646   0.000000
    19  H    2.523227   4.190120   5.013270   0.000000
    20  C    5.760023   6.437709   5.262454   4.596609   0.000000
    21  N    6.667938   7.424783   6.467782   5.216912   1.356294
    22  C    6.716912   7.452846   6.975751   4.878085   2.425553
[...]
 00055272,0.00018344,-0.00115296,0.00165412,0.00022049,-0.00225353,-0.0
 0158970,0.00014945,0.00126235,-0.00170421,-0.00008442,0.00000010,0.000
 34615,0.00023939,0.00183423,0.00020434,0.00061376,0.00077436,-0.000750
 45,0.00056435,-0.00205267,-0.00826644,0.00633320,-0.00163862,-0.000140
 44,0.00017220,-0.00093549,0.00003246,0.00022317,0.00192465,-0.00074321
 ,-0.00053948,-0.00114760,0.00095846,-0.00139531,0.00046131,-0.00023460
 ,0.00020467,0.00412127,0.00111115,0.00177332,0.00053301,-0.00006496,0.
 00006217,0.00005173,-0.00006148,0.00048655,-0.00034502,0.00010102,0.00
 025905,-0.00017110,0.00018862,0.00003769,-0.00587677,-0.00269035,-0.00
 221795,0.01398248,0.02287519,-0.01762817,-0.13309247,0.01142503,-0.007
 23668,0.95054449,0.00016730,0.00137913,-0.00019280,-0.00152161,-0.0008
 6679,-0.00125002,0.00665613,-0.00288607,0.00447969,-0.00119200,0.00015
 998,0.00053070,0.00013172,0.00026836,-0.00032964,-0.00528614,-0.002532
 72,-0.00043581,0.00075294,-0.00009647,0.00021312,-0.01542941,-0.017079
 53,0.01267907,0.00124395,0.00060938,-0.00150614,-0.00064165,0.00012370
 ,0.00024800,-0.00070577,-0.00075106,0.00051715,-0.00127345,0.00139154,
 -0.00109369,-0.00052445,-0.00014362,0.00021986,0.00340075,0.00002238,0
 .00153472,0.00015843,-0.00032106,0.00016062,0.00014260,-0.00009808,0.0
 0025848,-0.00004505,0.00018209,-0.00003488,0.00014525,0.00033572,-0.00
 000209,-0.00421803,-0.00162069,-0.00180080,0.06377309,-0.01127775,0.00
 624898,-0.02608752,-0.13416741,0.05416052,-0.02269240,0.41512835,-0.00
 021984,-0.00103859,0.00026046,0.00128188,0.00031637,0.00127328,-0.0047
 6628,0.00217665,-0.00317642,0.00089734,-0.00011020,-0.00054849,-0.0001
 1703,-0.00022253,0.00016471,0.00355604,0.00172318,-0.00007777,-0.00065
 996,-0.00003312,-0.00005232,0.01115637,0.01147469,-0.01069558,-0.00102
 169,-0.00034753,0.00108904,0.00059176,0.00003109,-0.00018172,0.0004122
 6,0.00058944,-0.00047244,0.00078575,-0.00070849,0.00062981,0.00036895,
 0.00007437,-0.00016970,-0.00139461,0.00031509,-0.00083926,-0.00003785,
 0.00020613,-0.00008849,-0.00008861,0.00002539,-0.00017392,0.00006945,-
 0.00012837,0.00002192,-0.00008493,-0.00025884,0.00000994,0.00199469,0.
 00044279,0.00102263,-0.04627731,0.00667011,-0.00484411,0.01938409,0.05
 460964,-0.10335592,0.01944989,-0.14261447,0.32992206,0.00125210,-0.001
 82016,0.00051344,0.00141432,-0.00159282,0.00033769,-0.00004804,0.00187
 460,-0.00184996,-0.00037120,0.00172605,-0.00022274,-0.00010274,-0.0005
 2609,0.00006310,0.00108504,0.00171248,-0.00098227,-0.00086813,0.000697
 19,-0.00062197,-0.00310516,0.02986596,-0.02246912,0.00097900,-0.000381
 31,0.00094380,0.00188769,-0.00005685,-0.00074707,-0.00202025,0.0017256
 7,0.00013299,0.00224501,-0.00211148,0.00256670,-0.00015170,0.00033674,
 -0.00040970,-0.00776002,-0.00230270,-0.00374386,-0.00072215,0.00031258
 ,-0.00023098,-0.00023721,0.00015261,-0.00081167,0.00042702,-0.00026735
 ,-0.00035285,0.00003863,-0.00049074,-0.00004002,0.01049711,0.00619360,
 0.00513129,-0.04246802,0.00298264,-0.00115611,0.02776948,-0.03844444,0
 .02735884,-0.22444790,-0.08631047,0.06422173,0.71798321,-0.00012663,-0
 .00070299,0.00038391,-0.00032165,0.00021682,0.00076779,-0.00298710,-0.
 00443342,0.00311988,0.00044404,0.00004973,-0.00040684,-0.00006295,-0.0
 0010125,-0.00014278,0.00120175,0.00162521,-0.00009410,0.00157667,-0.00
 092968,0.00032916,0.03120650,0.00287484,0.01227081,-0.00061414,-0.0002
 5676,0.00059836,0.00040283,0.00000553,-0.00027564,0.00001448,0.0006237
 8,-0.00022798,0.00065787,-0.00061583,0.00053393,0.00014566,0.00004175,
 -0.00009561,-0.00153925,0.00001386,-0.00075236,-0.00008522,0.00013147,
 -0.00004998,-0.00003991,0.00003123,-0.00012256,0.00004294,-0.00011054,
 -0.00004649,-0.00013174,-0.00017589,-0.00004311,0.00154771,0.00062701,
 0.00097342,-0.01007426,0.00125322,-0.00135955,-0.02239761,-0.02542343,
 0.03236426,-0.07398578,-0.15505714,0.06206344,0.04807662,0.26490456,0.
 00009560,0.00026667,-0.00009953,-0.00002344,0.00004808,-0.00105433,0.0
 0223152,0.00466810,-0.00051141,-0.00039562,0.00007382,0.00044805,-0.00
 000251,0.00009904,0.00011071,-0.00042636,-0.00129028,0.00055142,-0.001
 28286,0.00028641,-0.00060985,-0.02235845,0.01226296,0.01274090,0.00050
 663,0.00016623,-0.00040512,-0.00023907,0.00006091,0.00005557,-0.000074
 40,-0.00021733,0.00021694,-0.00047191,0.00045285,-0.00041716,-0.000100
 44,-0.00001510,0.00003440,0.00135061,0.00051058,0.00072999,0.00005329,
 -0.00010048,0.00005577,0.00007869,-0.00002187,0.00012909,-0.00004526,0
 .00004819,-0.00003278,0.00001625,0.00012361,0.00002468,-0.00150108,-0.
 00155062,-0.00084056,0.00753619,-0.00160611,0.00050166,0.01667716,0.03
 273960,-0.00586733,0.05440219,0.06059758,-0.11630014,-0.03461883,-0.14
 783873,0.16866132,-0.00282096,0.00336996,-0.00024846,-0.00228385,0.002
 22812,-0.00344539,0.00430303,0.02952733,-0.01588457,-0.00005965,-0.002
 40084,0.00168304,0.00018303,0.00156142,0.00075958,-0.00119718,-0.00743
 246,0.00283670,-0.00530913,0.00154829,0.00009486,-0.11420393,0.0183411
 8,-0.01216664,-0.00112258,0.00067959,-0.00224308,-0.00326556,-0.000196
 35,0.00082208,0.00234546,-0.00275190,0.00011183,-0.00387854,0.00324987
 ,-0.00408276,0.00019823,-0.00040735,0.00064102,0.01201922,0.00248079,0
 .00465102,0.00106363,-0.00059543,0.00040655,0.00032151,-0.00019559,0.0
 0119867,-0.00061829,0.00045043,0.00045348,0.00002599,0.00086592,0.0003
 2059,-0.01921617,-0.00875146,-0.00490269,0.04316996,-0.02497090,0.0167
 8477,-0.01982430,0.02649094,-0.01915191,-0.08099637,-0.03158810,0.0220
 8653,-0.28297768,0.06473396,-0.04588986,0.77663556,0.00030063,0.002780
 27,-0.00137970,-0.00124217,-0.00002462,-0.00155099,0.01478718,-0.00063
 457,0.00577424,-0.00151689,-0.00062381,0.00104100,0.00045340,0.0004596
 0,-0.00031478,-0.00470419,-0.00612575,0.00099393,-0.00045417,0.0016812
 1,0.00060352,0.03519960,-0.15135671,0.04577625,0.00079912,0.00066540,-
 0.00216073,-0.00256710,-0.00004903,0.00093456,0.00083122,-0.00272078,0
 .00097598,-0.00314313,0.00253540,-0.00286451,-0.00028146,-0.00024485,0
 .00043507,0.00804007,0.00206103,0.00332079,0.00054563,-0.00052118,0.00
 027373,0.00020917,-0.00014914,0.00072319,-0.00038168,0.00042878,0.0002
 7266,0.00035237,0.00077393,0.00007420,-0.01074114,-0.00726882,-0.00321
 138,-0.04512424,-0.01496007,0.01513110,0.02777787,-0.01928696,0.009203
 56,-0.01380097,0.01594971,-0.02684293,0.08394311,-0.12000070,0.0427738
 1,0.09658872,0.50759807,0.00042480,-0.00174670,0.00095204,0.00132112,-
 0.00031444,0.00246878,-0.01230671,-0.00129219,-0.00246571,0.00063957,0
 .00061684,-0.00122287,-0.00002853,-0.00082957,-0.00019624,0.00520003,0
 .00563015,-0.00064830,0.00115329,0.00021538,0.00125662,-0.02249761,0.0
 4575221,-0.11628603,-0.00156271,-0.00077094,0.00209606,0.00131773,0.00
 011962,-0.00082123,-0.00044784,0.00154886,-0.00065686,0.00228686,-0.00
 244134,0.00243413,0.00045629,0.00020597,-0.00031945,-0.00996922,-0.003
 22088,-0.00444208,-0.00056138,0.00056688,-0.00038889,-0.00030482,0.000
 11341,-0.00069745,0.00026010,-0.00026360,-0.00014994,-0.00011870,-0.00
 045634,-0.00007720,0.01174941,0.00697833,0.00589721,0.03201359,0.01598
 052,-0.00700544,-0.01928138,0.00917037,-0.01169408,0.01025187,-0.02471
 469,-0.00156499,-0.06201010,0.04227310,-0.09188027,-0.06636167,-0.2029
 5890,0.35915040,-0.00002974,-0.00010340,-0.00000513,-0.00010520,0.0000
 8812,0.00002434,0.00106700,-0.00258974,0.00119974,0.00007121,0.0000154
 2,-0.00009426,0.00003781,-0.00000883,-0.00009017,0.00030649,0.00065929
 ,0.00012034,-0.00029164,0.00093672,-0.00055837,0.00825145,-0.01756562,
 0.01271198,-0.00022918,-0.00003858,0.00008285,0.00003999,0.00000015,-0
 .00001991,0.00009292,0.00006009,-0.00005828,0.00006504,-0.00006484,0.0
 0003915,0.00003040,-0.00001148,-0.00000391,-0.00010772,0.00004409,-0.0
 0007232,0.00000357,0.00002011,-0.00001221,-0.00000835,0.00000246,-0.00
 000606,-0.00000101,-0.00001362,0.00000703,-0.00002235,-0.00000835,-0.0
 0000286,0.00014267,0.00004659,0.00010827,-0.05911467,0.01384718,-0.009
 68947,-0.00273011,0.03107814,-0.02237383,-0.00394555,-0.00436826,0.003
 67306,0.00139162,0.00042486,-0.00036229,-0.00489631,0.00004209,0.00040
 001,0.06124454,0.00010964,-0.00017192,-0.00010908,0.00046003,0.0003726
 5,0.00014194,0.00195325,-0.00163927,-0.00278985,0.00000504,0.00004758,
 -0.00002473,0.00004007,-0.00005362,-0.00007721,-0.00068789,-0.00024379
 ,-0.00023213,-0.00083511,0.00071664,-0.00030377,0.00421571,-0.00737907
 ,0.01176694,-0.00009225,0.00000713,-0.00016070,0.00007489,0.00002154,-
 0.00002425,0.00002025,0.00009742,-0.00004655,0.00007248,-0.00009328,0.
 00013087,-0.00005983,0.00000145,0.00001154,-0.00024946,0.00000430,-0.0
 0015858,-0.00001988,0.00000492,-0.00001861,-0.00001205,0.00000316,-0.0
 0003949,0.00001860,-0.00001309,-0.00000080,-0.00000379,-0.00002215,-0.
 00000063,0.00033670,0.00011010,0.00022092,0.01846616,-0.23126094,0.139
 99490,0.00019505,-0.00681168,0.00687622,0.00118615,0.00494542,-0.00090
 720,-0.00018394,-0.00088340,-0.00099519,-0.00309336,0.00541873,0.00379
 437,-0.02247458,0.24036090,-0.00001744,-0.00001835,-0.00015466,0.00044
 816,0.00031772,0.00041729,-0.00044802,-0.00261540,-0.00372663,0.000106
 14,-0.00021467,-0.00008579,-0.00002341,0.00001807,-0.00004907,-0.00103
 837,-0.00033062,0.00034373,0.00073340,-0.00021609,0.00019024,-0.003861
 55,0.01179122,0.00074588,-0.00005520,-0.00012881,-0.00018181,-0.000049
 33,0.00003225,0.00001797,0.00005564,-0.00006457,0.00000095,-0.00017227
 ,0.00008859,-0.00003650,-0.00002802,-0.00001765,0.00002150,0.00020114,
 0.00001311,0.00007701,0.00001240,-0.00003863,-0.00000279,0.00000388,-0
 .00001031,0.00000665,0.00000069,0.00001862,0.00000784,0.00004542,-0.00
 003664,-0.00003178,-0.00023129,-0.00016391,-0.00008940,-0.01277024,0.1
 4011268,-0.14020941,-0.00022310,0.00633063,-0.00158399,-0.00076251,-0.
 00047353,0.00457317,0.00023933,-0.00101276,-0.00155908,0.00277641,0.00
 358584,0.00769536,0.01549372,-0.15661131,0.13758544,-0.00003190,-0.000
 02572,0.00000365,-0.00003986,0.00010680,-0.00020326,-0.00040210,-0.000
 70519,0.00073775,-0.00001115,-0.00000636,0.00003602,-0.00000267,0.0000
 1596,0.00003910,-0.00009620,-0.00001820,-0.00004772,0.00000833,-0.0000
 1588,-0.00002207,-0.00127919,0.00504477,-0.00359562,-0.00004239,0.0000
 1763,-0.00003713,-0.00003892,0.00000365,0.00000697,0.00006060,-0.00001
 706,-0.00000564,-0.00003660,0.00003476,-0.00003800,-0.00000300,-0.0000
 1042,0.00000592,0.00012105,0.00002813,0.00005116,0.00001951,-0.0000054
 7,0.00000319,0.00000002,-0.00000136,0.00001176,-0.00001183,0.00000187,
 0.00000751,-0.00000973,0.00002175,0.00000908,-0.00018050,-0.00007395,-
 0.00006683,-0.01838974,-0.01673394,0.01225657,-0.31943328,-0.15121714,
 0.11325674,0.00980589,0.00042648,-0.00040040,0.00091840,0.00237658,-0.
 00170293,0.00052970,-0.00117991,0.00078462,0.00070137,0.00048743,-0.00
 036330,0.32997859,-0.00006238,-0.00003938,0.00006162,-0.00010881,0.000
 22785,0.00002086,-0.00045295,0.00131897,0.00043338,0.00004858,-0.00013
 634,-0.00002887,-0.00000240,-0.00000249,-0.00000824,0.00108145,0.00019
 475,0.00015067,0.00000546,0.00000172,0.00002697,0.00387965,0.00129182,
 0.00185118,-0.00014553,-0.00005632,0.00024938,0.00000497,-0.00001089,-
 0.00001151,0.00009905,-0.00001423,-0.00006076,0.00006684,-0.00004648,0
 .00001888,0.00010282,0.00000672,-0.00002070,-0.00006726,0.00002320,-0.
 00006420,0.00001333,0.00003027,-0.00000859,-0.00001261,-0.00000232,-0.
 00000696,-0.00000319,-0.00000218,0.00000965,-0.00000093,0.00001613,0.0
 0000456,0.00005872,0.00001428,0.00006509,0.01124618,0.00639572,-0.0111
 5256,-0.15335650,-0.13863261,0.09910919,-0.02990998,-0.00694082,0.0040
 0625,0.00113929,-0.00390797,0.00561215,0.00291268,-0.00185988,0.001111
 59,-0.00000131,-0.00020752,-0.00126243,0.16104908,0.14035319,0.0000565
 5,0.00010963,0.00003153,-0.00040020,0.00006280,-0.00029317,-0.00029212
 ,0.00083340,0.00192857,-0.00026411,0.00008716,0.00006517,0.00001197,0.
 00001935,-0.00007038,0.00039588,-0.00011880,0.00002778,0.00004535,0.00
 008144,0.00002536,-0.00227043,0.00154939,0.00300693,0.00006864,-0.0000
 1001,0.00007917,-0.00000051,-0.00001358,0.00000586,-0.00011329,-0.0000
 5521,0.00003117,0.00000212,0.00001799,0.00002061,0.00000942,0.00001237
 ,-0.00001103,-0.00003793,-0.00005532,-0.00004975,-0.00000847,0.0000005
 3,-0.00000136,-0.00000076,-0.00001435,-0.00001958,0.00001103,0.0000114
 0,-0.00000756,0.00001080,0.00006322,0.00001454,0.00007878,0.00006008,0
 .00004786,-0.00741752,-0.01083959,-0.00085000,0.11350688,0.09857384,-0
 .07832411,0.02220973,0.00417320,-0.00434597,-0.00089678,0.00559152,-0.
 00063282,-0.00217720,0.00135795,-0.00122812,-0.00013015,-0.00119505,-0
 .00109926,-0.12049377,-0.09556018,0.08228796,0.00107380,-0.00007058,-0
 .00007995,0.00022826,-0.00158521,-0.00058244,0.00367291,0.00031588,0.0
 0123823,-0.00125228,0.00132216,0.00021277,0.00002033,-0.00014688,-0.00
 027980,-0.00292031,-0.00086181,-0.00055223,-0.00020293,0.00026122,-0.0
 0009795,-0.00105366,0.00720452,-0.00523895,0.00159818,0.00023221,-0.00
 055628,0.00052158,-0.00000870,-0.00017186,-0.00170400,0.00041791,0.000
 56599,0.00056459,-0.00039424,0.00081345,-0.00048767,0.00014196,-0.0000
 9209,-0.00237311,-0.00100334,-0.00105064,-0.00036329,-0.00003930,-0.00
 000272,-0.00001183,0.00002748,-0.00031008,0.00024091,-0.00003525,-0.00
 021618,0.00014913,-0.00006045,-0.00003055,0.00330840,0.00199434,0.0014
 1847,-0.00503766,0.00422114,-0.00301705,-0.03054349,0.03807295,-0.0290
 9392,-0.54665731,0.10392138,-0.07990116,-0.09700496,-0.00887595,0.0054
 0720,0.02681721,-0.00995456,0.00704556,-0.00190837,0.00089217,-0.00055
 057,-0.00253812,0.00297541,-0.00211046,0.67063422,-0.00019773,-0.00034
 113,0.00006102,0.00038823,0.00041866,0.00040550,-0.00199008,0.00044243
 ,-0.00170016,0.00050425,-0.00019995,-0.00015184,-0.00003085,-0.0000471
 6,0.00013368,0.00168175,0.00081875,0.00019002,-0.00022140,0.00012158,-
 0.00009646,0.00332327,0.00168167,-0.00295279,-0.00054160,-0.00017869,0
 .00043273,0.00008705,-0.00003037,-0.00003981,0.00042261,0.00015656,-0.
 00021432,0.00026425,-0.00030596,0.00015693,0.00019010,0.00001819,-0.00
 003870,-0.00047578,0.00020285,-0.00020981,0.00001185,0.00008374,-0.000
 03618,-0.00003069,0.00002272,-0.00001497,-0.00002697,-0.00005035,0.000
 03911,-0.00006694,-0.00009193,0.00000117,0.00044056,0.00006974,0.00020
 779,-0.01125165,-0.00127674,0.00470468,0.06343168,-0.02023734,0.031045
 39,0.10590102,-0.11365961,0.02431920,-0.02805741,0.02056570,-0.0021939
 4,0.00256699,-0.00086169,0.00780292,0.00199633,-0.00096537,0.00059816,
 -0.00015473,0.00164419,-0.00379319,-0.13516668,0.11227709,0.00017396,0
 .00025229,-0.00010646,-0.00028713,-0.00027385,-0.00037208,0.00153049,-
 0.00088525,0.00056516,-0.00032493,0.00016925,0.00018303,0.00003174,0.0
 0004154,-0.00004413,-0.00135834,-0.00051999,0.00001046,0.00021215,-0.0
 0000118,0.00006403,-0.00246583,-0.00256406,0.00011395,0.00043986,0.000
 11861,-0.00037303,-0.00007888,-0.00001747,0.00003296,-0.00029704,-0.00
 009430,0.00020236,-0.00013507,0.00012101,-0.00008431,-0.00015335,-0.00
 000398,0.00003625,0.00009474,-0.00014907,0.00015223,-0.00003512,-0.000
 05833,0.00002396,0.00002585,0.00000215,0.00002385,0.00000172,0.0000247
 4,-0.00003516,0.00003609,0.00004715,-0.00001817,-0.00011242,0.00007519
 ,-0.00016784,0.00822109,0.00444593,0.00073905,-0.04768313,0.03110974,-
 0.00181384,-0.08120839,0.02466361,-0.10087342,0.01931931,-0.00306580,0
 .01971714,-0.00166345,0.00825753,0.00445582,-0.00160724,0.00076281,-0.
 00053453,0.00013211,-0.00375943,-0.00062579,0.10497153,-0.05741061,0.0
 7966274,-0.00127133,-0.00376582,0.00306964,0.00135568,-0.00147889,0.00
 169309,-0.01014047,-0.00441761,-0.00220896,0.00091887,0.00209375,-0.00
 094088,-0.00016799,-0.00079315,0.00003923,0.00455946,0.00786238,-0.003
 15282,0.00064254,0.00009935,-0.00071523,0.00047765,-0.02412947,0.01739
 022,0.00038060,-0.00115920,0.00296774,-0.00127704,0.00274635,-0.001583
 61,-0.00327390,0.00441659,-0.00091800,0.00454843,-0.00515308,0.0050250
 2,0.00007417,0.00054450,-0.00066363,-0.02309419,-0.00947197,-0.0117997
 3,-0.00142606,0.00092845,-0.00069173,-0.00066546,0.00037087,-0.0015920
 1,0.00075389,-0.00060073,-0.00074239,-0.00029702,-0.00111635,-0.000115
 46,0.01244922,0.00869341,0.00544617,-0.00057220,0.00273176,-0.00151900
 ,-0.00088576,-0.01051766,0.00790843,0.02077224,0.02096429,-0.01496012,
 -0.10560349,-0.03161030,0.02113999,-0.32494203,-0.17477859,0.12014582,
 -0.00005589,-0.00082148,0.00047829,0.00040373,-0.00055966,0.00020656,-
 0.01477053,-0.00299745,0.00221967,0.44110686,0.00023402,-0.00095166,-0
 .00103186,-0.00065166,0.00151017,0.00029536,-0.00664891,-0.00064947,-0
 .00458313,0.00155432,-0.00015648,0.00003157,0.00015209,0.00035730,0.00
 049781,0.00415096,0.00370779,0.00123125,-0.00003799,0.00050459,-0.0000
 4013,-0.03750001,-0.03094680,0.03683786,-0.00198949,-0.00110890,0.0007
 4381,0.00287973,-0.00237821,-0.00051789,0.00113807,0.00111209,-0.00001
 319,0.00350548,-0.00608818,0.00478680,0.00031903,0.00057696,-0.0001904
 8,-0.02131504,-0.00354147,-0.00971896,-0.00136433,0.00093778,-0.000786
 69,-0.00056659,0.00060451,-0.00126079,-0.00004081,-0.00038307,0.000040
 83,-0.00030708,-0.00054807,-0.00002828,0.01713459,0.00577378,0.0063082
 7,0.01243488,-0.00413328,0.00463876,-0.00643329,0.00096861,-0.00102972
 ,0.01009855,0.00700307,0.00416845,-0.01819338,0.01963429,-0.00496095,-
 0.17521245,-0.21366357,0.09712905,-0.00201304,-0.00236685,0.00030879,0
 .00055044,0.00034064,-0.00094998,-0.00379779,-0.00027761,-0.00128824,0
 .22191969,0.22416204,0.00063990,0.00132362,-0.00137949,-0.00086264,0.0
 0017264,-0.00189854,0.00376616,-0.00259911,-0.00049360,0.00013697,-0.0
 0088399,0.00115335,0.00035271,0.00104211,0.00051732,-0.00445659,0.0019
 4572,-0.00210731,0.00003194,-0.00017049,0.00013791,0.02573423,0.036341
 06,-0.00329198,0.00286644,-0.00039261,-0.00137717,-0.00199963,-0.00074
 998,0.00055720,0.00093927,-0.00142957,0.00088556,0.00030398,-0.0008160
 2,0.00079175,-0.00031040,0.00013081,0.00043500,-0.00375517,-0.00155447
 ,0.00187034,-0.00036280,-0.00001585,-0.00017568,0.00007323,0.00018435,
 0.00018061,-0.00045569,0.00027567,0.00015907,0.00004106,0.00028083,-0.
 00002001,-0.00159319,-0.00122587,-0.00866339,-0.00842586,0.00424725,-0
 .00001203,0.00417757,-0.00125286,0.00021254,-0.00676367,0.00376327,0.0
 0879365,0.01033582,-0.00573531,0.01623270,0.12259055,0.09977502,-0.144
 66125,0.00122595,-0.00000539,-0.00233832,-0.00036548,-0.00078697,-0.00
 001362,0.00226166,-0.00124553,-0.00093426,-0.14612629,-0.13061831,0.13
 543963\\0.00001032,0.00000605,-0.00000016,-0.00000056,0.00000323,0.000
 00294,-0.00002404,-0.00000153,-0.00001422,0.00001096,0.00001112,0.0000
 0251,0.00000217,-0.00000355,-0.00000068,0.00001253,0.00001307,0.000001
 91,0.00000305,-0.00000066,0.00000185,0.00001079,0.00000521,0.00001190,
 -0.00001423,0.00000850,0.00000965,-0.00000601,-0.00000809,-0.00000527,
 -0.00001187,-0.00001363,-0.00000387,0.00001642,-0.00001502,0.00000367,
 -0.00000225,-0.00000469,-0.00000207,0.00000303,0.00001713,0.00000880,0
 .00000054,-0.00000726,-0.00000251,0.00000313,0.00000764,-0.00000362,0.
 00000571,0.00000474,0.00000647,-0.00000053,-0.00000718,-0.00000486,-0.
 00002029,-0.00000300,-0.00001804,-0.00001519,0.00000529,-0.00001179,0.
 00002680,-0.00000227,0.00002014,-0.00002200,-0.00001313,0.00000051,-0.
 00001269,-0.00000204,-0.00000235,0.00004334,-0.00000326,0.00000197,0.0
 0000240,0.00000165,0.00000388,-0.00001073,0.00000464,-0.00001047,0.000
 00284,0.00000203,0.00000117,-0.00001366,-0.00000499,0.00000255\\\@
 The archive entry for this job was punched.


 I think that all right-thinking people in this
 country are sick and tired of being told that
 ordinary, decent people are fed up in this country
 with being sick and tired.  I'm certainly not!
 But I'm sick and tired of being told that I am!
                               -- Monty Python
 Job cpu time:       0 days 10 hours  0 minutes 22.4 seconds.
 Elapsed time:       0 days  0 hours 15 minutes  9.0 seconds.
 File lengths (MBytes):  RWF=    600 Int=      0 D2E=      0 Chk=     20 Scr=      1
 Normal termination of Gaussian 16 at Sun Oct 27 04:27:04 2024.
