 Entering Gaussian System, Link 0=g16
 Input=PseudoUridineAmNarrgPBE0aVDZ.gjf
 Output=PseudoUridineAmNarrgPBE0aVDZ.log
 Initial command:
 /sw/contrib/chem-src/g16/c01/g16/l1.exe "/scr/Gau-46854.inp" -scrdir="/scr/"
 Entering Link 1 = /sw/contrib/chem-src/g16/c01/g16/l1.exe PID=     46856.
  
 Copyright (c) 1988-2019, Gaussian, Inc.  All Rights Reserved.
  
 This is part of the Gaussian(R) 16 program.  It is based on
 the Gaussian(R) 09 system (copyright 2009, Gaussian, Inc.),
 the Gaussian(R) 03 system (copyright 2003, Gaussian, Inc.),
 the Gaussian(R) 98 system (copyright 1998, Gaussian, Inc.),
 the Gaussian(R) 94 system (copyright 1995, Gaussian, Inc.),
 the Gaussian 92(TM) system (copyright 1992, Gaussian, Inc.),
 the Gaussian 90(TM) system (copyright 1990, Gaussian, Inc.),
 the Gaussian 88(TM) system (copyright 1988, Gaussian, Inc.),
 the Gaussian 86(TM) system (copyright 1986, Carnegie Mellon
 University), and the Gaussian 82(TM) system (copyright 1983,
 Carnegie Mellon University). Gaussian is a federally registered
 trademark of Gaussian, Inc.
  
 This software contains proprietary and confidential information,
 including trade secrets, belonging to Gaussian, Inc.
  
 This software is provided under written license and may be
 used, copied, transmitted, or stored only in accord with that
 written license.
  
 The following legend is applicable only to US Government
 contracts under FAR:
  
                    RESTRICTED RIGHTS LEGEND
  
 Use, reproduction and disclosure by the US Government is
 subject to restrictions as set forth in subparagraphs (a)
 and (c) of the Commercial Computer Software - Restricted
 Rights clause in FAR 52.227-19.
  
 Gaussian, Inc.
 340 Quinnipiac St., Bldg. 40, Wallingford CT 06492
  
  
 ---------------------------------------------------------------
 Warning -- This program may not be used in any manner that
 competes with the business of Gaussian, Inc. or will provide
 assistance to any competitor of Gaussian, Inc.  The licensee
 of this program is prohibited from giving any competitor of
 Gaussian, Inc. access to this program.  By using this program,
 the user acknowledges that Gaussian, Inc. is engaged in the
 business of creating and licensing software in the field of
 computational chemistry and represents and warrants to the
 licensee that it is not a competitor of Gaussian, Inc. and that
 it will not use this program in any manner prohibited above.
 ---------------------------------------------------------------
  

 Cite this work as:
 Gaussian 16, Revision C.01,
 M. J. Frisch, G. W. Trucks, H. B. Schlegel, G. E. Scuseria, 
 M. A. Robb, J. R. Cheeseman, G. Scalmani, V. Barone, 
 G. A. Petersson, H. Nakatsuji, X. Li, M. Caricato, A. V. Marenich, 
 J. Bloino, B. G. Janesko, R. Gomperts, B. Mennucci, H. P. Hratchian, 
 J. V. Ortiz, A. F. Izmaylov, J. L. Sonnenberg, D. Williams-Young, 
 F. Ding, F. Lipparini, F. Egidi, J. Goings, B. Peng, A. Petrone, 
 T. Henderson, D. Ranasinghe, V. G. Zakrzewski, J. Gao, N. Rega, 
 G. Zheng, W. Liang, M. Hada, M. Ehara, K. Toyota, R. Fukuda, 
 J. Hasegawa, M. Ishida, T. Nakajima, Y. Honda, O. Kitao, H. Nakai, 
 T. Vreven, K. Throssell, J. A. Montgomery, Jr., J. E. Peralta, 
 F. Ogliaro, M. J. Bearpark, J. J. Heyd, E. N. Brothers, K. N. Kudin, 
 V. N. Staroverov, T. A. Keith, R. Kobayashi, J. Normand, 
 K. Raghavachari, A. P. Rendell, J. C. Burant, S. S. Iyengar, 
 J. Tomasi, M. Cossi, J. M. Millam, M. Klene, C. Adamo, R. Cammi, 
 J. W. Ochterski, R. L. Martin, K. Morokuma, O. Farkas, 
 J. B. Foresman, and D. J. Fox, Gaussian, Inc., Wallingford CT, 2019.
 
 ******************************************
 Gaussian 16:  EM64L-G16RevC.01  3-Jul-2019
                28-Oct-2024 
 ******************************************
 %nprocshared=40
 Will use up to   40 processors via shared memory.
 %mem=50gb
 ------------------------------------------------------
 # PBE1PBE/aug-cc-pVDZ opt freq EmpiricalDispersion=GD3
 ------------------------------------------------------
 1/18=20,19=15,26=3,38=1/1,3;
 2/9=110,12=2,17=6,18=5,40=1/2;
 3/5=16,7=10,11=2,25=1,30=1,71=1,74=-13,124=31/1,2,3;
 4//1;
 5/5=2,38=5/2;
 6/7=2,8=2,9=2,10=2,28=1/1;
 7//1,2,3,16;
 1/18=20,19=15,26=3/3(2);
 2/9=110/2;
 99//99;
 2/9=110/2;
 3/5=16,7=10,11=2,25=1,30=1,71=1,74=-13,124=31/1,2,3;
 4/5=5,16=3,69=1/1;
 5/5=2,38=5/2;
 7//1,2,3,16;
 1/18=20,19=15,26=3/3(-5);
 2/9=110/2;
 6/7=2,8=2,9=2,10=2,19=2,28=1/1;
 99/9=1/99;
 ----
 blah
 ----
 Symbolic Z-matrix:
 Charge =  0 Multiplicity = 2
 C                     2.19017  -0.18231  -0.68118 
 C                     1.24442  -1.37876  -0.56535 
 C                     0.35922  -1.02284   0.64139 
 O                     1.99162  -2.55372  -0.28017 
 H                     0.63643  -1.52718  -1.47091 
 O                     1.08489  -0.01259   1.3776 
 H                     0.30214  -1.9307    1.2635 
 C                    -1.03059  -0.56856   0.34559 
 C                     2.32656   0.27928   0.76611 
 H                     1.72393   0.60568  -1.28151 
 O                     3.47142  -0.54405  -1.20527 
 C                     2.6209    1.75993   0.93106 
 H                     3.1428   -0.30047   1.24187 
 O                     1.82156   2.60296   0.1436 
 H                     3.67377   1.9364    0.65351 
 H                     2.51524   1.99684   2.00673 
 H                     3.46699  -0.34925  -2.14533 
 H                     2.86677  -2.39812  -0.66272 
 H                     0.95309   2.17671  -0.02888 
 C                    -2.14034  -1.28891   0.77655 
 N                    -3.42842  -1.02361   0.57135 
 C                    -3.71817   0.10225  -0.14275 
 N                    -2.62998   0.87948  -0.57595 
 C                    -1.28868   0.62942  -0.38373 
 H                    -1.94614  -2.19949   1.3604 
 H                    -2.8635    1.72075  -1.08699 
 O                    -4.85498   0.48718  -0.42995 
 O                    -0.44495   1.43282  -0.84876 
 

 GradGradGradGradGradGradGradGradGradGradGradGradGradGradGradGradGradGrad
 Berny optimization.
 Initialization pass.
                           ----------------------------
                           !    Initial Parameters    !
                           ! (Angstroms and Degrees)  !
 --------------------------                            --------------------------
 ! Name  Definition              Value          Derivative Info.                !
 --------------------------------------------------------------------------------
 ! R1    R(1,2)                  1.5295         estimate D2E/DX2                !
 ! R2    R(1,9)                  1.5252         estimate D2E/DX2                !
 ! R3    R(1,10)                 1.0948         estimate D2E/DX2                !
 ! R4    R(1,11)                 1.4308         estimate D2E/DX2                !
 ! R5    R(2,3)                  1.5383         estimate D2E/DX2                !
 ! R6    R(2,4)                  1.4213         estimate D2E/DX2                !
 ! R7    R(2,5)                  1.1008         estimate D2E/DX2                !
 ! R8    R(3,6)                  1.4454         estimate D2E/DX2                !
 ! R9    R(3,7)                  1.102          estimate D2E/DX2                !
 ! R10   R(3,8)                  1.4918         estimate D2E/DX2                !
 ! R11   R(4,18)                 0.9677         estimate D2E/DX2                !
 ! R12   R(6,9)                  1.4145         estimate D2E/DX2                !
 ! R13   R(8,20)                 1.3915         estimate D2E/DX2                !
 ! R14   R(8,24)                 1.4261         estimate D2E/DX2                !
 ! R15   R(9,12)                 1.5186         estimate D2E/DX2                !
 ! R16   R(9,13)                 1.1085         estimate D2E/DX2                !
 ! R17   R(11,17)                0.96           estimate D2E/DX2                !
 ! R18   R(12,14)                1.4035         estimate D2E/DX2                !
 ! R19   R(12,15)                1.1031         estimate D2E/DX2                !
 ! R20   R(12,16)                1.1065         estimate D2E/DX2                !
 ! R21   R(14,19)                0.9827         estimate D2E/DX2                !
 ! R22   R(20,21)                1.331          estimate D2E/DX2                !
 ! R23   R(20,25)                1.099          estimate D2E/DX2                !
 ! R24   R(21,22)                1.3644         estimate D2E/DX2                !
 ! R25   R(22,23)                1.4057         estimate D2E/DX2                !
 ! R26   R(22,27)                1.2341         estimate D2E/DX2                !
 ! R27   R(23,24)                1.3779         estimate D2E/DX2                !
 ! R28   R(23,26)                1.0116         estimate D2E/DX2                !
 ! R29   R(24,28)                1.2544         estimate D2E/DX2                !
 ! A1    A(2,1,9)              102.719          estimate D2E/DX2                !
 ! A2    A(2,1,10)             109.9503         estimate D2E/DX2                !
 ! A3    A(2,1,11)             112.5623         estimate D2E/DX2                !
 ! A4    A(9,1,10)             109.912          estimate D2E/DX2                !
 ! A5    A(9,1,11)             110.1218         estimate D2E/DX2                !
 ! A6    A(10,1,11)            111.2511         estimate D2E/DX2                !
 ! A7    A(1,2,3)              103.5465         estimate D2E/DX2                !
 ! A8    A(1,2,4)              109.6812         estimate D2E/DX2                !
 ! A9    A(1,2,5)              112.6248         estimate D2E/DX2                !
 ! A10   A(3,2,4)              109.6562         estimate D2E/DX2                !
 ! A11   A(3,2,5)              111.0208         estimate D2E/DX2                !
 ! A12   A(4,2,5)              110.1179         estimate D2E/DX2                !
 ! A13   A(2,3,6)              105.8054         estimate D2E/DX2                !
 ! A14   A(2,3,7)              106.3817         estimate D2E/DX2                !
 ! A15   A(2,3,8)              116.8082         estimate D2E/DX2                !
 ! A16   A(6,3,7)              108.3161         estimate D2E/DX2                !
 ! A17   A(6,3,8)              110.8474         estimate D2E/DX2                !
 ! A18   A(7,3,8)              108.3329         estimate D2E/DX2                !
 ! A19   A(2,4,18)             105.2594         estimate D2E/DX2                !
 ! A20   A(3,6,9)              111.3913         estimate D2E/DX2                !
 ! A21   A(3,8,20)             121.5985         estimate D2E/DX2                !
 ! A22   A(3,8,24)             121.7239         estimate D2E/DX2                !
 ! A23   A(20,8,24)            116.676          estimate D2E/DX2                !
 ! A24   A(1,9,6)              105.6202         estimate D2E/DX2                !
 ! A25   A(1,9,12)             114.5492         estimate D2E/DX2                !
 ! A26   A(1,9,13)             108.3511         estimate D2E/DX2                !
 ! A27   A(6,9,12)             108.9268         estimate D2E/DX2                !
 ! A28   A(6,9,13)             110.6664         estimate D2E/DX2                !
 ! A29   A(12,9,13)            108.6996         estimate D2E/DX2                !
 ! A30   A(1,11,17)            107.6525         estimate D2E/DX2                !
 ! A31   A(9,12,14)            114.4769         estimate D2E/DX2                !
 ! A32   A(9,12,15)            108.2795         estimate D2E/DX2                !
 ! A33   A(9,12,16)            107.208          estimate D2E/DX2                !
 ! A34   A(14,12,15)           107.84           estimate D2E/DX2                !
 ! A35   A(14,12,16)           111.2512         estimate D2E/DX2                !
 ! A36   A(15,12,16)           107.5474         estimate D2E/DX2                !
 ! A37   A(12,14,19)           109.9548         estimate D2E/DX2                !
 ! A38   A(8,20,21)            128.3801         estimate D2E/DX2                !
 ! A39   A(8,20,25)            116.9072         estimate D2E/DX2                !
 ! A40   A(21,20,25)           114.7124         estimate D2E/DX2                !
 ! A41   A(20,21,22)           116.7877         estimate D2E/DX2                !
 ! A42   A(21,22,23)           116.9469         estimate D2E/DX2                !
 ! A43   A(21,22,27)           125.0874         estimate D2E/DX2                !
 ! A44   A(23,22,27)           117.9653         estimate D2E/DX2                !
 ! A45   A(22,23,24)           127.6078         estimate D2E/DX2                !
 ! A46   A(22,23,26)           115.8988         estimate D2E/DX2                !
 ! A47   A(24,23,26)           116.4933         estimate D2E/DX2                !
 ! A48   A(8,24,23)            113.5766         estimate D2E/DX2                !
 ! A49   A(8,24,28)            127.2919         estimate D2E/DX2                !
 ! A50   A(23,24,28)           119.1305         estimate D2E/DX2                !
 ! D1    D(9,1,2,3)             30.8092         estimate D2E/DX2                !
 ! D2    D(9,1,2,4)            -86.1688         estimate D2E/DX2                !
 ! D3    D(9,1,2,5)            150.8189         estimate D2E/DX2                !
 ! D4    D(10,1,2,3)           -86.1505         estimate D2E/DX2                !
 ! D5    D(10,1,2,4)           156.8716         estimate D2E/DX2                !
 ! D6    D(10,1,2,5)            33.8593         estimate D2E/DX2                !
 ! D7    D(11,1,2,3)           149.2128         estimate D2E/DX2                !
 ! D8    D(11,1,2,4)            32.2348         estimate D2E/DX2                !
 ! D9    D(11,1,2,5)           -90.7775         estimate D2E/DX2                !
 ! D10   D(2,1,9,6)            -32.0539         estimate D2E/DX2                !
 ! D11   D(2,1,9,12)          -151.9199         estimate D2E/DX2                !
 ! D12   D(2,1,9,13)            86.5555         estimate D2E/DX2                !
 ! D13   D(10,1,9,6)            84.933          estimate D2E/DX2                !
 ! D14   D(10,1,9,12)          -34.933          estimate D2E/DX2                !
 ! D15   D(10,1,9,13)         -156.4576         estimate D2E/DX2                !
 ! D16   D(11,1,9,6)          -152.16           estimate D2E/DX2                !
 ! D17   D(11,1,9,12)           87.974          estimate D2E/DX2                !
 ! D18   D(11,1,9,13)          -33.5506         estimate D2E/DX2                !
 ! D19   D(2,1,11,17)           97.4224         estimate D2E/DX2                !
 ! D20   D(9,1,11,17)         -148.6149         estimate D2E/DX2                !
 ! D21   D(10,1,11,17)         -26.497          estimate D2E/DX2                !
 ! D22   D(1,2,3,6)            -19.3824         estimate D2E/DX2                !
 ! D23   D(1,2,3,7)           -134.4472         estimate D2E/DX2                !
 ! D24   D(1,2,3,8)            104.4968         estimate D2E/DX2                !
 ! D25   D(4,2,3,6)             97.6131         estimate D2E/DX2                !
 ! D26   D(4,2,3,7)            -17.4517         estimate D2E/DX2                !
 ! D27   D(4,2,3,8)           -138.5077         estimate D2E/DX2                !
 ! D28   D(5,2,3,6)           -140.4803         estimate D2E/DX2                !
 ! D29   D(5,2,3,7)            104.4549         estimate D2E/DX2                !
 ! D30   D(5,2,3,8)            -16.601          estimate D2E/DX2                !
 ! D31   D(1,2,4,18)           -27.7964         estimate D2E/DX2                !
 ! D32   D(3,2,4,18)          -140.8705         estimate D2E/DX2                !
 ! D33   D(5,2,4,18)            96.6844         estimate D2E/DX2                !
 ! D34   D(2,3,6,9)             -0.769          estimate D2E/DX2                !
 ! D35   D(7,3,6,9)            112.9634         estimate D2E/DX2                !
 ! D36   D(8,3,6,9)           -128.3124         estimate D2E/DX2                !
 ! D37   D(2,3,8,20)           117.057          estimate D2E/DX2                !
 ! D38   D(2,3,8,24)           -63.4079         estimate D2E/DX2                !
 ! D39   D(6,3,8,20)          -121.6792         estimate D2E/DX2                !
 ! D40   D(6,3,8,24)            57.8559         estimate D2E/DX2                !
 ! D41   D(7,3,8,20)            -2.9651         estimate D2E/DX2                !
 ! D42   D(7,3,8,24)           176.57           estimate D2E/DX2                !
 ! D43   D(3,6,9,1)             20.86           estimate D2E/DX2                !
 ! D44   D(3,6,9,12)           144.3599         estimate D2E/DX2                !
 ! D45   D(3,6,9,13)           -96.1955         estimate D2E/DX2                !
 ! D46   D(3,8,20,21)         -178.7381         estimate D2E/DX2                !
 ! D47   D(3,8,20,25)            1.0322         estimate D2E/DX2                !
 ! D48   D(24,8,20,21)           1.7044         estimate D2E/DX2                !
 ! D49   D(24,8,20,25)        -178.5253         estimate D2E/DX2                !
 ! D50   D(3,8,24,23)          179.1918         estimate D2E/DX2                !
 ! D51   D(3,8,24,28)           -0.4386         estimate D2E/DX2                !
 ! D52   D(20,8,24,23)          -1.2513         estimate D2E/DX2                !
 ! D53   D(20,8,24,28)         179.1183         estimate D2E/DX2                !
 ! D54   D(1,9,12,14)           46.1324         estimate D2E/DX2                !
 ! D55   D(1,9,12,15)          -74.1907         estimate D2E/DX2                !
 ! D56   D(1,9,12,16)          170.0432         estimate D2E/DX2                !
 ! D57   D(6,9,12,14)          -71.8734         estimate D2E/DX2                !
 ! D58   D(6,9,12,15)          167.8035         estimate D2E/DX2                !
 ! D59   D(6,9,12,16)           52.0374         estimate D2E/DX2                !
 ! D60   D(13,9,12,14)         167.4659         estimate D2E/DX2                !
 ! D61   D(13,9,12,15)          47.1428         estimate D2E/DX2                !
 ! D62   D(13,9,12,16)         -68.6233         estimate D2E/DX2                !
 ! D63   D(9,12,14,19)          28.0964         estimate D2E/DX2                !
 ! D64   D(15,12,14,19)        148.6633         estimate D2E/DX2                !
 ! D65   D(16,12,14,19)        -93.6268         estimate D2E/DX2                !
 ! D66   D(8,20,21,22)          -0.5909         estimate D2E/DX2                !
 ! D67   D(25,20,21,22)        179.6346         estimate D2E/DX2                !
 ! D68   D(20,21,22,23)         -0.8045         estimate D2E/DX2                !
 ! D69   D(20,21,22,27)        179.4411         estimate D2E/DX2                !
 ! D70   D(21,22,23,24)          1.1415         estimate D2E/DX2                !
 ! D71   D(21,22,23,26)       -178.7527         estimate D2E/DX2                !
 ! D72   D(27,22,23,24)       -179.0861         estimate D2E/DX2                !
 ! D73   D(27,22,23,26)          1.0197         estimate D2E/DX2                !
 ! D74   D(22,23,24,8)          -0.0428         estimate D2E/DX2                !
 ! D75   D(22,23,24,28)        179.6206         estimate D2E/DX2                !
 ! D76   D(26,23,24,8)         179.8509         estimate D2E/DX2                !
 ! D77   D(26,23,24,28)         -0.4858         estimate D2E/DX2                !
 --------------------------------------------------------------------------------
 Trust Radius=3.00D-01 FncErr=1.00D-07 GrdErr=1.00D-06 EigMax=2.50D+02 EigMin=1.00D-04
 Number of steps in this run=    166 maximum allowed number of steps=    168.
 GradGradGradGradGradGradGradGradGradGradGradGradGradGradGradGradGradGrad

                          Input orientation:                          
 ---------------------------------------------------------------------
 Center     Atomic      Atomic             Coordinates (Angstroms)
 Number     Number       Type             X           Y           Z
 ---------------------------------------------------------------------
      1          6           0        2.190171   -0.182307   -0.681177
      2          6           0        1.244415   -1.378756   -0.565345
      3          6           0        0.359223   -1.022842    0.641386
      4          8           0        1.991615   -2.553718   -0.280171
      5          1           0        0.636434   -1.527177   -1.470909
      6          8           0        1.084885   -0.012593    1.377595
      7          1           0        0.302140   -1.930702    1.263500
      8          6           0       -1.030592   -0.568560    0.345593
      9          6           0        2.326564    0.279279    0.766109
     10          1           0        1.723932    0.605675   -1.281510
     11          8           0        3.471421   -0.544047   -1.205269
     12          6           0        2.620895    1.759930    0.931063
     13          1           0        3.142797   -0.300468    1.241866
     14          8           0        1.821556    2.602957    0.143601
     15          1           0        3.673772    1.936399    0.653512
     16          1           0        2.515243    1.996837    2.006733
     17          1           0        3.466993   -0.349247   -2.145326
     18          1           0        2.866771   -2.398115   -0.662718
     19          1           0        0.953085    2.176705   -0.028882
     20          6           0       -2.140344   -1.288908    0.776551
     21          7           0       -3.428421   -1.023614    0.571349
     22          6           0       -3.718173    0.102250   -0.142753
     23          7           0       -2.629979    0.879478   -0.575951
     24          6           0       -1.288682    0.629419   -0.383728
     25          1           0       -1.946138   -2.199487    1.360404
     26          1           0       -2.863500    1.720753   -1.086985
     27          8           0       -4.854978    0.487178   -0.429950
     28          8           0       -0.444947    1.432815   -0.848764
 ---------------------------------------------------------------------
                    Distance matrix (angstroms):
                    1          2          3          4          5
     1  C    0.000000
     2  C    1.529497   0.000000
     3  C    2.409988   1.538324   0.000000
     4  O    2.413259   1.421326   2.420238   0.000000
     5  H    2.201466   1.100780   2.189290   2.075611   0.000000
     6  O    2.342862   2.380518   1.445404   3.166649   3.257153
     7  H    3.225417   2.130071   1.102041   2.371791   2.784165
     8  C    3.402464   2.581062   1.491795   3.669628   2.645298
     9  C    1.525222   2.385979   2.362521   3.038546   3.335277
    10  H    1.094849   2.163515   2.865664   3.325071   2.401579
    11  O    1.430779   2.462884   3.650364   2.661655   3.012351
    12  C    2.560688   3.739690   3.597623   4.524449   4.529087
    13  H    2.149314   2.834179   2.937803   2.952787   3.891763
    14  O    2.928111   4.085307   3.941145   5.176852   4.590116
    15  H    2.910564   4.286915   4.443365   4.884933   5.072962
    16  H    3.475514   4.430036   3.953613   5.119733   5.295526
    17  H    1.949840   2.914804   4.228206   3.242720   3.139175
    18  H    2.316880   1.918492   3.143224   0.967705   2.527075
    19  H    2.742409   3.607488   3.322504   4.849597   3.987286
    20  C    4.701372   3.642163   2.517319   4.448538   3.580272
    21  N    5.817662   4.822198   3.788292   5.695884   4.576837
    22  C    5.939647   5.196080   4.301844   6.298788   4.835456
    23  N    4.936832   4.484491   3.746473   5.764846   4.154803
    24  C    3.584661   3.237643   2.548807   4.572027   3.088518
    25  H    5.034493   3.815984   2.686293   4.280522   3.890760
    26  H    5.415340   5.172430   4.571709   6.518757   4.790197
    27  O    7.081345   6.379862   5.533156   7.493018   5.941113
    28  O    3.095247   3.292294   2.982866   4.706652   3.212165
                    6          7          8          9         10
     6  O    0.000000
     7  H    2.074813   0.000000
     8  C    2.418547   2.115221   0.000000
     9  C    1.414522   3.038043   3.488002   0.000000
    10  H    2.803832   3.864166   3.407887   2.159269   0.000000
    11  O    3.556569   4.249938   4.761711   2.423818   2.093177
    12  C    2.387584   4.371259   4.370126   1.518607   2.651853
    13  H    2.082378   3.275281   4.276956   1.108462   3.033430
    14  O    2.984381   4.910892   4.270137   2.458054   2.455526
    15  H    3.320422   5.166668   5.338602   2.138620   3.052378
    16  H    2.545496   4.569002   4.681196   2.127147   3.657054
    17  H    4.265999   4.912982   5.145974   3.189369   2.167098
    18  H    3.609530   3.241315   4.421923   3.082500   3.272879
    19  H    2.605489   4.354856   3.407592   2.473597   2.152073
    20  C    3.520275   2.571915   1.391465   4.734193   4.770502
    21  N    4.694904   3.901149   2.451045   5.903839   5.712654
    22  C    5.039247   4.719466   2.812749   6.115244   5.582715
    23  N    4.290961   4.458477   2.346081   5.169979   4.419199
    24  C    3.024609   3.434865   1.426069   3.809820   3.143632
    25  H    3.737633   2.266360   2.127907   4.975284   5.321471
    26  H    4.966728   5.373935   3.263861   5.696365   4.725015
    27  O    6.228881   5.942204   4.042521   7.283428   6.634851
    28  O    3.063701   4.041416   2.403117   3.408773   2.361242
                   11         12         13         14         15
    11  O    0.000000
    12  C    3.255091   0.000000
    13  H    2.481087   2.148074   0.000000
    14  O    3.800676   1.403472   3.373684   0.000000
    15  H    3.106224   1.103053   2.373114   2.033473   0.000000
    16  H    4.205630   1.106505   2.501291   2.078423   1.782428
    17  H    0.960038   3.824746   3.403021   4.081931   3.619452
    18  H    2.024236   4.459813   2.846709   5.172364   4.601274
    19  H    3.889524   1.968956   3.542037   0.982692   2.815235
    20  C    5.997861   5.655854   5.394915   5.589623   6.649939
    21  N    7.141021   6.668713   6.644805   6.395095   7.694776
    22  C    7.296362   6.639636   7.010867   6.084746   7.657610
    23  N    6.296789   5.533350   6.166172   4.827453   6.508912
    24  C    4.970969   4.276859   4.810951   3.721090   5.235457
    25  H    6.218770   6.059629   5.433009   6.224114   7.013461
    26  H    6.728635   5.844026   6.751628   4.923655   6.768438
    27  O    8.425762   7.704605   8.208518   7.027203   8.718584
    28  O    4.401479   3.560081   4.499657   2.736979   4.412967
                   16         17         18         19         20
    16  H    0.000000
    17  H    4.863078   0.000000
    18  H    5.154138   2.599279   0.000000
    19  H    2.572240   4.144816   4.999292   0.000000
    20  C    5.829576   6.392383   5.326635   4.714711   0.000000
    21  N    6.819868   7.441897   6.560611   5.458930   1.331026
    22  C    6.860410   7.472667   7.062838   5.112434   2.295645
    23  N    5.864474   6.414497   6.400344   3.849731   2.602096
    24  C    4.696167   5.165023   5.148940   2.746913   2.398240
    25  H    6.158798   6.709360   5.224612   5.430163   1.098979
    26  H    6.211134   6.743896   7.069730   3.986702   3.613002
    27  O    7.908012   8.537993   8.246484   6.062091   3.461122
    28  O    4.151471   4.489999   5.067358   1.783276   3.594968
                   21         22         23         24         25
    21  N    0.000000
    22  C    1.364356   0.000000
    23  N    2.361264   1.405671   0.000000
    24  C    2.867608   2.497679   1.377881   0.000000
    25  H    2.049987   3.270716   3.700964   3.387765   0.000000
    26  H    3.255880   2.059513   1.011648   2.040988   4.711640
    27  O    2.306547   1.234090   2.264031   3.569431   4.345674
    28  O    4.117266   3.603174   2.270457   1.254429   4.508616
                   26         27         28
    26  H    0.000000
    27  O    2.432979   0.000000
    28  O    2.447255   4.529681   0.000000
 Stoichiometry    C9H11N2O6(2)
 Framework group  C1[X(C9H11N2O6)]
 Deg. of freedom    78
 Full point group                 C1      NOp   1
 Largest Abelian subgroup         C1      NOp   1
 Largest concise Abelian subgroup C1      NOp   1
                         Standard orientation:                         
 ---------------------------------------------------------------------
 Center     Atomic      Atomic             Coordinates (Angstroms)
 Number     Number       Type             X           Y           Z
 ---------------------------------------------------------------------
      1          6           0        2.190171   -0.182307   -0.681177
      2          6           0        1.244415   -1.378756   -0.565345
      3          6           0        0.359223   -1.022842    0.641386
      4          8           0        1.991615   -2.553718   -0.280171
      5          1           0        0.636434   -1.527177   -1.470909
      6          8           0        1.084885   -0.012593    1.377595
      7          1           0        0.302140   -1.930702    1.263500
      8          6           0       -1.030592   -0.568560    0.345593
      9          6           0        2.326564    0.279279    0.766109
     10          1           0        1.723932    0.605675   -1.281510
     11          8           0        3.471421   -0.544047   -1.205269
     12          6           0        2.620895    1.759930    0.931063
     13          1           0        3.142797   -0.300468    1.241866
     14          8           0        1.821556    2.602957    0.143601
     15          1           0        3.673772    1.936399    0.653512
     16          1           0        2.515243    1.996837    2.006733
     17          1           0        3.466993   -0.349247   -2.145326
     18          1           0        2.866771   -2.398115   -0.662718
     19          1           0        0.953085    2.176705   -0.028882
     20          6           0       -2.140344   -1.288908    0.776551
     21          7           0       -3.428421   -1.023614    0.571349
     22          6           0       -3.718173    0.102250   -0.142753
     23          7           0       -2.629979    0.879478   -0.575951
     24          6           0       -1.288682    0.629419   -0.383728
     25          1           0       -1.946138   -2.199487    1.360404
     26          1           0       -2.863500    1.720753   -1.086985
     27          8           0       -4.854978    0.487178   -0.429950
     28          8           0       -0.444947    1.432815   -0.848764
 ---------------------------------------------------------------------
 Rotational constants (GHZ):           0.9089767           0.3053126           0.2619416
 Standard basis: Aug-CC-pVDZ (5D, 7F)
 There are   524 symmetry adapted cartesian basis functions of A   symmetry.
 There are   490 symmetry adapted basis functions of A   symmetry.
   490 basis functions,   852 primitive gaussians,   524 cartesian basis functions
    64 alpha electrons       63 beta electrons
       nuclear repulsion energy      1306.0651629237 Hartrees.
 NAtoms=   28 NActive=   28 NUniq=   28 SFac= 1.00D+00 NAtFMM=   60 NAOKFM=F Big=F
 Integral buffers will be    131072 words long.
 Raffenetti 2 integral format.
 Two-electron integral symmetry is turned on.
 Nuclear repulsion after empirical dispersion term =     1306.0454901532 Hartrees.
 One-electron integrals computed using PRISM.
 NBasis=   490 RedAO= T EigKep=  2.71D-06  NBF=   490
 NBsUse=   490 1.00D-06 EigRej= -1.00D+00 NBFU=   490
 ExpMin= 2.97D-02 ExpMax= 1.17D+04 ExpMxC= 4.01D+02 IAcc=3 IRadAn=         5 AccDes= 0.00D+00
 Harris functional with IExCor= 1009 and IRadAn=       5 diagonalized for initial guess.
 HarFok:  IExCor= 1009 AccDes= 0.00D+00 IRadAn=         5 IDoV= 1 UseB2=F ITyADJ=14
 ICtDFT=  3500011 ScaDFX=  1.000000  1.000000  1.000000  1.000000
 FoFCou: FMM=F IPFlag=           0 FMFlag=      100000 FMFlg1=           0
         NFxFlg=           0 DoJE=T BraDBF=F KetDBF=T FulRan=T
         wScrn=  0.000000 ICntrl=       500 IOpCl=  0 I1Cent=   200000004 NGrid=           0
         NMat0=    1 NMatS0=      1 NMatT0=    0 NMatD0=    1 NMtDS0=    0 NMtDT0=    0
 Petite list used in FoFCou.
 Initial guess <Sx>= 0.0000 <Sy>= 0.0000 <Sz>= 0.5000 <S**2>= 0.7500 S= 0.5000
 Requested convergence on RMS density matrix=1.00D-08 within 128 cycles.
 Requested convergence on MAX density matrix=1.00D-06.
 Requested convergence on             energy=1.00D-06.
 No special actions if energy rises.
 Restarting incremental Fock formation.
 SCF Done:  E(UPBE1PBE) =  -909.552303088     A.U. after   22 cycles
            NFock= 22  Conv=0.63D-08     -V/T= 2.0054
 <Sx>= 0.0000 <Sy>= 0.0000 <Sz>= 0.5000 <S**2>= 0.7850 S= 0.5174
 <L.S>= 0.000000000000E+00
 Annihilation of the first spin contaminant:
 S**2 before annihilation     0.7850,   after     0.7507

 **********************************************************************

            Population analysis using the SCF Density.

 **********************************************************************

 Orbital symmetries:
 Alpha Orbitals:
       Occupied  (A) (A) (A) (A) (A) (A) (A) (A) (A) (A) (A) (A)
                 (A) (A) (A) (A) (A) (A) (A) (A) (A) (A) (A) (A)
                 (A) (A) (A) (A) (A) (A) (A) (A) (A) (A) (A) (A)
                 (A) (A) (A) (A) (A) (A) (A) (A) (A) (A) (A) (A)
                 (A) (A) (A) (A) (A) (A) (A) (A) (A) (A) (A) (A)
                 (A) (A) (A) (A)
       Virtual   (A) (A) (A) (A) (A) (A) (A) (A) (A) (A) (A) (A)
                 (A) (A) (A) (A) (A) (A) (A) (A) (A) (A) (A) (A)
                 (A) (A) (A) (A) (A) (A) (A) (A) (A) (A) (A) (A)
                 (A) (A) (A) (A) (A) (A) (A) (A) (A) (A) (A) (A)
                 (A) (A) (A) (A) (A) (A) (A) (A) (A) (A) (A) (A)
                 (A) (A) (A) (A) (A) (A) (A) (A) (A) (A) (A) (A)
                 (A) (A) (A) (A) (A) (A) (A) (A) (A) (A) (A) (A)
                 (A) (A) (A) (A) (A) (A) (A) (A) (A) (A) (A) (A)
                 (A) (A) (A) (A) (A) (A) (A) (A) (A) (A) (A) (A)
                 (A) (A) (A) (A) (A) (A) (A) (A) (A) (A) (A) (A)
                 (A) (A) (A) (A) (A) (A) (A) (A) (A) (A) (A) (A)
                 (A) (A) (A) (A) (A) (A) (A) (A) (A) (A) (A) (A)
                 (A) (A) (A) (A) (A) (A) (A) (A) (A) (A) (A) (A)
                 (A) (A) (A) (A) (A) (A) (A) (A) (A) (A) (A) (A)
                 (A) (A) (A) (A) (A) (A) (A) (A) (A) (A) (A) (A)
                 (A) (A) (A) (A) (A) (A) (A) (A) (A) (A) (A) (A)
                 (A) (A) (A) (A) (A) (A) (A) (A) (A) (A) (A) (A)
                 (A) (A) (A) (A) (A) (A) (A) (A) (A) (A) (A) (A)
                 (A) (A) (A) (A) (A) (A) (A) (A) (A) (A) (A) (A)
                 (A) (A) (A) (A) (A) (A) (A) (A) (A) (A) (A) (A)
                 (A) (A) (A) (A) (A) (A) (A) (A) (A) (A) (A) (A)
                 (A) (A) (A) (A) (A) (A) (A) (A) (A) (A) (A) (A)
                 (A) (A) (A) (A) (A) (A) (A) (A) (A) (A) (A) (A)
                 (A) (A) (A) (A) (A) (A) (A) (A) (A) (A) (A) (A)
                 (A) (A) (A) (A) (A) (A) (A) (A) (A) (A) (A) (A)
                 (A) (A) (A) (A) (A) (A) (A) (A) (A) (A) (A) (A)
                 (A) (A) (A) (A) (A) (A) (A) (A) (A) (A) (A) (A)
                 (A) (A) (A) (A) (A) (A) (A) (A) (A) (A) (A) (A)
                 (A) (A) (A) (A) (A) (A) (A) (A) (A) (A) (A) (A)
                 (A) (A) (A) (A) (A) (A) (A) (A) (A) (A) (A) (A)
                 (A) (A) (A) (A) (A) (A) (A) (A) (A) (A) (A) (A)
                 (A) (A) (A) (A) (A) (A) (A) (A) (A) (A) (A) (A)
                 (A) (A) (A) (A) (A) (A) (A) (A) (A) (A) (A) (A)
                 (A) (A) (A) (A) (A) (A) (A) (A) (A) (A) (A) (A)
                 (A) (A) (A) (A) (A) (A) (A) (A) (A) (A) (A) (A)
                 (A) (A) (A) (A) (A) (A)
 Beta  Orbitals:
       Occupied  (A) (A) (A) (A) (A) (A) (A) (A) (A) (A) (A) (A)
                 (A) (A) (A) (A) (A) (A) (A) (A) (A) (A) (A) (A)
                 (A) (A) (A) (A) (A) (A) (A) (A) (A) (A) (A) (A)
                 (A) (A) (A) (A) (A) (A) (A) (A) (A) (A) (A) (A)
                 (A) (A) (A) (A) (A) (A) (A) (A) (A) (A) (A) (A)
                 (A) (A) (A)
       Virtual   (A) (A) (A) (A) (A) (A) (A) (A) (A) (A) (A) (A)
                 (A) (A) (A) (A) (A) (A) (A) (A) (A) (A) (A) (A)
                 (A) (A) (A) (A) (A) (A) (A) (A) (A) (A) (A) (A)
                 (A) (A) (A) (A) (A) (A) (A) (A) (A) (A) (A) (A)
                 (A) (A) (A) (A) (A) (A) (A) (A) (A) (A) (A) (A)
                 (A) (A) (A) (A) (A) (A) (A) (A) (A) (A) (A) (A)
                 (A) (A) (A) (A) (A) (A) (A) (A) (A) (A) (A) (A)
                 (A) (A) (A) (A) (A) (A) (A) (A) (A) (A) (A) (A)
                 (A) (A) (A) (A) (A) (A) (A) (A) (A) (A) (A) (A)
                 (A) (A) (A) (A) (A) (A) (A) (A) (A) (A) (A) (A)
                 (A) (A) (A) (A) (A) (A) (A) (A) (A) (A) (A) (A)
                 (A) (A) (A) (A) (A) (A) (A) (A) (A) (A) (A) (A)
                 (A) (A) (A) (A) (A) (A) (A) (A) (A) (A) (A) (A)
                 (A) (A) (A) (A) (A) (A) (A) (A) (A) (A) (A) (A)
                 (A) (A) (A) (A) (A) (A) (A) (A) (A) (A) (A) (A)
                 (A) (A) (A) (A) (A) (A) (A) (A) (A) (A) (A) (A)
                 (A) (A) (A) (A) (A) (A) (A) (A) (A) (A) (A) (A)
                 (A) (A) (A) (A) (A) (A) (A) (A) (A) (A) (A) (A)
                 (A) (A) (A) (A) (A) (A) (A) (A) (A) (A) (A) (A)
                 (A) (A) (A) (A) (A) (A) (A) (A) (A) (A) (A) (A)
                 (A) (A) (A) (A) (A) (A) (A) (A) (A) (A) (A) (A)
                 (A) (A) (A) (A) (A) (A) (A) (A) (A) (A) (A) (A)
                 (A) (A) (A) (A) (A) (A) (A) (A) (A) (A) (A) (A)
                 (A) (A) (A) (A) (A) (A) (A) (A) (A) (A) (A) (A)
                 (A) (A) (A) (A) (A) (A) (A) (A) (A) (A) (A) (A)
                 (A) (A) (A) (A) (A) (A) (A) (A) (A) (A) (A) (A)
                 (A) (A) (A) (A) (A) (A) (A) (A) (A) (A) (A) (A)
                 (A) (A) (A) (A) (A) (A) (A) (A) (A) (A) (A) (A)
                 (A) (A) (A) (A) (A) (A) (A) (A) (A) (A) (A) (A)
                 (A) (A) (A) (A) (A) (A) (A) (A) (A) (A) (A) (A)
                 (A) (A) (A) (A) (A) (A) (A) (A) (A) (A) (A) (A)
                 (A) (A) (A) (A) (A) (A) (A) (A) (A) (A) (A) (A)
                 (A) (A) (A) (A) (A) (A) (A) (A) (A) (A) (A) (A)
                 (A) (A) (A) (A) (A) (A) (A) (A) (A) (A) (A) (A)
                 (A) (A) (A) (A) (A) (A) (A) (A) (A) (A) (A) (A)
                 (A) (A) (A) (A) (A) (A) (A)
 The electronic state is 2-A.
 Alpha  occ. eigenvalues --  -19.27043 -19.26377 -19.25503 -19.25408 -19.24627
 Alpha  occ. eigenvalues --  -19.21052 -14.48397 -14.46648 -10.40394 -10.39602
 Alpha  occ. eigenvalues --  -10.34005 -10.33216 -10.33021 -10.31855 -10.30904
 Alpha  occ. eigenvalues --  -10.29893 -10.27815  -1.14163  -1.12203  -1.11328
 Alpha  occ. eigenvalues --   -1.09531  -1.07073  -1.04364  -1.03480  -0.97842
 Alpha  occ. eigenvalues --   -0.89520  -0.82044  -0.80277  -0.73953  -0.72119
 Alpha  occ. eigenvalues --   -0.69780  -0.65723  -0.63005  -0.61163  -0.60421
 Alpha  occ. eigenvalues --   -0.57786  -0.55715  -0.54702  -0.54083  -0.53552
 Alpha  occ. eigenvalues --   -0.51294  -0.50555  -0.50040  -0.48928  -0.48040
 Alpha  occ. eigenvalues --   -0.46837  -0.46053  -0.45561  -0.43420  -0.41839
 Alpha  occ. eigenvalues --   -0.41291  -0.40572  -0.38603  -0.37191  -0.36132
 Alpha  occ. eigenvalues --   -0.35776  -0.34362  -0.34111  -0.33579  -0.32884
 Alpha  occ. eigenvalues --   -0.31290  -0.30770  -0.29740  -0.27862
 Alpha virt. eigenvalues --   -0.07954  -0.03645  -0.02056  -0.00751   0.00031
 Alpha virt. eigenvalues --    0.00883   0.01839   0.02059   0.02992   0.03250
 Alpha virt. eigenvalues --    0.03890   0.04352   0.05030   0.05516   0.05798
 Alpha virt. eigenvalues --    0.05837   0.06287   0.06984   0.07589   0.07726
 Alpha virt. eigenvalues --    0.08143   0.08840   0.09004   0.09169   0.09628
 Alpha virt. eigenvalues --    0.09769   0.10217   0.10471   0.10958   0.11031
 Alpha virt. eigenvalues --    0.11728   0.11837   0.12052   0.12351   0.12620
 Alpha virt. eigenvalues --    0.13057   0.13207   0.13825   0.14505   0.14810
 Alpha virt. eigenvalues --    0.15361   0.15500   0.15985   0.16450   0.16463
 Alpha virt. eigenvalues --    0.16864   0.17134   0.17976   0.18149   0.18665
 Alpha virt. eigenvalues --    0.19069   0.19496   0.19854   0.20096   0.20615
 Alpha virt. eigenvalues --    0.20867   0.21204   0.21484   0.21660   0.22414
 Alpha virt. eigenvalues --    0.22681   0.22893   0.23095   0.23584   0.24027
 Alpha virt. eigenvalues --    0.24312   0.24684   0.24796   0.25130   0.25799
 Alpha virt. eigenvalues --    0.25991   0.26058   0.26477   0.26885   0.27138
 Alpha virt. eigenvalues --    0.27619   0.28081   0.28399   0.28617   0.28802
 Alpha virt. eigenvalues --    0.29722   0.29802   0.30211   0.30288   0.30759
 Alpha virt. eigenvalues --    0.30981   0.31557   0.31898   0.32331   0.32645
 Alpha virt. eigenvalues --    0.33184   0.33349   0.33803   0.34319   0.34719
 Alpha virt. eigenvalues --    0.34849   0.35359   0.36224   0.36959   0.37394
 Alpha virt. eigenvalues --    0.37591   0.37994   0.38638   0.38671   0.40088
 Alpha virt. eigenvalues --    0.40413   0.40604   0.40627   0.41333   0.42169
 Alpha virt. eigenvalues --    0.42429   0.42546   0.43108   0.43861   0.44132
 Alpha virt. eigenvalues --    0.44857   0.45083   0.45526   0.46057   0.46380
 Alpha virt. eigenvalues --    0.47291   0.47895   0.48327   0.50013   0.50505
 Alpha virt. eigenvalues --    0.50964   0.51784   0.52364   0.52437   0.53179
 Alpha virt. eigenvalues --    0.53717   0.54215   0.54510   0.55137   0.55294
 Alpha virt. eigenvalues --    0.55994   0.56360   0.56474   0.57036   0.57763
 Alpha virt. eigenvalues --    0.58234   0.58849   0.59118   0.59681   0.59830
 Alpha virt. eigenvalues --    0.60519   0.60762   0.61297   0.62578   0.62640
 Alpha virt. eigenvalues --    0.63453   0.63846   0.64225   0.64482   0.65725
 Alpha virt. eigenvalues --    0.66291   0.66704   0.67027   0.68037   0.68389
 Alpha virt. eigenvalues --    0.68691   0.68938   0.69974   0.70391   0.70709
 Alpha virt. eigenvalues --    0.71083   0.72307   0.72547   0.73428   0.73755
 Alpha virt. eigenvalues --    0.74734   0.75309   0.75575   0.76031   0.76773
 Alpha virt. eigenvalues --    0.77747   0.78382   0.78707   0.79236   0.79738
 Alpha virt. eigenvalues --    0.80170   0.80727   0.81042   0.81689   0.82634
 Alpha virt. eigenvalues --    0.83013   0.83942   0.85382   0.85508   0.85926
 Alpha virt. eigenvalues --    0.87044   0.88182   0.88697   0.89702   0.90149
 Alpha virt. eigenvalues --    0.90170   0.91437   0.92403   0.92474   0.93996
 Alpha virt. eigenvalues --    0.94942   0.95986   0.96939   0.97098   0.97999
 Alpha virt. eigenvalues --    0.99450   0.99958   1.00508   1.02056   1.02539
 Alpha virt. eigenvalues --    1.02908   1.04582   1.05662   1.05879   1.06786
 Alpha virt. eigenvalues --    1.08700   1.09118   1.09370   1.10077   1.11696
 Alpha virt. eigenvalues --    1.12123   1.12509   1.13225   1.13754   1.14530
 Alpha virt. eigenvalues --    1.15884   1.16247   1.17472   1.18633   1.19864
 Alpha virt. eigenvalues --    1.20786   1.21767   1.22366   1.23408   1.24435
 Alpha virt. eigenvalues --    1.25018   1.26505   1.27410   1.27536   1.29251
 Alpha virt. eigenvalues --    1.30500   1.31143   1.32134   1.33606   1.34374
 Alpha virt. eigenvalues --    1.34904   1.36285   1.36915   1.38241   1.38838
 Alpha virt. eigenvalues --    1.40056   1.41123   1.42839   1.43702   1.44371
 Alpha virt. eigenvalues --    1.44506   1.45236   1.47517   1.48625   1.48998
 Alpha virt. eigenvalues --    1.49432   1.50773   1.51172   1.52089   1.52984
 Alpha virt. eigenvalues --    1.53353   1.54527   1.55377   1.56425   1.56872
 Alpha virt. eigenvalues --    1.57443   1.58587   1.59885   1.60872   1.62726
 Alpha virt. eigenvalues --    1.63650   1.64590   1.66018   1.66235   1.67192
 Alpha virt. eigenvalues --    1.68435   1.69129   1.70645   1.71573   1.72656
 Alpha virt. eigenvalues --    1.73223   1.74281   1.75514   1.76306   1.76835
 Alpha virt. eigenvalues --    1.77205   1.78218   1.80331   1.81131   1.82083
 Alpha virt. eigenvalues --    1.83049   1.83580   1.84523   1.84978   1.86354
 Alpha virt. eigenvalues --    1.88310   1.88582   1.91627   1.92030   1.92594
 Alpha virt. eigenvalues --    1.93991   1.94872   1.95683   1.97067   1.97602
 Alpha virt. eigenvalues --    1.98682   1.99423   2.01646   2.02495   2.02792
 Alpha virt. eigenvalues --    2.04152   2.04745   2.05651   2.06209   2.07304
 Alpha virt. eigenvalues --    2.08621   2.09338   2.10828   2.12228   2.12349
 Alpha virt. eigenvalues --    2.13603   2.15128   2.16223   2.18531   2.18997
 Alpha virt. eigenvalues --    2.20350   2.21459   2.22943   2.23931   2.24256
 Alpha virt. eigenvalues --    2.25056   2.25970   2.27587   2.30059   2.30807
 Alpha virt. eigenvalues --    2.32263   2.32580   2.33864   2.35272   2.38917
 Alpha virt. eigenvalues --    2.39108   2.39392   2.41055   2.42434   2.43597
 Alpha virt. eigenvalues --    2.44744   2.45249   2.46696   2.48312   2.50234
 Alpha virt. eigenvalues --    2.50700   2.51365   2.53203   2.56891   2.57446
 Alpha virt. eigenvalues --    2.59609   2.60630   2.61806   2.63389   2.64662
 Alpha virt. eigenvalues --    2.65447   2.67893   2.70183   2.71958   2.73327
 Alpha virt. eigenvalues --    2.75020   2.77498   2.78248   2.80261   2.84237
 Alpha virt. eigenvalues --    2.87313   2.87550   2.90383   2.91453   2.95283
 Alpha virt. eigenvalues --    2.98629   2.99731   3.04590   3.08058   3.12288
 Alpha virt. eigenvalues --    3.19370   3.22589   3.23506   3.27908   3.32538
 Alpha virt. eigenvalues --    3.32803   3.36854   3.39142   3.39400   3.43391
 Alpha virt. eigenvalues --    3.44342   3.45325   3.46643   3.48031   3.49690
 Alpha virt. eigenvalues --    3.51562   3.52658   3.53017   3.55595   3.58149
 Alpha virt. eigenvalues --    3.59950   3.61015   3.62967   3.63563   3.63861
 Alpha virt. eigenvalues --    3.65499   3.69547   3.70386   3.72037   3.75582
 Alpha virt. eigenvalues --    3.76839   3.78962   3.85276   3.89398   3.97137
 Alpha virt. eigenvalues --    3.99009   4.03847   4.17320   4.21409   4.30198
 Alpha virt. eigenvalues --    4.76754
  Beta  occ. eigenvalues --  -19.27032 -19.26269 -19.25182 -19.24739 -19.24624
  Beta  occ. eigenvalues --  -19.21038 -14.48416 -14.45857 -10.40574 -10.39703
  Beta  occ. eigenvalues --  -10.34297 -10.33273 -10.32195 -10.31782 -10.30893
  Beta  occ. eigenvalues --  -10.29895 -10.27814  -1.13489  -1.11928  -1.10679
  Beta  occ. eigenvalues --   -1.09403  -1.07042  -1.04290  -1.02374  -0.97232
  Beta  occ. eigenvalues --   -0.87957  -0.81930  -0.79954  -0.73828  -0.71977
  Beta  occ. eigenvalues --   -0.69498  -0.65546  -0.62833  -0.60833  -0.60162
  Beta  occ. eigenvalues --   -0.57695  -0.55616  -0.54536  -0.53863  -0.52379
  Beta  occ. eigenvalues --   -0.50858  -0.50414  -0.49882  -0.48364  -0.47714
  Beta  occ. eigenvalues --   -0.46436  -0.45448  -0.44252  -0.43262  -0.41694
  Beta  occ. eigenvalues --   -0.40491  -0.39069  -0.38208  -0.37106  -0.35606
  Beta  occ. eigenvalues --   -0.35243  -0.33487  -0.32935  -0.32245  -0.32211
  Beta  occ. eigenvalues --   -0.31213  -0.29626  -0.27826
  Beta virt. eigenvalues --   -0.20315  -0.06815  -0.02191  -0.01560  -0.00700
  Beta virt. eigenvalues --    0.00031   0.00912   0.01872   0.02085   0.03014
  Beta virt. eigenvalues --    0.03288   0.03907   0.04394   0.05091   0.05550
  Beta virt. eigenvalues --    0.05857   0.06024   0.06483   0.07491   0.07612
  Beta virt. eigenvalues --    0.07997   0.08141   0.08899   0.09130   0.09209
  Beta virt. eigenvalues --    0.09754   0.09917   0.10301   0.10513   0.10993
  Beta virt. eigenvalues --    0.11144   0.11752   0.11871   0.12072   0.12419
  Beta virt. eigenvalues --    0.12698   0.13100   0.13232   0.14182   0.14587
  Beta virt. eigenvalues --    0.14904   0.15447   0.15527   0.16047   0.16514
  Beta virt. eigenvalues --    0.16538   0.16994   0.17262   0.18031   0.18266
  Beta virt. eigenvalues --    0.18800   0.19162   0.19614   0.19898   0.20195
  Beta virt. eigenvalues --    0.20745   0.20907   0.21285   0.21617   0.21729
  Beta virt. eigenvalues --    0.22426   0.22787   0.23049   0.23167   0.23655
  Beta virt. eigenvalues --    0.24027   0.24423   0.24784   0.24968   0.25431
  Beta virt. eigenvalues --    0.25925   0.26060   0.26183   0.26539   0.26936
  Beta virt. eigenvalues --    0.27210   0.27659   0.28171   0.28534   0.28711
  Beta virt. eigenvalues --    0.28828   0.29784   0.29914   0.30266   0.30347
  Beta virt. eigenvalues --    0.30861   0.31008   0.31627   0.32024   0.32427
  Beta virt. eigenvalues --    0.32682   0.33296   0.33461   0.33912   0.34456
  Beta virt. eigenvalues --    0.34780   0.34977   0.35441   0.36401   0.37054
  Beta virt. eigenvalues --    0.37443   0.37718   0.38083   0.38722   0.38751
  Beta virt. eigenvalues --    0.40122   0.40487   0.40708   0.40797   0.41415
  Beta virt. eigenvalues --    0.42261   0.42508   0.42605   0.43284   0.43988
  Beta virt. eigenvalues --    0.44173   0.44929   0.45130   0.45654   0.46178
  Beta virt. eigenvalues --    0.46600   0.47372   0.47979   0.48435   0.50221
  Beta virt. eigenvalues --    0.50558   0.51053   0.51864   0.52392   0.52619
  Beta virt. eigenvalues --    0.53326   0.53813   0.54405   0.54677   0.55310
  Beta virt. eigenvalues --    0.55337   0.56118   0.56500   0.56641   0.57250
  Beta virt. eigenvalues --    0.57832   0.58346   0.59048   0.59201   0.59728
  Beta virt. eigenvalues --    0.59907   0.60714   0.60841   0.61387   0.62622
  Beta virt. eigenvalues --    0.62802   0.63758   0.63926   0.64461   0.64615
  Beta virt. eigenvalues --    0.65788   0.66411   0.66879   0.67168   0.68142
  Beta virt. eigenvalues --    0.68453   0.68773   0.69018   0.70042   0.70522
  Beta virt. eigenvalues --    0.70912   0.71170   0.72372   0.72588   0.73579
  Beta virt. eigenvalues --    0.73809   0.74830   0.75463   0.75638   0.76170
  Beta virt. eigenvalues --    0.76886   0.77892   0.78485   0.78818   0.79308
  Beta virt. eigenvalues --    0.79815   0.80366   0.80979   0.81177   0.81817
  Beta virt. eigenvalues --    0.82728   0.83107   0.84146   0.85537   0.85588
  Beta virt. eigenvalues --    0.86063   0.87178   0.88310   0.89028   0.89826
  Beta virt. eigenvalues --    0.90198   0.90365   0.91788   0.92605   0.92707
  Beta virt. eigenvalues --    0.94247   0.95092   0.96582   0.97197   0.97303
  Beta virt. eigenvalues --    0.98259   0.99597   1.00078   1.00655   1.02250
  Beta virt. eigenvalues --    1.03037   1.03157   1.04858   1.05918   1.06298
  Beta virt. eigenvalues --    1.06920   1.08943   1.09239   1.09618   1.10240
  Beta virt. eigenvalues --    1.11861   1.12258   1.12702   1.13318   1.13862
  Beta virt. eigenvalues --    1.14704   1.16129   1.16364   1.17600   1.18743
  Beta virt. eigenvalues --    1.19968   1.21025   1.21893   1.22513   1.23679
  Beta virt. eigenvalues --    1.24608   1.25154   1.26515   1.27497   1.27674
  Beta virt. eigenvalues --    1.29440   1.30961   1.31371   1.32312   1.33820
  Beta virt. eigenvalues --    1.34590   1.35123   1.36418   1.37125   1.38430
  Beta virt. eigenvalues --    1.39238   1.40982   1.41257   1.43116   1.43886
  Beta virt. eigenvalues --    1.44529   1.44801   1.45427   1.47771   1.48649
  Beta virt. eigenvalues --    1.49465   1.49614   1.50935   1.51302   1.52337
  Beta virt. eigenvalues --    1.53526   1.53987   1.54599   1.55672   1.56618
  Beta virt. eigenvalues --    1.57034   1.57563   1.58694   1.59998   1.60993
  Beta virt. eigenvalues --    1.62918   1.63802   1.64764   1.66130   1.66768
  Beta virt. eigenvalues --    1.67508   1.68541   1.69319   1.70950   1.71800
  Beta virt. eigenvalues --    1.72764   1.73362   1.74451   1.75615   1.76576
  Beta virt. eigenvalues --    1.77016   1.77299   1.78313   1.80362   1.81237
  Beta virt. eigenvalues --    1.82170   1.83168   1.83666   1.84617   1.85143
  Beta virt. eigenvalues --    1.86443   1.88442   1.88736   1.92067   1.92207
  Beta virt. eigenvalues --    1.92969   1.94184   1.95014   1.96145   1.97216
  Beta virt. eigenvalues --    1.97876   1.98836   1.99619   2.01771   2.02630
  Beta virt. eigenvalues --    2.03038   2.04452   2.04959   2.05863   2.06322
  Beta virt. eigenvalues --    2.07474   2.08801   2.09460   2.10953   2.12356
  Beta virt. eigenvalues --    2.12492   2.13762   2.15253   2.16320   2.18700
  Beta virt. eigenvalues --    2.19158   2.20602   2.21579   2.23180   2.24173
  Beta virt. eigenvalues --    2.24342   2.25312   2.26335   2.27774   2.30360
  Beta virt. eigenvalues --    2.30888   2.32376   2.32686   2.33956   2.35555
  Beta virt. eigenvalues --    2.39066   2.39285   2.40325   2.41477   2.42710
  Beta virt. eigenvalues --    2.43809   2.44866   2.45467   2.47040   2.48510
  Beta virt. eigenvalues --    2.50465   2.51065   2.51867   2.53304   2.57124
  Beta virt. eigenvalues --    2.57701   2.59781   2.61530   2.61888   2.63585
  Beta virt. eigenvalues --    2.64724   2.65545   2.68083   2.70313   2.72061
  Beta virt. eigenvalues --    2.73431   2.75092   2.77584   2.78357   2.80389
  Beta virt. eigenvalues --    2.84320   2.87460   2.87783   2.90460   2.91584
  Beta virt. eigenvalues --    2.95567   2.98772   3.00068   3.04832   3.08202
  Beta virt. eigenvalues --    3.12520   3.19493   3.23231   3.23568   3.27971
  Beta virt. eigenvalues --    3.32982   3.34366   3.37875   3.39833   3.40857
  Beta virt. eigenvalues --    3.43758   3.44435   3.45400   3.46823   3.48256
  Beta virt. eigenvalues --    3.50024   3.51672   3.52780   3.53267   3.55996
  Beta virt. eigenvalues --    3.58253   3.60230   3.61133   3.63204   3.63850
  Beta virt. eigenvalues --    3.64102   3.65722   3.69681   3.70620   3.72332
  Beta virt. eigenvalues --    3.76072   3.77221   3.79223   3.85672   3.89601
  Beta virt. eigenvalues --    3.97425   3.99506   4.03923   4.17386   4.21553
  Beta virt. eigenvalues --    4.30243   4.76896
          Condensed to atoms (all electrons):
               1          2          3          4          5          6
     1  C   11.814854  -3.705447   1.378827   0.231697   0.474928  -0.280653
     2  C   -3.705447   9.992397  -3.184172  -0.574432  -0.861053   0.373639
     3  C    1.378827  -3.184172  16.903586   0.266000   0.058396  -0.409939
     4  O    0.231697  -0.574432   0.266000   8.756373  -0.098998  -0.000882
     5  H    0.474928  -0.861053   0.058396  -0.098998   2.048347   0.000256
     6  O   -0.280653   0.373639  -0.409939  -0.000882   0.000256   9.445704
     7  H    0.041996   0.336186  -1.188296  -0.024805   0.055694  -0.122875
     8  C   -0.073523   0.886505  -3.541394  -0.033900  -0.285028  -0.003190
     9  C   -2.463471   1.038730  -2.919801  -0.040793   0.241091  -0.291800
    10  H   -1.431327   0.690106  -0.181613  -0.011534  -0.171530   0.122593
    11  O   -0.828905   0.425968   0.028240  -0.060236  -0.062883   0.018932
    12  C   -0.142189  -0.289804   0.531216   0.035838   0.005227   0.029036
    13  H    0.571419  -0.357290   0.338643   0.035672   0.002927  -0.075478
    14  O   -0.085450   0.050181  -0.021756  -0.001391  -0.003659  -0.015311
    15  H    0.001177   0.070636  -0.000933  -0.000913   0.000993   0.094678
    16  H   -0.058138  -0.013128  -0.037593   0.002105   0.001559  -0.071805
    17  H    0.385434  -0.253003   0.028767   0.012341   0.026014  -0.008358
    18  H   -0.227450   0.222823  -0.131018   0.270793  -0.022154   0.016762
    19  H   -0.034465   0.009783  -0.042719  -0.001672   0.000767   0.025876
    20  C    0.162921  -0.452067  -1.045758  -0.013189   0.026326  -0.085249
    21  N   -0.009401   0.024333   0.049648  -0.001959   0.000413   0.003551
    22  C   -0.044116   0.048182  -0.448769   0.000470  -0.002427  -0.000828
    23  N    0.021037  -0.081966   0.483222   0.001179  -0.016320  -0.017381
    24  C   -0.488925   0.635466  -2.193286  -0.046459  -0.000244   0.071804
    25  H   -0.007401   0.096908  -0.049206  -0.006171   0.007657   0.045814
    26  H   -0.007370   0.008616  -0.015682  -0.000086   0.001350  -0.000758
    27  O    0.001483  -0.001679   0.018146  -0.000027  -0.000755   0.000046
    28  O    0.089943  -0.092294   0.201756   0.001411   0.000444   0.002371
               7          8          9         10         11         12
     1  C    0.041996  -0.073523  -2.463471  -1.431327  -0.828905  -0.142189
     2  C    0.336186   0.886505   1.038730   0.690106   0.425968  -0.289804
     3  C   -1.188296  -3.541394  -2.919801  -0.181613   0.028240   0.531216
     4  O   -0.024805  -0.033900  -0.040793  -0.011534  -0.060236   0.035838
     5  H    0.055694  -0.285028   0.241091  -0.171530  -0.062883   0.005227
     6  O   -0.122875  -0.003190  -0.291800   0.122593   0.018932   0.029036
     7  H    2.174721   0.305306   0.133664  -0.015402  -0.007713  -0.008996
     8  C    0.305306  12.781676   0.441632  -0.011909  -0.009423  -0.223632
     9  C    0.133664   0.441632  10.946819  -0.761248   0.175021  -0.231747
    10  H   -0.015402  -0.011909  -0.761248   3.091045   0.013851   0.015777
    11  O   -0.007713  -0.009423   0.175021   0.013851   8.623600  -0.001872
    12  C   -0.008996  -0.223632  -0.231747   0.015777  -0.001872   5.038722
    13  H    0.012207  -0.057850  -1.191682   0.138357  -0.058152  -0.055835
    14  O   -0.000148  -0.004057   0.004669   0.042817   0.011658   0.044721
    15  H   -0.002806   0.003961  -0.123581  -0.012607   0.014528   0.104866
    16  H   -0.002977   0.017176   0.380533   0.021777   0.002531   0.061861
    17  H    0.002957  -0.002055  -0.001074  -0.190097   0.281754  -0.000679
    18  H   -0.012805   0.019079   0.004442   0.045399   0.059206  -0.001618
    19  H    0.002153  -0.001358   0.059238  -0.005610  -0.001313  -0.048911
    20  C   -0.025741  -2.726054  -0.148235   0.023082   0.001067  -0.050066
    21  N   -0.011044   0.172370  -0.002565  -0.000941   0.000011   0.002319
    22  C    0.006389   0.107131   0.013225   0.002050   0.000857  -0.011475
    23  N   -0.004304   0.021308  -0.042485  -0.001504   0.001853   0.009328
    24  C   -0.030804  -3.263652   0.144470   0.144680   0.009284  -0.060773
    25  H   -0.085893   0.035080   0.035683   0.003127  -0.000140  -0.002084
    26  H    0.000571   0.204708   0.006319  -0.000704   0.000174  -0.000682
    27  O    0.000184  -0.007631  -0.000638   0.000562  -0.000006   0.000304
    28  O    0.003997   0.026886  -0.095608   0.020599  -0.000952   0.034780
              13         14         15         16         17         18
     1  C    0.571419  -0.085450   0.001177  -0.058138   0.385434  -0.227450
     2  C   -0.357290   0.050181   0.070636  -0.013128  -0.253003   0.222823
     3  C    0.338643  -0.021756  -0.000933  -0.037593   0.028767  -0.131018
     4  O    0.035672  -0.001391  -0.000913   0.002105   0.012341   0.270793
     5  H    0.002927  -0.003659   0.000993   0.001559   0.026014  -0.022154
     6  O   -0.075478  -0.015311   0.094678  -0.071805  -0.008358   0.016762
     7  H    0.012207  -0.000148  -0.002806  -0.002977   0.002957  -0.012805
     8  C   -0.057850  -0.004057   0.003961   0.017176  -0.002055   0.019079
     9  C   -1.191682   0.004669  -0.123581   0.380533  -0.001074   0.004442
    10  H    0.138357   0.042817  -0.012607   0.021777  -0.190097   0.045399
    11  O   -0.058152   0.011658   0.014528   0.002531   0.281754   0.059206
    12  C   -0.055835   0.044721   0.104866   0.061861  -0.000679  -0.001618
    13  H    2.275918   0.019258  -0.117019  -0.015968  -0.010712   0.005378
    14  O    0.019258   8.488939  -0.105975  -0.056364  -0.003356   0.000499
    15  H   -0.117019  -0.105975   1.597180  -0.283461  -0.003253   0.002683
    16  H   -0.015968  -0.056364  -0.283461   1.292063  -0.000472  -0.000750
    17  H   -0.010712  -0.003356  -0.003253  -0.000472   0.599199  -0.017452
    18  H    0.005378   0.000499   0.002683  -0.000750  -0.017452   0.592367
    19  H   -0.000931   0.199023   0.009348  -0.034866  -0.000571  -0.000083
    20  C    0.006986  -0.000919  -0.004173   0.001013   0.000336  -0.005108
    21  N    0.000054   0.000415   0.000138  -0.000013  -0.000033   0.000306
    22  C    0.000521  -0.000118  -0.000601  -0.000052  -0.000417   0.000359
    23  N   -0.003041  -0.006491   0.001150  -0.001454   0.000365  -0.000726
    24  C    0.025486   0.031028  -0.016619   0.012856  -0.016333   0.011003
    25  H    0.001922  -0.000162   0.000248   0.000349  -0.000466   0.001895
    26  H    0.000257   0.000026  -0.000031   0.000194  -0.000165   0.000055
    27  O   -0.000031   0.000037   0.000021  -0.000011   0.000006  -0.000000
    28  O    0.000454  -0.047687   0.003701  -0.002458   0.000806  -0.000472
              19         20         21         22         23         24
     1  C   -0.034465   0.162921  -0.009401  -0.044116   0.021037  -0.488925
     2  C    0.009783  -0.452067   0.024333   0.048182  -0.081966   0.635466
     3  C   -0.042719  -1.045758   0.049648  -0.448769   0.483222  -2.193286
     4  O   -0.001672  -0.013189  -0.001959   0.000470   0.001179  -0.046459
     5  H    0.000767   0.026326   0.000413  -0.002427  -0.016320  -0.000244
     6  O    0.025876  -0.085249   0.003551  -0.000828  -0.017381   0.071804
     7  H    0.002153  -0.025741  -0.011044   0.006389  -0.004304  -0.030804
     8  C   -0.001358  -2.726054   0.172370   0.107131   0.021308  -3.263652
     9  C    0.059238  -0.148235  -0.002565   0.013225  -0.042485   0.144470
    10  H   -0.005610   0.023082  -0.000941   0.002050  -0.001504   0.144680
    11  O   -0.001313   0.001067   0.000011   0.000857   0.001853   0.009284
    12  C   -0.048911  -0.050066   0.002319  -0.011475   0.009328  -0.060773
    13  H   -0.000931   0.006986   0.000054   0.000521  -0.003041   0.025486
    14  O    0.199023  -0.000919   0.000415  -0.000118  -0.006491   0.031028
    15  H    0.009348  -0.004173   0.000138  -0.000601   0.001150  -0.016619
    16  H   -0.034866   0.001013  -0.000013  -0.000052  -0.001454   0.012856
    17  H   -0.000571   0.000336  -0.000033  -0.000417   0.000365  -0.016333
    18  H   -0.000083  -0.005108   0.000306   0.000359  -0.000726   0.011003
    19  H    0.605068   0.001877   0.000506   0.000152  -0.005768   0.007807
    20  C    0.001877  12.957537  -0.603752  -0.519468   0.287520  -1.778861
    21  N    0.000506  -0.603752   7.845822  -0.042898  -0.023717   0.232258
    22  C    0.000152  -0.519468  -0.042898   6.246699   0.011157  -0.024741
    23  N   -0.005768   0.287520  -0.023717   0.011157   7.779138  -1.034600
    24  C    0.007807  -1.778861   0.232258  -0.024741  -1.034600  13.329888
    25  H   -0.000481  -0.457673  -0.027062  -0.027268  -0.032397   0.109647
    26  H   -0.001980  -0.160411   0.031418  -0.175980   0.404818  -0.265189
    27  O   -0.000023   0.006835  -0.042269   0.070001  -0.173260   0.138169
    28  O    0.029455  -0.042280  -0.004105  -0.002710  -0.164937  -0.099025
              25         26         27         28
     1  C   -0.007401  -0.007370   0.001483   0.089943
     2  C    0.096908   0.008616  -0.001679  -0.092294
     3  C   -0.049206  -0.015682   0.018146   0.201756
     4  O   -0.006171  -0.000086  -0.000027   0.001411
     5  H    0.007657   0.001350  -0.000755   0.000444
     6  O    0.045814  -0.000758   0.000046   0.002371
     7  H   -0.085893   0.000571   0.000184   0.003997
     8  C    0.035080   0.204708  -0.007631   0.026886
     9  C    0.035683   0.006319  -0.000638  -0.095608
    10  H    0.003127  -0.000704   0.000562   0.020599
    11  O   -0.000140   0.000174  -0.000006  -0.000952
    12  C   -0.002084  -0.000682   0.000304   0.034780
    13  H    0.001922   0.000257  -0.000031   0.000454
    14  O   -0.000162   0.000026   0.000037  -0.047687
    15  H    0.000248  -0.000031   0.000021   0.003701
    16  H    0.000349   0.000194  -0.000011  -0.002458
    17  H   -0.000466  -0.000165   0.000006   0.000806
    18  H    0.001895   0.000055  -0.000000  -0.000472
    19  H   -0.000481  -0.001980  -0.000023   0.029455
    20  C   -0.457673  -0.160411   0.006835  -0.042280
    21  N   -0.027062   0.031418  -0.042269  -0.004105
    22  C   -0.027268  -0.175980   0.070001  -0.002710
    23  N   -0.032397   0.404818  -0.173260  -0.164937
    24  C    0.109647  -0.265189   0.138169  -0.099025
    25  H    1.993220  -0.002886   0.002868  -0.005442
    26  H   -0.002886   1.057231  -0.001759  -0.024655
    27  O    0.002868  -0.001759   8.561695  -0.001989
    28  O   -0.005442  -0.024655  -0.001989   9.028819
          Atomic-Atomic Spin Densities.
               1          2          3          4          5          6
     1  C    0.016067   0.009350  -0.004089   0.001210  -0.015361   0.003635
     2  C    0.009350   0.032964  -0.001978   0.001904   0.005786  -0.003670
     3  C   -0.004089  -0.001978  -0.221664   0.005698   0.024350  -0.031966
     4  O    0.001210   0.001904   0.005698  -0.001860  -0.003585  -0.000665
     5  H   -0.015361   0.005786   0.024350  -0.003585   0.014976  -0.007921
     6  O    0.003635  -0.003670  -0.031966  -0.000665  -0.007921   0.063421
     7  H    0.001689  -0.001317  -0.021608  -0.002612  -0.000390  -0.001236
     8  C    0.004597  -0.017031   0.009963   0.002470  -0.029825  -0.002640
     9  C   -0.004810   0.005485  -0.012122  -0.001373  -0.003404  -0.002484
    10  H    0.005135  -0.001391  -0.002931   0.000064  -0.000519   0.000989
    11  O   -0.003225  -0.001763   0.001957  -0.000172   0.001740  -0.000404
    12  C   -0.003556   0.000996   0.008356  -0.000360  -0.000013  -0.001104
    13  H   -0.000532   0.002439   0.001576  -0.000671   0.000517   0.000398
    14  O   -0.000090  -0.000215   0.003079  -0.000017   0.000409  -0.001382
    15  H    0.000305   0.000103  -0.000291  -0.000014  -0.000218   0.000097
    16  H    0.000207  -0.000052   0.000127  -0.000009   0.000045  -0.000684
    17  H   -0.002105   0.000168   0.001012  -0.000114   0.000729  -0.000256
    18  H   -0.001480  -0.000254  -0.001935  -0.000304   0.000728   0.000421
    19  H    0.000265  -0.000277   0.001970  -0.000002   0.000083  -0.000927
    20  C    0.005047   0.006903   0.055833  -0.000943   0.001113   0.007562
    21  N   -0.000596  -0.001043   0.005520   0.000176   0.000963  -0.000113
    22  C    0.000488  -0.002054   0.014456  -0.000085  -0.000075  -0.000223
    23  N    0.000400  -0.001732  -0.002133  -0.000040   0.000072   0.000844
    24  C   -0.002061  -0.000010   0.100648   0.000559   0.001923  -0.004245
    25  H   -0.000033   0.005190  -0.001624   0.000285  -0.000580   0.002294
    26  H    0.000027  -0.000456   0.001473  -0.000002   0.000167  -0.000266
    27  O   -0.000004   0.000358  -0.000981   0.000001  -0.000097  -0.000020
    28  O   -0.002562   0.000933  -0.007204  -0.000101  -0.000513   0.008280
               7          8          9         10         11         12
     1  C    0.001689   0.004597  -0.004810   0.005135  -0.003225  -0.003556
     2  C   -0.001317  -0.017031   0.005485  -0.001391  -0.001763   0.000996
     3  C   -0.021608   0.009963  -0.012122  -0.002931   0.001957   0.008356
     4  O   -0.002612   0.002470  -0.001373   0.000064  -0.000172  -0.000360
     5  H   -0.000390  -0.029825  -0.003404  -0.000519   0.001740  -0.000013
     6  O   -0.001236  -0.002640  -0.002484   0.000989  -0.000404  -0.001104
     7  H   -0.003426   0.000272  -0.000701  -0.000496  -0.000050  -0.000230
     8  C    0.000272   0.474154   0.010674   0.000943  -0.000935  -0.001925
     9  C   -0.000701   0.010674   0.014958   0.000553  -0.000094  -0.010398
    10  H   -0.000496   0.000943   0.000553  -0.001756  -0.000433   0.001214
    11  O   -0.000050  -0.000935  -0.000094  -0.000433   0.005497   0.000803
    12  C   -0.000230  -0.001925  -0.010398   0.001214   0.000803   0.004699
    13  H   -0.000262  -0.002087  -0.000509  -0.000728   0.000011   0.001490
    14  O    0.000168  -0.001034  -0.001226  -0.000209  -0.000013   0.000238
    15  H   -0.000048   0.000235   0.000201   0.000080  -0.000088  -0.000563
    16  H   -0.000048  -0.000138   0.000906   0.000072   0.000006  -0.000697
    17  H    0.000108  -0.000120  -0.000458   0.000249   0.000590  -0.000053
    18  H    0.000079   0.000419   0.000270   0.000054   0.000510   0.000009
    19  H    0.000153  -0.000833  -0.000806   0.000143   0.000035  -0.000175
    20  C    0.023246   0.313886  -0.000820   0.000222  -0.000302   0.000681
    21  N    0.001446  -0.011935   0.000255  -0.000065   0.000015   0.000137
    22  C   -0.000331  -0.022544   0.000832  -0.000015  -0.000024   0.000099
    23  N   -0.000551  -0.024469  -0.001052   0.000463   0.000000   0.000075
    24  C    0.002413   0.070587  -0.000839  -0.002449   0.000105   0.000214
    25  H    0.005945   0.046391   0.000516   0.000082  -0.000042   0.000175
    26  H    0.000041   0.000768  -0.000191  -0.000065   0.000006   0.000076
    27  O   -0.000057   0.005318  -0.000024   0.000002  -0.000000  -0.000002
    28  O   -0.000517  -0.012019   0.001747   0.000302   0.000054  -0.000422
              13         14         15         16         17         18
     1  C   -0.000532  -0.000090   0.000305   0.000207  -0.002105  -0.001480
     2  C    0.002439  -0.000215   0.000103  -0.000052   0.000168  -0.000254
     3  C    0.001576   0.003079  -0.000291   0.000127   0.001012  -0.001935
     4  O   -0.000671  -0.000017  -0.000014  -0.000009  -0.000114  -0.000304
     5  H    0.000517   0.000409  -0.000218   0.000045   0.000729   0.000728
     6  O    0.000398  -0.001382   0.000097  -0.000684  -0.000256   0.000421
     7  H   -0.000262   0.000168  -0.000048  -0.000048   0.000108   0.000079
     8  C   -0.002087  -0.001034   0.000235  -0.000138  -0.000120   0.000419
     9  C   -0.000509  -0.001226   0.000201   0.000906  -0.000458   0.000270
    10  H   -0.000728  -0.000209   0.000080   0.000072   0.000249   0.000054
    11  O    0.000011  -0.000013  -0.000088   0.000006   0.000590   0.000510
    12  C    0.001490   0.000238  -0.000563  -0.000697  -0.000053   0.000009
    13  H    0.000325   0.000011   0.000154  -0.000016   0.000194   0.000078
    14  O    0.000011   0.006155   0.000063  -0.000075   0.000025  -0.000008
    15  H    0.000154   0.000063   0.001349  -0.000211  -0.000064   0.000010
    16  H   -0.000016  -0.000075  -0.000211   0.000709   0.000003  -0.000007
    17  H    0.000194   0.000025  -0.000064   0.000003  -0.000207   0.000035
    18  H    0.000078  -0.000008   0.000010  -0.000007   0.000035   0.002743
    19  H    0.000097   0.001378  -0.000171  -0.000049  -0.000017  -0.000001
    20  C   -0.000025  -0.000106   0.000067   0.000051  -0.000050   0.000247
    21  N   -0.000043  -0.000018   0.000005   0.000001   0.000005  -0.000043
    22  C    0.000021  -0.000028   0.000014  -0.000007   0.000008  -0.000024
    23  N    0.000014  -0.000282   0.000029  -0.000072  -0.000016   0.000013
    24  C   -0.000240   0.001500  -0.000087   0.000068   0.000065  -0.000046
    25  H   -0.000056  -0.000039   0.000026   0.000015  -0.000022   0.000125
    26  H    0.000002   0.000068  -0.000005   0.000007   0.000010  -0.000011
    27  O   -0.000000   0.000005  -0.000001   0.000002  -0.000001   0.000004
    28  O   -0.000346  -0.003630   0.000209  -0.000016  -0.000059   0.000088
              19         20         21         22         23         24
     1  C    0.000265   0.005047  -0.000596   0.000488   0.000400  -0.002061
     2  C   -0.000277   0.006903  -0.001043  -0.002054  -0.001732  -0.000010
     3  C    0.001970   0.055833   0.005520   0.014456  -0.002133   0.100648
     4  O   -0.000002  -0.000943   0.000176  -0.000085  -0.000040   0.000559
     5  H    0.000083   0.001113   0.000963  -0.000075   0.000072   0.001923
     6  O   -0.000927   0.007562  -0.000113  -0.000223   0.000844  -0.004245
     7  H    0.000153   0.023246   0.001446  -0.000331  -0.000551   0.002413
     8  C   -0.000833   0.313886  -0.011935  -0.022544  -0.024469   0.070587
     9  C   -0.000806  -0.000820   0.000255   0.000832  -0.001052  -0.000839
    10  H    0.000143   0.000222  -0.000065  -0.000015   0.000463  -0.002449
    11  O    0.000035  -0.000302   0.000015  -0.000024   0.000000   0.000105
    12  C   -0.000175   0.000681   0.000137   0.000099   0.000075   0.000214
    13  H    0.000097  -0.000025  -0.000043   0.000021   0.000014  -0.000240
    14  O    0.001378  -0.000106  -0.000018  -0.000028  -0.000282   0.001500
    15  H   -0.000171   0.000067   0.000005   0.000014   0.000029  -0.000087
    16  H   -0.000049   0.000051   0.000001  -0.000007  -0.000072   0.000068
    17  H   -0.000017  -0.000050   0.000005   0.000008  -0.000016   0.000065
    18  H   -0.000001   0.000247  -0.000043  -0.000024   0.000013  -0.000046
    19  H   -0.000803  -0.000600   0.000108   0.000160  -0.000223   0.002160
    20  C   -0.000600  -0.848256  -0.037003   0.063177   0.005755   0.145426
    21  N    0.000108  -0.037003   0.456437   0.009165   0.002042  -0.006628
    22  C    0.000160   0.063177   0.009165  -0.205265   0.024778   0.014450
    23  N   -0.000223   0.005755   0.002042   0.024778  -0.028824   0.027005
    24  C    0.002160   0.145426  -0.006628   0.014450   0.027005  -0.458389
    25  H   -0.000042  -0.074343  -0.005361   0.001842  -0.001302   0.000740
    26  H    0.000075   0.006508   0.000414  -0.003830  -0.003156  -0.002706
    27  O   -0.000015  -0.005660  -0.015647  -0.005359  -0.002798  -0.005580
    28  O   -0.003923   0.012743   0.001071  -0.001007   0.004580  -0.032340
              25         26         27         28
     1  C   -0.000033   0.000027  -0.000004  -0.002562
     2  C    0.005190  -0.000456   0.000358   0.000933
     3  C   -0.001624   0.001473  -0.000981  -0.007204
     4  O    0.000285  -0.000002   0.000001  -0.000101
     5  H   -0.000580   0.000167  -0.000097  -0.000513
     6  O    0.002294  -0.000266  -0.000020   0.008280
     7  H    0.005945   0.000041  -0.000057  -0.000517
     8  C    0.046391   0.000768   0.005318  -0.012019
     9  C    0.000516  -0.000191  -0.000024   0.001747
    10  H    0.000082  -0.000065   0.000002   0.000302
    11  O   -0.000042   0.000006  -0.000000   0.000054
    12  C    0.000175   0.000076  -0.000002  -0.000422
    13  H   -0.000056   0.000002  -0.000000  -0.000346
    14  O   -0.000039   0.000068   0.000005  -0.003630
    15  H    0.000026  -0.000005  -0.000001   0.000209
    16  H    0.000015   0.000007   0.000002  -0.000016
    17  H   -0.000022   0.000010  -0.000001  -0.000059
    18  H    0.000125  -0.000011   0.000004   0.000088
    19  H   -0.000042   0.000075  -0.000015  -0.003923
    20  C   -0.074343   0.006508  -0.005660   0.012743
    21  N   -0.005361   0.000414  -0.015647   0.001071
    22  C    0.001842  -0.003830  -0.005359  -0.001007
    23  N   -0.001302  -0.003156  -0.002798   0.004580
    24  C    0.000740  -0.002706  -0.005580  -0.032340
    25  H    0.018384   0.000106  -0.000100   0.000505
    26  H    0.000106   0.002498  -0.000501  -0.002796
    27  O   -0.000100  -0.000501   0.284881  -0.000177
    28  O    0.000505  -0.002796  -0.000177   0.155321
 Mulliken charges and spin densities:
               1          2
     1  C    0.712514   0.007918
     2  C    0.955876   0.039335
     3  C    1.125488  -0.074506
     4  O   -0.696434  -0.000562
     5  H   -0.427337  -0.008899
     6  O   -0.866557   0.027735
     7  H   -0.531419   0.001682
     8  C    1.221837   0.813140
     9  C    0.689192  -0.004912
    10  H   -0.579795  -0.000489
    11  O   -0.636940   0.003785
    12  C    1.216369  -0.000236
    13  H   -0.491471   0.001813
    14  O   -0.540425   0.004727
    15  H   -0.233337   0.001187
    16  H   -0.214507   0.000139
    17  H    0.170516  -0.000342
    18  H    0.166587   0.001720
    19  H    0.229698  -0.002235
    20  C    0.643506  -0.319639
    21  N   -0.593804   0.399267
    22  C    0.794672  -0.111380
    23  N   -0.411723  -0.000581
    24  C    0.415663  -0.147757
    25  H   -0.629686  -0.000922
    26  H   -0.057398  -0.001737
    27  O   -0.570280   0.253549
    28  O   -0.860807   0.118202
 Sum of Mulliken charges =  -0.00000   1.00000
 Mulliken charges and spin densities with hydrogens summed into heavy atoms:
               1          2
     1  C    0.132719   0.007428
     2  C    0.528540   0.030436
     3  C    0.594069  -0.072824
     4  O   -0.529847   0.001158
     6  O   -0.866557   0.027735
     8  C    1.221837   0.813140
     9  C    0.197722  -0.003100
    11  O   -0.466424   0.003443
    12  C    0.768525   0.001089
    14  O   -0.310727   0.002492
    20  C    0.013820  -0.320561
    21  N   -0.593804   0.399267
    22  C    0.794672  -0.111380
    23  N   -0.469121  -0.002318
    24  C    0.415663  -0.147757
    27  O   -0.570280   0.253549
    28  O   -0.860807   0.118202
 Electronic spatial extent (au):  <R**2>=           4144.6927
 Charge=             -0.0000 electrons
 Dipole moment (field-independent basis, Debye):
    X=              2.1728    Y=             -2.0583    Z=             -1.4353  Tot=              3.3193
 Quadrupole moment (field-independent basis, Debye-Ang):
   XX=           -117.2720   YY=           -108.7611   ZZ=            -91.7520
   XY=             -3.8664   XZ=             -3.9654   YZ=              0.4706
 Traceless Quadrupole moment (field-independent basis, Debye-Ang):
   XX=            -11.3436   YY=             -2.8327   ZZ=             14.1764
   XY=             -3.8664   XZ=             -3.9654   YZ=              0.4706
 Octapole moment (field-independent basis, Debye-Ang**2):
  XXX=            173.5882  YYY=             -7.1701  ZZZ=            -24.5823  XYY=            -23.8713
  XXY=              9.3593  XXZ=            -13.7000  XZZ=             19.8983  YZZ=             -1.9326
  YYZ=              2.2594  XYZ=              8.2854
 Hexadecapole moment (field-independent basis, Debye-Ang**3):
 XXXX=          -4483.7612 YYYY=          -1228.8498 ZZZZ=           -412.0990 XXXY=            -51.1828
 XXXZ=            -49.2877 YYYX=            -69.4390 YYYZ=            -13.0420 ZZZX=            -54.8497
 ZZZY=              2.3589 XXYY=           -807.2418 XXZZ=           -613.1775 YYZZ=           -241.4340
 XXYZ=             25.2684 YYXZ=              5.0173 ZZXY=            -13.4018
 N-N= 1.306045490153D+03 E-N=-4.741633973915D+03  KE= 9.046248717897D+02
                          Isotropic Fermi Contact Couplings
        Atom                 a.u.       MegaHertz       Gauss      10(-4) cm-1
     1  C(13)              0.00019       0.21343       0.07616       0.07119
     2  C(13)              0.01841      20.69394       7.38411       6.90276
     3  C(13)             -0.01951     -21.93163      -7.82575      -7.31560
     4  O(17)              0.00259      -1.56766      -0.55938      -0.52292
     5  H(1)              -0.00027      -1.20055      -0.42839      -0.40046
     6  O(17)              0.01469      -8.90567      -3.17776      -2.97061
     7  H(1)               0.00242      10.80615       3.85590       3.60454
     8  C(13)              0.07067      79.44555      28.34815      26.50018
     9  C(13)             -0.00141      -1.58258      -0.56470      -0.52789
    10  H(1)              -0.00009      -0.38521      -0.13745      -0.12849
    11  O(17)              0.00065      -0.39117      -0.13958      -0.13048
    12  C(13)             -0.00035      -0.39330      -0.14034      -0.13119
    13  H(1)               0.00109       4.88338       1.74251       1.62892
    14  O(17)              0.00043      -0.25764      -0.09193      -0.08594
    15  H(1)               0.00060       2.68787       0.95910       0.89658
    16  H(1)               0.00005       0.23735       0.08469       0.07917
    17  H(1)              -0.00007      -0.29069      -0.10373      -0.09696
    18  H(1)               0.00065       2.91551       1.04033       0.97251
    19  H(1)              -0.00022      -1.00457      -0.35845      -0.33509
[...]
 00003268,0.00001299,-0.00003309,-0.00002475,-0.00006579,-0.00041239,-0
 .00006659,-0.00029241,-0.04886626,0.05186673,-0.07194189,0.08703077,-0
 .16276878,0.16145847,-0.00047738,0.00055087,0.00015965,-0.00042215,0.0
 0005605,-0.00020453,-0.00257293,-0.00051897,0.00045196,0.00060591,-0.0
 0068589,-0.00013633,0.00013377,0.00010476,0.00019060,0.00158870,0.0002
 7653,0.00033194,0.00061135,-0.00037100,0.00029939,0.02000266,0.0023401
 8,-0.00009379,-0.00080615,-0.00015620,0.00020496,-0.00014831,-0.000080
 62,0.00014426,0.00059585,-0.00030358,-0.00027512,-0.00038682,0.0002826
 5,-0.00044420,0.00018200,-0.00009129,0.00002703,0.00088180,0.00004530,
 0.00046780,0.00011927,-0.00001607,-0.00001264,-0.00000734,-0.00002209,
 0.00012075,-0.00014582,0.00003765,0.00010554,-0.00009726,0.00007636,0.
 00005156,-0.00105077,-0.00046022,-0.00048824,-0.05661668,0.03529831,-0
 .02464478,-0.05993185,-0.03895732,0.02462380,0.88836266,0.00048893,0.0
 0180926,-0.00011965,-0.00060358,-0.00139114,-0.00251687,-0.00080643,-0
 .00007348,0.00450904,-0.00100778,-0.00006434,0.00037124,0.00017407,0.0
 0029669,0.00003073,-0.00221761,-0.00231297,0.00006383,0.00087887,-0.00
 024781,0.00016031,-0.00727545,-0.01331375,0.00262414,0.00058524,0.0002
 7585,-0.00069892,-0.00054462,-0.00009711,0.00026493,-0.00071495,-0.000
 69086,0.00043211,-0.00100222,0.00128187,-0.00098244,-0.00021585,-0.000
 14223,0.00016068,0.00187310,-0.00069297,0.00105619,0.00016803,-0.00023
 778,0.00012706,0.00008051,-0.00012278,0.00020421,-0.00008651,0.0001699
 6,-0.00007568,0.00020116,0.00029138,0.00009688,-0.00228800,-0.00055819
 ,-0.00130199,0.03076308,-0.00956466,0.00399510,0.01580869,-0.17683103,
 0.06036903,-0.06896582,0.46700033,-0.00037899,-0.00100095,0.00023725,0
 .00031409,0.00087171,0.00130166,-0.00031943,0.00113049,-0.00131221,0.0
 0037240,-0.00000336,-0.00031712,-0.00009166,-0.00020657,-0.00017990,0.
 00218191,0.00130444,-0.00024125,-0.00041078,0.00033206,-0.00018094,0.0
 0682221,0.00380364,-0.00906330,-0.00066343,-0.00025108,0.00076057,0.00
 038186,0.00013140,-0.00015085,0.00037942,0.00031936,-0.00036238,0.0006
 0513,-0.00066428,0.00050734,0.00023233,0.00009771,-0.00013918,-0.00087
 805,0.00041232,-0.00066495,-0.00006986,0.00015474,-0.00006622,-0.00006
 534,0.00003010,-0.00012917,0.00008202,-0.00009085,0.00005474,-0.000062
 14,-0.00009905,-0.00002905,0.00110512,0.00017754,0.00079096,-0.0222132
 8,0.00337263,-0.00902932,-0.00773499,0.05779250,-0.11136356,0.07586083
 ,-0.15762337,0.30900720,0.00062963,-0.00170957,0.00048932,0.00045313,-
 0.00031155,0.00090477,0.00245730,-0.00031228,-0.00124488,-0.00010138,0
 .00097993,-0.00011394,-0.00018570,-0.00033471,-0.00013224,0.00005211,0
 .00155463,-0.00109738,-0.00060541,0.00041538,-0.00016688,-0.01818711,0
 .02259746,-0.01473495,0.00066926,-0.00019780,0.00045842,0.00084126,0.0
 0021567,-0.00057253,-0.00080002,0.00103910,0.00001278,0.00119471,-0.00
 129300,0.00150818,-0.00006392,0.00020760,-0.00021038,-0.00277832,-0.00
 007413,-0.00180021,-0.00029324,0.00020379,-0.00013643,-0.00010597,0.00
 012891,-0.00038776,0.00027936,-0.00017608,-0.00019820,-0.00001178,-0.0
 0032223,-0.00007821,0.00367182,0.00204147,0.00255306,-0.00721165,0.000
 01561,-0.00007620,0.01337160,-0.00817394,0.00541382,-0.15337898,-0.031
 51491,0.01283685,0.72929993,-0.00012781,-0.00087745,0.00037365,-0.0004
 4983,0.00026259,0.00116127,-0.00264050,-0.00562332,0.00280465,0.000411
 42,0.00011084,-0.00041840,-0.00005963,-0.00012446,-0.00023158,0.000350
 14,0.00161077,-0.00046426,0.00170249,-0.00023682,0.00029119,0.03563113
 ,-0.00232454,0.00931828,-0.00042716,0.00004971,0.00038607,0.00036864,0
 .00013833,-0.00027638,0.00005843,0.00052018,-0.00023652,0.00059228,-0.
 00064299,0.00045518,0.00001806,0.00001705,-0.00007326,-0.00103059,0.00
 023117,-0.00063780,-0.00007632,0.00012826,-0.00003893,-0.00003729,0.00
 004785,-0.00010660,0.00006443,-0.00010020,-0.00002203,-0.00013744,-0.0
 0016439,-0.00007686,0.00093247,0.00035276,0.00079939,-0.00807188,0.000
 16654,-0.00057263,-0.01642851,-0.03354511,0.02787112,-0.05973086,-0.17
 534624,0.06784425,-0.03489379,0.61400792,0.00008797,0.00028145,-0.0001
 0656,-0.00003286,-0.00016661,-0.00072815,0.00163477,0.00434834,-0.0005
 5790,-0.00020648,0.00002058,0.00033429,-0.00005157,0.00007745,0.000185
 34,-0.00018803,-0.00129381,0.00061600,-0.00100133,-0.00000780,-0.00019
 506,-0.02336917,0.00933737,0.00450747,0.00038088,0.00031108,-0.0003353
 9,-0.00010774,0.00004924,0.00010326,-0.00016001,-0.00018220,0.00014532
 ,-0.00035043,0.00043612,-0.00037253,-0.00008701,-0.00004734,0.00005029
 ,0.00079185,-0.00001453,0.00053593,0.00005694,-0.00008958,0.00006853,0
 .00006697,-0.00003506,0.00010338,-0.00002672,0.00004913,-0.00002862,0.
 00004301,0.00006858,0.00002624,-0.00090359,-0.00066862,-0.00076734,0.0
 0463313,0.00015152,0.00039106,0.00989728,0.02819218,-0.00250470,0.0314
 5848,0.07040139,-0.09728159,0.05014263,-0.34073324,0.27517134,-0.00165
 534,0.00273722,-0.00020764,-0.00133686,0.00076317,-0.00360836,-0.00028
 553,0.03327768,-0.01585795,0.00013932,-0.00143170,0.00125773,0.0002200
 6,0.00110506,0.00130773,0.00280099,-0.00519369,0.00269469,-0.00587844,
 0.00031368,-0.00033077,-0.11416464,0.04356117,-0.03030488,-0.00152049,
 -0.00033954,-0.00057175,-0.00132948,-0.00069367,0.00077110,0.00117624,
 -0.00167484,-0.00002674,-0.00197509,0.00160774,-0.00204923,0.00056772,
 -0.00017431,0.00020538,0.00377744,0.00007749,0.00176243,0.00038830,-0.
 00029309,0.00014021,0.00009344,-0.00012905,0.00049594,-0.00040139,0.00
 023426,0.00028391,0.00010532,0.00051882,0.00038548,-0.00614707,-0.0030
 6587,-0.00186316,0.02126371,-0.02619721,0.01549061,-0.00289427,0.01822
 196,-0.01079954,-0.06071518,-0.04751635,0.02640179,-0.26923584,0.06532
 919,-0.04817066,0.76179666,0.00068048,0.00285839,-0.00105486,-0.000235
 61,-0.00162366,-0.00283650,0.01074860,0.00030063,0.00859911,-0.0015283
 8,0.00030831,0.00056374,0.00033380,0.00024405,0.00030820,-0.00064806,-
 0.00461859,0.00087377,-0.00111376,0.00103937,0.00008852,0.03621522,-0.
 16017184,0.05038911,0.00009696,-0.00036224,-0.00072113,-0.00106663,-0.
 00036243,0.00078752,-0.00043686,-0.00151924,0.00066686,-0.00216478,0.0
 0213861,-0.00170724,-0.00000817,-0.00018113,0.00015142,0.00396290,-0.0
 0041151,0.00184695,0.00031061,-0.00042759,0.00013442,0.00011574,-0.000
 16300,0.00034576,-0.00017624,0.00032453,0.00003317,0.00043544,0.000509
 97,0.00038292,-0.00491543,-0.00234845,-0.00189079,-0.02217116,-0.01900
 317,0.01640059,0.01534246,-0.00776825,0.00226991,0.00217847,0.03137748
 ,-0.02508346,0.03129510,-0.13692430,0.05161178,0.14283641,0.60794133,-
 0.00016128,-0.00198417,0.00032502,0.00013215,0.00211506,0.00274166,-0.
 00643791,-0.00114024,0.00005655,-0.00004865,0.00021469,-0.00063873,-0.
 00004305,-0.00057376,-0.00093684,0.00283386,0.00561403,-0.00049629,0.0
 0081767,0.00033811,0.00103596,-0.02616550,0.05233150,-0.11156727,-0.00
 140668,-0.00061115,0.00120813,0.00057272,0.00030761,-0.00049414,0.0005
 6015,0.00078664,-0.00053383,0.00118565,-0.00130477,0.00107126,0.000347
 14,0.00006183,-0.00020346,-0.00317530,-0.00002583,-0.00165960,-0.00018
 546,0.00030872,-0.00017634,-0.00017035,0.00006183,-0.00028340,0.000149
 87,-0.00017484,0.00002737,-0.00012399,-0.00010746,-0.00011770,0.003807
 54,0.00178609,0.00240004,0.01641973,0.01604273,0.00078070,-0.01034010,
 0.00183098,-0.00732471,-0.00249706,-0.02587861,0.00514552,-0.02816734,
 0.05433653,-0.08672964,-0.07514451,-0.26233895,0.35028509,-0.00004247,
 -0.00006405,0.00003395,-0.00011049,-0.00008031,-0.00001672,0.00101307,
 -0.00237839,0.00157958,0.00005980,0.00007245,-0.00011638,0.00003387,0.
 00000144,-0.00007668,0.00023150,0.00070585,-0.00011949,-0.00038848,0.0
 0074264,-0.00053268,0.00619347,-0.01939449,0.01172219,-0.00018870,0.00
 001886,0.00007486,0.00002385,0.00000915,-0.00001758,0.00007930,0.00004
 631,-0.00005444,0.00005721,-0.00006560,0.00002289,0.00001317,-0.000011
 54,-0.00000299,-0.00005108,0.00005938,-0.00003912,0.00000219,0.0000182
 4,-0.00000846,-0.00000755,0.00000086,-0.00000268,-0.00000576,-0.000010
 41,0.00001278,-0.00002989,0.00000602,0.00000174,0.00006470,-0.00001059
 ,0.00005002,-0.06023443,0.03745567,-0.02413639,-0.01578013,0.03160342,
 -0.01942513,-0.00283323,-0.00105116,-0.00042399,0.00074988,0.00093151,
 -0.00042560,-0.00491061,-0.00044760,-0.00020849,0.07703734,0.00006471,
 -0.00009948,-0.00003207,0.00013530,0.00019199,-0.00001370,0.00150920,-
 0.00077943,-0.00096607,0.00005186,0.00001636,-0.00002751,0.00005641,-0
 .00003761,-0.00006577,0.00003667,0.00021498,-0.00018240,-0.00098532,0.
 00065061,-0.00043400,0.00543902,-0.00979391,0.01167405,-0.00014435,0.0
 0005632,-0.00004415,0.00003607,0.00001588,-0.00002319,0.00005775,0.000
 06769,-0.00005079,0.00006117,-0.00007161,0.00005726,-0.00002493,-0.000
 01704,0.00000543,-0.00008201,0.00004960,-0.00006583,0.00000043,0.00001
 612,-0.00001210,-0.00000541,0.00000629,-0.00001282,0.00000349,-0.00000
 780,0.00000638,-0.00002137,0.00000173,0.00000824,0.00010234,0.00000613
 ,0.00008381,0.03674571,-0.24682000,0.12432263,0.00916854,-0.00261339,-
 0.00013857,-0.00099585,0.00595264,0.00522220,-0.00010616,-0.00011819,-
 0.00071874,-0.00349595,0.00208502,0.00189784,-0.04824289,0.25373644,0.
 00000358,-0.00002146,-0.00012140,0.00023060,0.00037366,0.00022952,0.00
 007483,-0.00153767,-0.00192555,-0.00000626,-0.00015726,-0.00001227,-0.
 00004079,0.00002730,-0.00002621,-0.00049540,-0.00026255,0.00027946,0.0
 0064563,-0.00006273,0.00018451,-0.00371828,0.01050033,0.00214558,0.000
 04166,-0.00013024,-0.00005526,-0.00001476,0.00000384,0.00001371,0.0000
 1016,-0.00004649,0.00001087,-0.00010043,0.00006516,-0.00001455,-0.0000
 0135,0.00000022,0.00000306,0.00006945,-0.00003388,0.00002629,0.0000046
 4,-0.00002611,-0.00000042,0.00000028,-0.00000866,0.00000533,0.00000701
 ,0.00001119,0.00000164,0.00002900,-0.00002471,-0.00002020,-0.00007560,
 -0.00002071,-0.00003189,-0.02387468,0.12435651,-0.12270745,-0.00595816
 ,0.00125120,-0.00390407,-0.00021986,0.00499113,0.01103216,0.00000464,-
 0.00058706,-0.00091364,0.00163075,0.00207413,0.00492442,0.03195839,-0.
 13989141,0.11437104,-0.00003980,0.00010429,-0.00004549,0.00006156,0.00
 003290,-0.00019161,0.00077069,0.00160805,-0.00080614,-0.00003573,-0.00
 003028,0.00009171,-0.00000304,0.00002359,0.00006923,0.00013086,-0.0002
 8887,0.00015855,-0.00053605,0.00007522,-0.00007948,-0.00645045,-0.0002
 2071,-0.00027778,0.00004292,-0.00000128,-0.00004922,-0.00004861,-0.000
 01305,0.00003358,0.00004199,-0.00007843,0.00002050,-0.00011089,0.00010
 783,-0.00010155,0.00000960,-0.00000573,0.00000902,0.00019406,-0.000056
 85,0.00013167,0.00001880,-0.00002116,0.00000723,0.00000601,-0.00000747
 ,0.00002956,-0.00002014,0.00001737,0.00000779,0.00001213,0.00003497,0.
 00001817,-0.00018310,-0.00003119,-0.00015057,-0.00166168,0.00017766,-0
 .00019141,-0.00331056,-0.00586531,0.00307239,0.01770818,-0.02010672,0.
 01350191,-0.10017054,0.08309057,-0.05530079,-0.00178814,0.03190904,-0.
 02035985,0.00016234,0.00000500,0.00004759,0.09227899,0.00012261,0.0000
 1534,-0.00000200,0.00013445,-0.00020866,0.00002607,-0.00028215,0.00030
 167,0.00016042,-0.00011672,0.00011658,-0.00003390,-0.00000825,-0.00003
 588,-0.00005088,-0.00018143,-0.00004364,-0.00007862,-0.00002276,-0.000
 05277,-0.00005826,0.00005519,0.00327442,0.00140160,0.00015005,0.000020
 36,-0.00000210,0.00004438,0.00003139,-0.00001349,-0.00016223,0.0000122
 9,0.00003279,-0.00000520,0.00002929,0.00002736,-0.00003170,-0.00000141
 ,-0.00000481,-0.00008877,-0.00018822,-0.00006446,-0.00001140,-0.000001
 66,-0.00000315,-0.00000354,-0.00000139,-0.00001847,0.00003361,0.000011
 05,-0.00002092,0.00003326,-0.00000338,-0.00000372,0.00020081,0.0002786
 7,0.00014692,-0.00068140,0.00025342,-0.00076662,-0.00295979,0.00061769
 ,0.00279323,0.00564676,-0.01422248,0.00834708,0.08278749,-0.30258633,0
 .17985786,0.00452028,0.00011141,0.00113605,0.00018475,-0.00030819,-0.0
 0034930,-0.08998495,0.31377830,-0.00007471,0.00000896,0.00001600,0.000
 02027,0.00008269,0.00011715,0.00021730,0.00035710,0.00018982,0.0000492
 8,-0.00006543,-0.00004133,-0.00001093,-0.00000375,-0.00000523,0.000059
 49,-0.00021218,-0.00005304,0.00000290,-0.00005076,-0.00004100,-0.00046
 912,0.00139924,0.00452533,-0.00009711,0.00002121,0.00001024,-0.0000343
 8,-0.00000224,0.00003779,0.00009952,-0.00004898,-0.00006054,-0.0000314
 9,0.00004695,-0.00003957,0.00001376,-0.00000743,0.00000476,0.00010438,
 -0.00004337,-0.00002901,0.00001832,-0.00000372,0.00000170,-0.00001222,
 -0.00000591,-0.00000325,-0.00000168,0.00000110,0.00003342,-0.00000698,
 0.00000976,0.00000740,-0.00016988,0.00000478,0.00004443,0.00025550,-0.
 00063189,-0.00039131,0.00125822,0.00250265,0.00386792,-0.00279601,0.00
 636280,-0.00522877,-0.05515636,0.18094568,-0.13408823,-0.00286569,0.00
 216241,0.00000750,-0.00006548,-0.00034314,-0.00069026,0.05959744,-0.18
 825943,0.13707345,0.00056287,-0.00009045,-0.00000140,0.00017261,-0.000
 65808,-0.00035807,0.00134367,0.00038767,0.00040453,-0.00060843,0.00061
 427,0.00011858,-0.00005858,-0.00006077,-0.00011458,-0.00134609,-0.0003
 2431,-0.00025472,-0.00025869,0.00006841,-0.00007503,-0.01225811,-0.001
 35522,0.00001889,0.00075878,0.00009598,-0.00022026,0.00011669,0.000048
 19,-0.00012918,-0.00071959,0.00021467,0.00027191,0.00018290,-0.0000922
 9,0.00031487,-0.00017559,0.00005255,-0.00001589,-0.00057393,-0.0002229
 6,-0.00034867,-0.00008529,-0.00001500,0.00000537,0.00000669,0.00001217
 ,-0.00009805,0.00011577,-0.00001447,-0.00012447,0.00010086,-0.00004579
 ,-0.00001554,0.00067800,0.00051928,0.00044306,0.02620512,0.00705610,-0
 .00265500,-0.05381170,0.05847035,-0.03908814,-0.60354787,0.11086729,-0
 .09433252,-0.10909869,-0.01138897,0.00000961,0.02262656,-0.01613610,0.
 00998950,-0.00155904,0.00059152,-0.00031326,-0.00076713,0.00254625,-0.
 00126403,0.74244123,-0.00030796,-0.00050955,0.00005807,0.00007061,0.00
 062382,0.00072552,-0.00003060,0.00005567,-0.00124786,0.00042212,-0.000
 12823,-0.00011559,-0.00003433,-0.00006648,0.00001866,0.00103212,0.0007
 3841,0.00002112,-0.00027093,0.00012706,-0.00009190,0.00085644,0.001122
 02,-0.00079855,-0.00040419,-0.00010062,0.00028619,0.00011335,0.0000083
 3,-0.00004838,0.00041834,0.00015100,-0.00019890,0.00026918,-0.00036452
 ,0.00019463,0.00011644,0.00003315,-0.00004245,-0.00038886,0.00029679,-
 0.00021281,-0.00002485,0.00007665,-0.00003477,-0.00002654,0.00002974,-
 0.00003024,-0.00001209,-0.00005179,0.00005736,-0.00009402,-0.00006450,
 -0.00002076,0.00042907,-0.00001159,0.00024551,-0.00266003,-0.00559779,
 0.00462246,0.05698246,-0.01777659,0.02627742,0.12356440,-0.11698665,0.
 03181566,-0.03612738,0.02260449,-0.00262335,0.00751557,-0.00362771,0.0
 0590051,0.00174200,-0.00073587,-0.00055381,0.00303802,0.00106207,-0.00
 242149,-0.15126113,0.12020633,0.00023372,0.00034518,-0.00003460,-0.000
 05789,-0.00049979,-0.00062610,-0.00000567,0.00000205,0.00077598,-0.000
 26571,0.00013739,0.00012504,0.00003033,0.00004149,0.00003408,-0.000701
 12,-0.00039411,-0.00000016,0.00016025,-0.00011140,0.00004851,-0.001239
 90,-0.00120813,-0.00009191,0.00032100,0.00003766,-0.00018508,-0.000078
 84,-0.00003986,0.00001829,-0.00029493,-0.00005884,0.00017405,-0.000126
 38,0.00016013,-0.00008677,-0.00007574,-0.00000736,0.00002548,0.0001294
 5,-0.00014671,0.00013270,-0.00000095,-0.00004182,0.00001708,0.00002027
 ,-0.00000607,0.00001941,-0.00000208,0.00002043,-0.00005236,0.00004892,
 0.00002557,0.00000650,-0.00014838,0.00004468,-0.00014485,0.00314407,0.
 00524836,-0.00039815,-0.03832668,0.02643156,0.00294196,-0.10165480,0.0
 3106276,-0.09884970,0.01492473,-0.00131648,0.02268332,-0.00349230,0.00
 531138,0.00336573,-0.00102799,-0.00063713,-0.00146725,-0.00178515,-0.0
 0249307,-0.00174396,0.12801814,-0.06148278,0.07463118,-0.00028342,-0.0
 0332562,0.00179968,0.00074386,0.00024339,0.00221030,-0.00322171,-0.005
 42211,-0.00182055,0.00035563,0.00098113,-0.00045390,-0.00019991,-0.000
 54963,-0.00058388,-0.00097329,0.00613801,-0.00405627,0.00074433,0.0001
 0610,-0.00016270,0.00649619,-0.02607491,0.01734779,0.00137512,-0.00011
 688,0.00096765,-0.00070270,0.00178765,-0.00120999,-0.00108657,0.002092
 78,-0.00041433,0.00202422,-0.00207219,0.00202431,-0.00021638,0.0002669
 8,-0.00020295,-0.00600000,-0.00158143,-0.00354742,-0.00047483,0.000397
 41,-0.00022070,-0.00021822,0.00018615,-0.00051808,0.00040739,-0.000284
 28,-0.00034713,-0.00021086,-0.00053919,-0.00025902,0.00223430,0.002587
 93,0.00185708,0.00532917,0.00379715,-0.00155057,-0.00343744,-0.0069236
 5,0.00376567,0.01234654,0.02402896,-0.01343341,-0.09144144,-0.05398019
 ,0.03117848,-0.34071738,-0.22541244,0.13781950,0.00042016,0.00003908,0
 .00006063,0.00368773,-0.00191962,0.00135971,-0.01044303,-0.00492720,0.
 00225364,0.42346255,-0.00034301,-0.00127787,-0.00030695,-0.00053161,0.
 00163631,0.00104922,-0.00375481,-0.00042911,-0.00425169,0.00108533,-0.
 00007089,-0.00014437,0.00013481,-0.00008327,0.00018984,0.00262960,0.00
 285835,0.00130201,-0.00004855,0.00042634,-0.00014079,-0.03381330,-0.03
 796022,0.03611329,-0.00112692,-0.00045714,0.00047434,0.00114960,-0.000
 94379,-0.00038335,0.00090837,0.00074431,-0.00014620,0.00192298,-0.0032
 7388,0.00248615,0.00022314,0.00034092,-0.00012130,-0.00656756,0.001085
 03,-0.00343792,-0.00052840,0.00055398,-0.00038916,-0.00022865,0.000342
 01,-0.00053300,-0.00000157,-0.00027195,0.00006387,-0.00025556,-0.00033
 604,-0.00006042,0.00602129,0.00131918,0.00315565,0.01176419,-0.0040862
 8,0.00300889,-0.00443125,-0.00008488,0.00006493,0.00089745,0.00444099,
 0.00186315,-0.02793461,0.01836589,0.00138682,-0.23241442,-0.30972598,0
 .14906902,-0.00184152,-0.00166528,0.00005938,-0.00351251,-0.00225994,-
 0.00180564,0.00012085,-0.00111366,-0.00042509,0.29047663,0.33192689,0.
 00032721,0.00157321,-0.00088541,-0.00037975,-0.00092089,-0.00222073,0.
 00111282,-0.00144573,-0.00040217,0.00009794,-0.00042668,0.00069898,0.0
 0035351,0.00060148,0.00079705,-0.00427716,0.00179703,-0.00268881,0.000
 08459,-0.00002361,0.00007294,0.02205770,0.03541168,-0.00268885,0.00215
 314,-0.00009117,-0.00103429,-0.00086698,-0.00064402,0.00039288,0.00003
 718,-0.00074577,0.00064986,-0.00030738,0.00001901,0.00017303,-0.000375
 08,0.00005251,0.00030482,0.00002018,-0.00029793,0.00081514,-0.00012379
 ,-0.00007386,-0.00007815,0.00008340,0.00007477,0.00012677,-0.00027054,
 0.00017678,0.00000125,0.00006936,0.00013049,0.00008818,-0.00101351,-0.
 00010848,-0.00216608,-0.00796885,0.00304043,-0.00164771,0.00298968,-0.
 00008450,0.00010938,-0.00103118,0.00191398,0.00575206,0.01502471,-0.00
 079520,0.01968760,0.14246542,0.15063126,-0.16221300,0.00124389,0.00038
 157,-0.00133715,0.00254271,-0.00170618,-0.00352142,-0.00018566,-0.0002
 9946,-0.00131842,-0.17386355,-0.18814068,0.15253222\\0.00000824,0.0000
 0147,-0.00000687,-0.00000441,-0.00000233,0.00000236,-0.00000491,-0.000
 01779,0.00000306,-0.00000439,0.00000195,0.00000322,0.00000426,0.000001
 51,-0.00000375,-0.00000715,0.00000472,0.00000590,0.00000342,0.00000123
 ,-0.00000335,0.00000176,0.00000827,-0.00000621,0.00001123,0.00000030,0
 .00000028,0.00000055,0.00000245,0.00000120,-0.00000303,-0.00000320,-0.
 00000234,0.00000132,0.00000247,0.00000350,-0.00000277,0.00000244,0.000
 00012,-0.00000229,0.00000178,0.00000389,-0.00000208,0.00000199,0.,0.00
 000017,-0.00000184,0.00000150,0.00000212,0.00000456,-0.00000101,0.0000
 0079,0.00000194,-0.00000191,-0.00000048,0.,-0.00000153,-0.00001047,-0.
 00000351,-0.00000465,0.00000913,-0.00001968,0.00001387,-0.00001714,0.0
 0002932,-0.00001304,-0.00000587,-0.00000555,-0.00000963,0.00000616,-0.
 00001683,0.00001602,0.00000314,0.00000120,0.00000070,0.00000163,0.0000
 0074,0.00000223,0.00001112,-0.00000900,0.00000212,-0.00000006,0.000011
 38,-0.00000569\\\@
 The archive entry for this job was punched.


 THERE'S NOTHING SO GREAT AS THE GREAT OUTDOORS.

                                       -- ZIGGY
 Job cpu time:       0 days 17 hours  6 minutes 56.8 seconds.
 Elapsed time:       0 days  0 hours 25 minutes 53.6 seconds.
 File lengths (MBytes):  RWF=   1167 Int=      0 D2E=      0 Chk=     28 Scr=      1
 Normal termination of Gaussian 16 at Mon Oct 28 06:33:12 2024.
