 Entering Gaussian System, Link 0=g16
 Input=UridineNsllgPBE0aVDZ.gjf
 Output=UridineNsllgPBE0aVDZ.log
 Initial command:
 /sw/contrib/chem-src/g16/c01/g16/l1.exe "/scr/Gau-2358.inp" -scrdir="/scr/"
 Entering Link 1 = /sw/contrib/chem-src/g16/c01/g16/l1.exe PID=      2359.
  
 Copyright (c) 1988-2019, Gaussian, Inc.  All Rights Reserved.
  
 This is part of the Gaussian(R) 16 program.  It is based on
 the Gaussian(R) 09 system (copyright 2009, Gaussian, Inc.),
 the Gaussian(R) 03 system (copyright 2003, Gaussian, Inc.),
 the Gaussian(R) 98 system (copyright 1998, Gaussian, Inc.),
 the Gaussian(R) 94 system (copyright 1995, Gaussian, Inc.),
 the Gaussian 92(TM) system (copyright 1992, Gaussian, Inc.),
 the Gaussian 90(TM) system (copyright 1990, Gaussian, Inc.),
 the Gaussian 88(TM) system (copyright 1988, Gaussian, Inc.),
 the Gaussian 86(TM) system (copyright 1986, Carnegie Mellon
 University), and the Gaussian 82(TM) system (copyright 1983,
 Carnegie Mellon University). Gaussian is a federally registered
 trademark of Gaussian, Inc.
  
 This software contains proprietary and confidential information,
 including trade secrets, belonging to Gaussian, Inc.
  
 This software is provided under written license and may be
 used, copied, transmitted, or stored only in accord with that
 written license.
  
 The following legend is applicable only to US Government
 contracts under FAR:
  
                    RESTRICTED RIGHTS LEGEND
  
 Use, reproduction and disclosure by the US Government is
 subject to restrictions as set forth in subparagraphs (a)
 and (c) of the Commercial Computer Software - Restricted
 Rights clause in FAR 52.227-19.
  
 Gaussian, Inc.
 340 Quinnipiac St., Bldg. 40, Wallingford CT 06492
  
  
 ---------------------------------------------------------------
 Warning -- This program may not be used in any manner that
 competes with the business of Gaussian, Inc. or will provide
 assistance to any competitor of Gaussian, Inc.  The licensee
 of this program is prohibited from giving any competitor of
 Gaussian, Inc. access to this program.  By using this program,
 the user acknowledges that Gaussian, Inc. is engaged in the
 business of creating and licensing software in the field of
 computational chemistry and represents and warrants to the
 licensee that it is not a competitor of Gaussian, Inc. and that
 it will not use this program in any manner prohibited above.
 ---------------------------------------------------------------
  

 Cite this work as:
 Gaussian 16, Revision C.01,
 M. J. Frisch, G. W. Trucks, H. B. Schlegel, G. E. Scuseria, 
 M. A. Robb, J. R. Cheeseman, G. Scalmani, V. Barone, 
 G. A. Petersson, H. Nakatsuji, X. Li, M. Caricato, A. V. Marenich, 
 J. Bloino, B. G. Janesko, R. Gomperts, B. Mennucci, H. P. Hratchian, 
 J. V. Ortiz, A. F. Izmaylov, J. L. Sonnenberg, D. Williams-Young, 
 F. Ding, F. Lipparini, F. Egidi, J. Goings, B. Peng, A. Petrone, 
 T. Henderson, D. Ranasinghe, V. G. Zakrzewski, J. Gao, N. Rega, 
 G. Zheng, W. Liang, M. Hada, M. Ehara, K. Toyota, R. Fukuda, 
 J. Hasegawa, M. Ishida, T. Nakajima, Y. Honda, O. Kitao, H. Nakai, 
 T. Vreven, K. Throssell, J. A. Montgomery, Jr., J. E. Peralta, 
 F. Ogliaro, M. J. Bearpark, J. J. Heyd, E. N. Brothers, K. N. Kudin, 
 V. N. Staroverov, T. A. Keith, R. Kobayashi, J. Normand, 
 K. Raghavachari, A. P. Rendell, J. C. Burant, S. S. Iyengar, 
 J. Tomasi, M. Cossi, J. M. Millam, M. Klene, C. Adamo, R. Cammi, 
 J. W. Ochterski, R. L. Martin, K. Morokuma, O. Farkas, 
 J. B. Foresman, and D. J. Fox, Gaussian, Inc., Wallingford CT, 2019.
 
 ******************************************
 Gaussian 16:  EM64L-G16RevC.01  3-Jul-2019
                17-Oct-2024 
 ******************************************
 %nprocshared=40
 Will use up to   40 processors via shared memory.
 %mem=50gb
 ------------------------------------------------------
 # PBE1PBE/aug-cc-pVDZ opt freq EmpiricalDispersion=GD3
 ------------------------------------------------------
 1/18=20,19=15,26=3,38=1/1,3;
 2/9=110,12=2,17=6,18=5,40=1/2;
 3/5=16,7=10,11=2,25=1,30=1,71=1,74=-13,124=31/1,2,3;
 4//1;
 5/5=2,38=5/2;
 6/7=2,8=2,9=2,10=2,28=1/1;
 7//1,2,3,16;
 1/18=20,19=15,26=3/3(2);
 2/9=110/2;
 99//99;
 2/9=110/2;
 3/5=16,7=10,11=2,25=1,30=1,71=1,74=-13,124=31/1,2,3;
 4/5=5,16=3,69=1/1;
 5/5=2,38=5/2;
 7//1,2,3,16;
 1/18=20,19=15,26=3/3(-5);
 2/9=110/2;
 6/7=2,8=2,9=2,10=2,19=2,28=1/1;
 99/9=1/99;
 ----
 blah
 ----
 Symbolic Z-matrix:
 Charge =  0 Multiplicity = 1
 C                    -2.98114  -1.82482   0.57537 
 C                    -2.23084  -1.32533  -0.64486 
 C                    -1.84206   0.10601  -0.22133 
 O                    -3.13038  -1.32977  -1.77066 
 H                    -1.38815  -1.97274  -0.90578 
 O                    -2.74062   0.51483   0.82867 
 H                    -1.99357   0.80121  -1.05645 
 N                    -0.44918   0.21379   0.20468 
 C                    -3.67734  -0.55787   1.05253 
 H                    -2.26445  -2.19517   1.31606 
 O                    -3.89702  -2.86613   0.25997 
 C                    -4.10466  -0.59976   2.52064 
 H                    -4.56663  -0.34736   0.44464 
 O                    -3.02795  -0.97822   3.38071 
 H                    -4.93153  -1.30221   2.66959 
 H                    -4.43244   0.39401   2.84157 
 H                    -4.16073  -2.70393  -0.67125 
 H                    -2.61005  -1.01454  -2.5362 
 H                    -3.11     -1.93697   3.53275 
 C                    -0.0932    0.33333   1.53399 
 C                     1.18207   0.42866   1.91665 
 C                     2.23676   0.40526   0.89213 
 N                     1.8082    0.28301  -0.39761 
 C                     0.50587   0.17173  -0.80359 
 H                    -0.88917   0.3548    2.27461 
 H                     1.48371   0.52709   2.95077 
 H                     2.51638   0.25898  -1.11432 
 O                     3.42043   0.48347   1.19679 
 O                     0.22646   0.0197   -1.99192 
 

 GradGradGradGradGradGradGradGradGradGradGradGradGradGradGradGradGradGrad
 Berny optimization.
 Initialization pass.
                           ----------------------------
                           !    Initial Parameters    !
                           ! (Angstroms and Degrees)  !
 --------------------------                            --------------------------
 ! Name  Definition              Value          Derivative Info.                !
 --------------------------------------------------------------------------------
 ! R1    R(1,2)                  1.517          estimate D2E/DX2                !
 ! R2    R(1,9)                  1.5223         estimate D2E/DX2                !
 ! R3    R(1,10)                 1.0952         estimate D2E/DX2                !
 ! R4    R(1,11)                 1.4222         estimate D2E/DX2                !
 ! R5    R(2,3)                  1.5425         estimate D2E/DX2                !
 ! R6    R(2,4)                  1.441          estimate D2E/DX2                !
 ! R7    R(2,5)                  1.0942         estimate D2E/DX2                !
 ! R8    R(3,6)                  1.4412         estimate D2E/DX2                !
 ! R9    R(3,7)                  1.0971         estimate D2E/DX2                !
 ! R10   R(3,8)                  1.4606         estimate D2E/DX2                !
 ! R11   R(4,18)                 0.9778         estimate D2E/DX2                !
 ! R12   R(6,9)                  1.4416         estimate D2E/DX2                !
 ! R13   R(8,20)                 1.3813         estimate D2E/DX2                !
 ! R14   R(8,24)                 1.3894         estimate D2E/DX2                !
 ! R15   R(9,12)                 1.5296         estimate D2E/DX2                !
 ! R16   R(9,13)                 1.0976         estimate D2E/DX2                !
 ! R17   R(11,17)                0.9813         estimate D2E/DX2                !
 ! R18   R(12,14)                1.4291         estimate D2E/DX2                !
 ! R19   R(12,15)                1.0951         estimate D2E/DX2                !
 ! R20   R(12,16)                1.0945         estimate D2E/DX2                !
 ! R21   R(14,19)                0.9742         estimate D2E/DX2                !
 ! R22   R(20,21)                1.3349         estimate D2E/DX2                !
 ! R23   R(20,25)                1.0875         estimate D2E/DX2                !
 ! R24   R(21,22)                1.4706         estimate D2E/DX2                !
 ! R25   R(21,26)                1.0817         estimate D2E/DX2                !
 ! R26   R(22,23)                1.3646         estimate D2E/DX2                !
 ! R27   R(22,28)                1.2247         estimate D2E/DX2                !
 ! R28   R(23,24)                1.3687         estimate D2E/DX2                !
 ! R29   R(23,27)                1.0079         estimate D2E/DX2                !
 ! R30   R(24,29)                1.2302         estimate D2E/DX2                !
 ! A1    A(2,1,9)              101.7873         estimate D2E/DX2                !
 ! A2    A(2,1,10)             109.3704         estimate D2E/DX2                !
 ! A3    A(2,1,11)             112.4084         estimate D2E/DX2                !
 ! A4    A(9,1,10)             111.6364         estimate D2E/DX2                !
 ! A5    A(9,1,11)             112.6038         estimate D2E/DX2                !
 ! A6    A(10,1,11)            108.894          estimate D2E/DX2                !
 ! A7    A(1,2,3)              102.0834         estimate D2E/DX2                !
 ! A8    A(1,2,4)              108.5805         estimate D2E/DX2                !
 ! A9    A(1,2,5)              112.2025         estimate D2E/DX2                !
 ! A10   A(3,2,4)              112.0059         estimate D2E/DX2                !
 ! A11   A(3,2,5)              114.8593         estimate D2E/DX2                !
 ! A12   A(4,2,5)              107.0149         estimate D2E/DX2                !
 ! A13   A(2,3,6)              107.8261         estimate D2E/DX2                !
 ! A14   A(2,3,7)              110.1324         estimate D2E/DX2                !
 ! A15   A(2,3,8)              112.8882         estimate D2E/DX2                !
 ! A16   A(6,3,7)              106.7812         estimate D2E/DX2                !
 ! A17   A(6,3,8)              111.171          estimate D2E/DX2                !
 ! A18   A(7,3,8)              107.8764         estimate D2E/DX2                !
 ! A19   A(2,4,18)             106.1685         estimate D2E/DX2                !
 ! A20   A(3,6,9)              107.8893         estimate D2E/DX2                !
 ! A21   A(3,8,20)             122.1982         estimate D2E/DX2                !
 ! A22   A(3,8,24)             116.2076         estimate D2E/DX2                !
 ! A23   A(20,8,24)            121.589          estimate D2E/DX2                !
 ! A24   A(1,9,6)              105.869          estimate D2E/DX2                !
 ! A25   A(1,9,12)             113.9415         estimate D2E/DX2                !
 ! A26   A(1,9,13)             110.8884         estimate D2E/DX2                !
 ! A27   A(6,9,12)             110.5453         estimate D2E/DX2                !
 ! A28   A(6,9,13)             107.3222         estimate D2E/DX2                !
 ! A29   A(12,9,13)            108.0884         estimate D2E/DX2                !
 ! A30   A(1,11,17)            105.2171         estimate D2E/DX2                !
 ! A31   A(9,12,14)            111.9876         estimate D2E/DX2                !
 ! A32   A(9,12,15)            111.0414         estimate D2E/DX2                !
 ! A33   A(9,12,16)            109.8898         estimate D2E/DX2                !
 ! A34   A(14,12,15)           108.4904         estimate D2E/DX2                !
 ! A35   A(14,12,16)           106.8346         estimate D2E/DX2                !
 ! A36   A(15,12,16)           108.4445         estimate D2E/DX2                !
 ! A37   A(12,14,19)           106.9238         estimate D2E/DX2                !
 ! A38   A(8,20,21)            121.8877         estimate D2E/DX2                !
 ! A39   A(8,20,25)            117.9367         estimate D2E/DX2                !
 ! A40   A(21,20,25)           120.1745         estimate D2E/DX2                !
 ! A41   A(20,21,22)           118.969          estimate D2E/DX2                !
 ! A42   A(20,21,26)           123.1587         estimate D2E/DX2                !
 ! A43   A(22,21,26)           117.8718         estimate D2E/DX2                !
 ! A44   A(21,22,23)           115.7638         estimate D2E/DX2                !
 ! A45   A(21,22,28)           121.254          estimate D2E/DX2                !
 ! A46   A(23,22,28)           122.9807         estimate D2E/DX2                !
 ! A47   A(22,23,24)           125.9075         estimate D2E/DX2                !
 ! A48   A(22,23,27)           116.974          estimate D2E/DX2                !
 ! A49   A(24,23,27)           117.1119         estimate D2E/DX2                !
 ! A50   A(8,24,23)            115.8708         estimate D2E/DX2                !
 ! A51   A(8,24,29)            123.2718         estimate D2E/DX2                !
 ! A52   A(23,24,29)           120.844          estimate D2E/DX2                !
 ! D1    D(9,1,2,3)             34.8204         estimate D2E/DX2                !
 ! D2    D(9,1,2,4)            -83.6189         estimate D2E/DX2                !
 ! D3    D(9,1,2,5)            158.3056         estimate D2E/DX2                !
 ! D4    D(10,1,2,3)           -83.3844         estimate D2E/DX2                !
 ! D5    D(10,1,2,4)           158.1763         estimate D2E/DX2                !
 ! D6    D(10,1,2,5)            40.1008         estimate D2E/DX2                !
 ! D7    D(11,1,2,3)           155.5344         estimate D2E/DX2                !
 ! D8    D(11,1,2,4)            37.095          estimate D2E/DX2                !
 ! D9    D(11,1,2,5)           -80.9805         estimate D2E/DX2                !
 ! D10   D(2,1,9,6)            -37.4897         estimate D2E/DX2                !
 ! D11   D(2,1,9,12)          -159.1861         estimate D2E/DX2                !
 ! D12   D(2,1,9,13)            78.6017         estimate D2E/DX2                !
 ! D13   D(10,1,9,6)            79.0794         estimate D2E/DX2                !
 ! D14   D(10,1,9,12)          -42.617          estimate D2E/DX2                !
 ! D15   D(10,1,9,13)         -164.8293         estimate D2E/DX2                !
 ! D16   D(11,1,9,6)          -158.067          estimate D2E/DX2                !
 ! D17   D(11,1,9,12)           80.2366         estimate D2E/DX2                !
 ! D18   D(11,1,9,13)          -41.9756         estimate D2E/DX2                !
 ! D19   D(2,1,11,17)          -28.3829         estimate D2E/DX2                !
 ! D20   D(9,1,11,17)           85.8862         estimate D2E/DX2                !
 ! D21   D(10,1,11,17)        -149.7368         estimate D2E/DX2                !
 ! D22   D(1,2,3,6)            -21.677          estimate D2E/DX2                !
 ! D23   D(1,2,3,7)           -137.838          estimate D2E/DX2                !
 ! D24   D(1,2,3,8)            101.5218         estimate D2E/DX2                !
 ! D25   D(4,2,3,6)             94.2982         estimate D2E/DX2                !
 ! D26   D(4,2,3,7)            -21.8629         estimate D2E/DX2                !
 ! D27   D(4,2,3,8)           -142.5031         estimate D2E/DX2                !
 ! D28   D(5,2,3,6)           -143.3515         estimate D2E/DX2                !
 ! D29   D(5,2,3,7)            100.4874         estimate D2E/DX2                !
 ! D30   D(5,2,3,8)            -20.1528         estimate D2E/DX2                !
 ! D31   D(1,2,4,18)          -179.277          estimate D2E/DX2                !
 ! D32   D(3,2,4,18)            68.7569         estimate D2E/DX2                !
 ! D33   D(5,2,4,18)           -57.9596         estimate D2E/DX2                !
 ! D34   D(2,3,6,9)             -1.4996         estimate D2E/DX2                !
 ! D35   D(7,3,6,9)            116.8337         estimate D2E/DX2                !
 ! D36   D(8,3,6,9)           -125.7395         estimate D2E/DX2                !
 ! D37   D(2,3,8,20)          -105.0366         estimate D2E/DX2                !
 ! D38   D(2,3,8,24)            74.1424         estimate D2E/DX2                !
 ! D39   D(6,3,8,20)            16.2853         estimate D2E/DX2                !
 ! D40   D(6,3,8,24)          -164.5356         estimate D2E/DX2                !
 ! D41   D(7,3,8,20)           133.0441         estimate D2E/DX2                !
 ! D42   D(7,3,8,24)           -47.7768         estimate D2E/DX2                !
 ! D43   D(3,6,9,1)             24.4092         estimate D2E/DX2                !
 ! D44   D(3,6,9,12)           148.2632         estimate D2E/DX2                !
 ! D45   D(3,6,9,13)           -94.0772         estimate D2E/DX2                !
 ! D46   D(3,8,20,21)          179.8595         estimate D2E/DX2                !
 ! D47   D(3,8,20,25)           -0.5273         estimate D2E/DX2                !
 ! D48   D(24,8,20,21)           0.7242         estimate D2E/DX2                !
 ! D49   D(24,8,20,25)        -179.6626         estimate D2E/DX2                !
 ! D50   D(3,8,24,23)          179.5449         estimate D2E/DX2                !
 ! D51   D(3,8,24,29)           -1.7765         estimate D2E/DX2                !
 ! D52   D(20,8,24,23)          -1.2706         estimate D2E/DX2                !
 ! D53   D(20,8,24,29)         177.4079         estimate D2E/DX2                !
 ! D54   D(1,9,12,14)           51.4412         estimate D2E/DX2                !
 ! D55   D(1,9,12,15)          -70.011          estimate D2E/DX2                !
 ! D56   D(1,9,12,16)          170.0106         estimate D2E/DX2                !
 ! D57   D(6,9,12,14)          -67.6309         estimate D2E/DX2                !
 ! D58   D(6,9,12,15)          170.9169         estimate D2E/DX2                !
 ! D59   D(6,9,12,16)           50.9385         estimate D2E/DX2                !
 ! D60   D(13,9,12,14)         175.1809         estimate D2E/DX2                !
 ! D61   D(13,9,12,15)          53.7287         estimate D2E/DX2                !
 ! D62   D(13,9,12,16)         -66.2497         estimate D2E/DX2                !
 ! D63   D(9,12,14,19)         -95.9065         estimate D2E/DX2                !
 ! D64   D(15,12,14,19)         27.0028         estimate D2E/DX2                !
 ! D65   D(16,12,14,19)        143.729          estimate D2E/DX2                !
 ! D66   D(8,20,21,22)          -0.0135         estimate D2E/DX2                !
 ! D67   D(8,20,21,26)         179.7386         estimate D2E/DX2                !
 ! D68   D(25,20,21,22)       -179.6182         estimate D2E/DX2                !
 ! D69   D(25,20,21,26)          0.1339         estimate D2E/DX2                !
 ! D70   D(20,21,22,23)         -0.0778         estimate D2E/DX2                !
 ! D71   D(20,21,22,28)       -179.6502         estimate D2E/DX2                !
 ! D72   D(26,21,22,23)       -179.843          estimate D2E/DX2                !
 ! D73   D(26,21,22,28)          0.5846         estimate D2E/DX2                !
 ! D74   D(21,22,23,24)         -0.573          estimate D2E/DX2                !
 ! D75   D(21,22,23,27)       -179.6128         estimate D2E/DX2                !
 ! D76   D(28,22,23,24)        178.9913         estimate D2E/DX2                !
 ! D77   D(28,22,23,27)         -0.0485         estimate D2E/DX2                !
 ! D78   D(22,23,24,8)           1.2296         estimate D2E/DX2                !
 ! D79   D(22,23,24,29)       -177.4836         estimate D2E/DX2                !
 ! D80   D(27,23,24,8)        -179.7318         estimate D2E/DX2                !
 ! D81   D(27,23,24,29)          1.555          estimate D2E/DX2                !
 --------------------------------------------------------------------------------
 Trust Radius=3.00D-01 FncErr=1.00D-07 GrdErr=1.00D-06 EigMax=2.50D+02 EigMin=1.00D-04
 Number of steps in this run=    173 maximum allowed number of steps=    174.
 GradGradGradGradGradGradGradGradGradGradGradGradGradGradGradGradGradGrad

                          Input orientation:                          
 ---------------------------------------------------------------------
 Center     Atomic      Atomic             Coordinates (Angstroms)
 Number     Number       Type             X           Y           Z
 ---------------------------------------------------------------------
      1          6           0       -2.981144   -1.824822    0.575366
      2          6           0       -2.230838   -1.325330   -0.644859
      3          6           0       -1.842059    0.106007   -0.221332
      4          8           0       -3.130380   -1.329770   -1.770657
      5          1           0       -1.388146   -1.972743   -0.905781
      6          8           0       -2.740619    0.514832    0.828668
      7          1           0       -1.993573    0.801214   -1.056451
      8          7           0       -0.449183    0.213787    0.204683
      9          6           0       -3.677341   -0.557867    1.052530
     10          1           0       -2.264450   -2.195169    1.316057
     11          8           0       -3.897020   -2.866131    0.259969
     12          6           0       -4.104664   -0.599761    2.520642
     13          1           0       -4.566626   -0.347358    0.444638
     14          8           0       -3.027949   -0.978217    3.380712
     15          1           0       -4.931531   -1.302208    2.669594
     16          1           0       -4.432439    0.394007    2.841567
     17          1           0       -4.160732   -2.703928   -0.671251
     18          1           0       -2.610049   -1.014544   -2.536197
     19          1           0       -3.109998   -1.936969    3.532753
     20          6           0       -0.093204    0.333329    1.533987
     21          6           0        1.182074    0.428661    1.916645
     22          6           0        2.236756    0.405259    0.892134
     23          7           0        1.808196    0.283014   -0.397613
     24          6           0        0.505872    0.171726   -0.803588
     25          1           0       -0.889170    0.354799    2.274615
     26          1           0        1.483710    0.527092    2.950772
     27          1           0        2.516380    0.258979   -1.114324
     28          8           0        3.420429    0.483472    1.196787
     29          8           0        0.226462    0.019704   -1.991923
 ---------------------------------------------------------------------
                    Distance matrix (angstroms):
                    1          2          3          4          5
     1  C    0.000000
     2  C    1.517037   0.000000
     3  C    2.379147   1.542482   0.000000
     4  O    2.402326   1.441047   2.474194   0.000000
     5  H    2.180211   1.094237   2.235109   2.048611   0.000000
     6  O    2.365586   2.411919   1.441196   3.211069   3.320471
     7  H    3.245641   2.178965   1.097129   2.518633   2.843252
     8  N    3.271721   2.502977   1.460550   3.670606   2.625965
     9  C    1.522350   2.358495   2.330603   2.977480   3.328253
    10  H    1.095186   2.145447   2.799534   3.320625   2.398738
    11  O    1.422192   2.443142   3.645288   2.659245   2.907158
    12  C    2.558744   3.749409   3.624350   4.460649   4.583113
    13  H    2.171114   2.756689   2.841182   2.816996   3.816836
    14  O    2.930682   4.118385   3.944185   5.164367   4.695962
    15  H    2.909110   4.275497   4.459300   4.791736   5.078238
    16  H    3.487854   4.467475   4.021736   5.093072   5.376974
    17  H    1.928292   2.371860   3.670750   2.039272   2.876955
    18  H    3.236677   1.953854   2.684035   0.977836   2.251543
    19  H    2.962316   4.312710   4.458091   5.338095   4.760949
    20  C    3.730518   3.473902   2.488235   4.786544   3.598237
    21  C    4.920326   4.613649   3.717584   5.940163   4.509863
    22  C    5.683317   5.031569   4.238643   6.237542   4.693326
    23  N    5.322353   4.354503   3.658793   5.373626   3.945031
    24  C    4.248176   3.123452   2.419942   4.051178   2.862952
    25  H    3.466201   3.625773   2.683215   4.921892   3.972574
    26  H    5.577542   5.491620   4.615224   6.857817   5.419384
    27  H    6.117194   5.026581   4.451610   5.902609   4.502155
    28  O    6.833339   6.212909   5.463270   7.416648   5.794495
    29  O    4.503552   3.108379   2.724192   3.624697   2.785051
                    6          7          8          9         10
     6  O    0.000000
     7  H    2.047869   0.000000
     8  N    2.393880   2.078621   0.000000
     9  C    1.441613   3.021586   3.425682   0.000000
    10  H    2.794350   3.831511   3.214563   2.178638   0.000000
    11  O    3.618231   4.336530   4.623476   2.450407   2.056890
    12  C    2.442481   4.383496   4.403188   1.529612   2.717120
    13  H    2.055517   3.192661   4.162426   1.097577   3.077952
    14  O    2.970637   4.891291   4.261229   2.453331   2.515294
    15  H    3.389799   5.190317   5.335303   2.177597   3.121340
    16  H    2.632227   4.616106   4.780373   2.162612   3.705562
    17  H    3.824513   4.138959   4.801657   2.794757   2.793585
    18  H    3.698426   2.422120   3.700075   3.771820   4.043905
    19  H    3.668766   5.459381   4.773022   2.894011   2.386496
    20  C    2.745764   3.246642   1.381326   3.724522   3.339926
    21  C    4.071688   4.366100   2.374445   5.033274   4.373068
    22  C    4.978985   4.674339   2.779123   5.994154   5.215630
    23  N    4.716908   3.893076   2.337373   5.735949   5.066014
    24  C    3.649888   2.589868   1.389428   4.634301   4.215420
    25  H    2.354620   3.537653   2.120870   3.178104   3.051650
    26  H    4.727412   5.312671   3.372720   5.605078   4.912403
    27  H    5.610412   4.542801   3.245980   6.612464   5.897960
    28  O    6.172115   5.872772   4.003861   7.175202   6.285475
    29  O    4.123645   2.532670   2.306348   4.984171   4.696066
                   11         12         13         14         15
    11  O    0.000000
    12  C    3.207833   0.000000
    13  H    2.612794   2.141707   0.000000
    14  O    3.749472   1.429078   3.374320   0.000000
    15  H    3.053254   1.095138   2.448535   2.057737   0.000000
    16  H    4.192830   1.094534   2.512548   2.036238   1.776460
    17  H    0.981338   3.823460   2.638822   4.547492   3.704078
    18  H    3.592104   5.289380   3.627493   5.931759   5.707213
    19  H    3.491971   1.949834   3.766308   0.974194   2.113278
    20  C    5.131148   4.235086   4.654193   3.707192   5.232016
    21  C    6.276737   5.419600   5.984694   4.674088   6.398359
    22  C    6.980318   6.623875   6.859496   5.985328   7.580181
    23  N    6.549734   6.652625   6.461045   6.265361   7.572622
    24  C    5.453915   5.736091   5.249547   5.596305   6.618219
    25  H    4.845653   3.363201   4.167196   2.752228   4.386611
    26  H    6.906999   5.717056   6.606961   4.775549   6.676878
    27  H    7.265446   7.601884   7.277842   7.244004   8.498630
    28  O    8.102008   7.717060   8.065299   6.963307   8.666778
    29  O    5.513816   6.285350   5.389364   6.360208   7.076869
                   16         17         18         19         20
    16  H    0.000000
    17  H    4.691580   0.000000
    18  H    5.850254   2.955784   0.000000
    19  H    2.767677   4.400672   6.158974   0.000000
    20  C    4.532374   5.534690   4.971686   4.272045   0.000000
    21  C    5.690294   6.712370   6.024188   5.160416   1.334860
    22  C    6.948279   7.282793   6.104163   6.406768   2.417822
    23  N    7.032079   6.680180   5.077212   6.675682   2.710891
    24  C    6.141945   5.483073   3.757410   6.027019   2.418525
    25  H    3.588556   5.360695   5.289653   3.430334   1.087452
    26  H    5.918653   7.444344   7.017287   5.245231   2.128728
    27  H    7.997087   7.318399   5.470270   7.620607   3.718738
    28  O    8.023768   8.433451   7.248854   7.345866   3.532968
    29  O    6.723696   5.330086   3.067849   6.744077   3.554235
                   21         22         23         24         25
    21  C    0.000000
    22  C    1.470552   0.000000
    23  N    2.401881   1.364572   0.000000
    24  C    2.814771   2.434332   1.368667   0.000000
    25  H    2.103247   3.418364   3.797596   3.384522   0.000000
    26  H    1.081707   2.195429   3.372914   3.895853   2.473344
    27  H    3.316013   2.031124   1.007858   2.036250   4.805399
    28  O    2.351900   1.224750   2.276311   3.548708   4.444200
    29  O    4.044421   3.536626   2.261203   1.230171   4.422699
                   26         27         28         29
    26  H    0.000000
    27  H    4.202773   0.000000
    28  O    2.613283   2.491774   0.000000
    29  O    5.125265   2.463972   4.537001   0.000000
 Stoichiometry    C9H12N2O6
 Framework group  C1[X(C9H12N2O6)]
 Deg. of freedom    81
 Full point group                 C1      NOp   1
 Largest Abelian subgroup         C1      NOp   1
 Largest concise Abelian subgroup C1      NOp   1
                         Standard orientation:                         
 ---------------------------------------------------------------------
 Center     Atomic      Atomic             Coordinates (Angstroms)
 Number     Number       Type             X           Y           Z
 ---------------------------------------------------------------------
      1          6           0       -2.091037   -0.231419    0.778744
      2          6           0       -1.113650   -1.321304    0.380917
      3          6           0       -0.362192   -0.667050   -0.796586
      4          8           0       -1.862461   -2.480589   -0.033759
      5          1           0       -0.478610   -1.632195    1.216037
      6          8           0       -1.196212    0.383908   -1.322841
      7          1           0       -0.221220   -1.394638   -1.605557
      8          7           0        0.953039   -0.157088   -0.418016
      9          6           0       -2.424672    0.394017   -0.568500
     10          1           0       -1.589816    0.481603    1.441924
     11          8           0       -3.238843   -0.747830    1.440929
     12          6           0       -2.983687    1.814546   -0.472005
     13          1           0       -3.149837   -0.221066   -1.116665
     14          8           0       -2.154014    2.663105    0.324145
     15          1           0       -3.991292    1.812281   -0.042989
     16          1           0       -3.032744    2.263923   -1.468829
     17          1           0       -3.352624   -1.656516    1.088270
     18          1           0       -1.201564   -3.161470   -0.269932
     19          1           0       -2.529467    2.664382    1.223081
     20          6           0        1.199601    1.191890   -0.252109
     21          6           0        2.403509    1.650999    0.096713
     22          6           0        3.497244    0.691496    0.310304
     23          7           0        3.177100   -0.622653    0.129812
     24          6           0        1.945002   -1.108605   -0.215203
     25          1           0        0.378401    1.884449   -0.421060
     26          1           0        2.620409    2.702548    0.228206
     27          1           0        3.911805   -1.296599    0.277403
     28          8           0        4.616473    1.066207    0.637305
     29          8           0        1.748166   -2.319294   -0.309043
 ---------------------------------------------------------------------
 Rotational constants (GHZ):           0.8025389           0.3197349           0.2544457
 Standard basis: Aug-CC-pVDZ (5D, 7F)
 There are   533 symmetry adapted cartesian basis functions of A   symmetry.
 There are   499 symmetry adapted basis functions of A   symmetry.
   499 basis functions,   863 primitive gaussians,   533 cartesian basis functions
    64 alpha electrons       64 beta electrons
       nuclear repulsion energy      1318.5871976009 Hartrees.
 NAtoms=   29 NActive=   29 NUniq=   29 SFac= 1.00D+00 NAtFMM=   60 NAOKFM=F Big=F
 Integral buffers will be    131072 words long.
 Raffenetti 2 integral format.
 Two-electron integral symmetry is turned on.
 Nuclear repulsion after empirical dispersion term =     1318.5670081908 Hartrees.
 One-electron integrals computed using PRISM.
 NBasis=   499 RedAO= T EigKep=  3.15D-06  NBF=   499
 NBsUse=   499 1.00D-06 EigRej= -1.00D+00 NBFU=   499
 ExpMin= 2.97D-02 ExpMax= 1.17D+04 ExpMxC= 4.01D+02 IAcc=3 IRadAn=         5 AccDes= 0.00D+00
 Harris functional with IExCor= 1009 and IRadAn=       5 diagonalized for initial guess.
 HarFok:  IExCor= 1009 AccDes= 0.00D+00 IRadAn=         5 IDoV= 1 UseB2=F ITyADJ=14
 ICtDFT=  3500011 ScaDFX=  1.000000  1.000000  1.000000  1.000000
 FoFCou: FMM=F IPFlag=           0 FMFlag=      100000 FMFlg1=           0
         NFxFlg=           0 DoJE=T BraDBF=F KetDBF=T FulRan=T
         wScrn=  0.000000 ICntrl=       500 IOpCl=  0 I1Cent=   200000004 NGrid=           0
         NMat0=    1 NMatS0=      1 NMatT0=    0 NMatD0=    1 NMtDS0=    0 NMtDT0=    0
 Petite list used in FoFCou.
 Requested convergence on RMS density matrix=1.00D-08 within 128 cycles.
 Requested convergence on MAX density matrix=1.00D-06.
 Requested convergence on             energy=1.00D-06.
 No special actions if energy rises.
 SCF Done:  E(RPBE1PBE) =  -910.208860169     A.U. after   14 cycles
            NFock= 14  Conv=0.50D-08     -V/T= 2.0056

 **********************************************************************

            Population analysis using the SCF Density.

 **********************************************************************

 Orbital symmetries:
       Occupied  (A) (A) (A) (A) (A) (A) (A) (A) (A) (A) (A) (A)
                 (A) (A) (A) (A) (A) (A) (A) (A) (A) (A) (A) (A)
                 (A) (A) (A) (A) (A) (A) (A) (A) (A) (A) (A) (A)
                 (A) (A) (A) (A) (A) (A) (A) (A) (A) (A) (A) (A)
                 (A) (A) (A) (A) (A) (A) (A) (A) (A) (A) (A) (A)
                 (A) (A) (A) (A)
       Virtual   (A) (A) (A) (A) (A) (A) (A) (A) (A) (A) (A) (A)
                 (A) (A) (A) (A) (A) (A) (A) (A) (A) (A) (A) (A)
                 (A) (A) (A) (A) (A) (A) (A) (A) (A) (A) (A) (A)
                 (A) (A) (A) (A) (A) (A) (A) (A) (A) (A) (A) (A)
                 (A) (A) (A) (A) (A) (A) (A) (A) (A) (A) (A) (A)
                 (A) (A) (A) (A) (A) (A) (A) (A) (A) (A) (A) (A)
                 (A) (A) (A) (A) (A) (A) (A) (A) (A) (A) (A) (A)
                 (A) (A) (A) (A) (A) (A) (A) (A) (A) (A) (A) (A)
                 (A) (A) (A) (A) (A) (A) (A) (A) (A) (A) (A) (A)
                 (A) (A) (A) (A) (A) (A) (A) (A) (A) (A) (A) (A)
                 (A) (A) (A) (A) (A) (A) (A) (A) (A) (A) (A) (A)
                 (A) (A) (A) (A) (A) (A) (A) (A) (A) (A) (A) (A)
                 (A) (A) (A) (A) (A) (A) (A) (A) (A) (A) (A) (A)
                 (A) (A) (A) (A) (A) (A) (A) (A) (A) (A) (A) (A)
                 (A) (A) (A) (A) (A) (A) (A) (A) (A) (A) (A) (A)
                 (A) (A) (A) (A) (A) (A) (A) (A) (A) (A) (A) (A)
                 (A) (A) (A) (A) (A) (A) (A) (A) (A) (A) (A) (A)
                 (A) (A) (A) (A) (A) (A) (A) (A) (A) (A) (A) (A)
                 (A) (A) (A) (A) (A) (A) (A) (A) (A) (A) (A) (A)
                 (A) (A) (A) (A) (A) (A) (A) (A) (A) (A) (A) (A)
                 (A) (A) (A) (A) (A) (A) (A) (A) (A) (A) (A) (A)
                 (A) (A) (A) (A) (A) (A) (A) (A) (A) (A) (A) (A)
                 (A) (A) (A) (A) (A) (A) (A) (A) (A) (A) (A) (A)
                 (A) (A) (A) (A) (A) (A) (A) (A) (A) (A) (A) (A)
                 (A) (A) (A) (A) (A) (A) (A) (A) (A) (A) (A) (A)
                 (A) (A) (A) (A) (A) (A) (A) (A) (A) (A) (A) (A)
                 (A) (A) (A) (A) (A) (A) (A) (A) (A) (A) (A) (A)
                 (A) (A) (A) (A) (A) (A) (A) (A) (A) (A) (A) (A)
                 (A) (A) (A) (A) (A) (A) (A) (A) (A) (A) (A) (A)
                 (A) (A) (A) (A) (A) (A) (A) (A) (A) (A) (A) (A)
                 (A) (A) (A) (A) (A) (A) (A) (A) (A) (A) (A) (A)
                 (A) (A) (A) (A) (A) (A) (A) (A) (A) (A) (A) (A)
                 (A) (A) (A) (A) (A) (A) (A) (A) (A) (A) (A) (A)
                 (A) (A) (A) (A) (A) (A) (A) (A) (A) (A) (A) (A)
                 (A) (A) (A) (A) (A) (A) (A) (A) (A) (A) (A) (A)
                 (A) (A) (A) (A) (A) (A) (A) (A) (A) (A) (A) (A)
                 (A) (A) (A)
 The electronic state is 1-A.
 Alpha  occ. eigenvalues --  -19.26978 -19.26676 -19.24968 -19.24659 -19.22361
 Alpha  occ. eigenvalues --  -19.20176 -14.48653 -14.46777 -10.40101 -10.35680
 Alpha  occ. eigenvalues --  -10.35395 -10.31792 -10.31008 -10.30970 -10.30531
 Alpha  occ. eigenvalues --  -10.29981 -10.25268  -1.13456  -1.11680  -1.09063
 Alpha  occ. eigenvalues --   -1.08195  -1.07377  -1.06504  -1.02364  -0.98227
 Alpha  occ. eigenvalues --   -0.84461  -0.82531  -0.80186  -0.73302  -0.72245
 Alpha  occ. eigenvalues --   -0.68745  -0.65900  -0.63723  -0.61004  -0.58967
 Alpha  occ. eigenvalues --   -0.58188  -0.56444  -0.54968  -0.54425  -0.51955
 Alpha  occ. eigenvalues --   -0.50911  -0.49831  -0.49417  -0.48686  -0.47934
 Alpha  occ. eigenvalues --   -0.46011  -0.44839  -0.44250  -0.43547  -0.43207
 Alpha  occ. eigenvalues --   -0.42217  -0.41148  -0.40114  -0.39362  -0.37271
 Alpha  occ. eigenvalues --   -0.36353  -0.34044  -0.33095  -0.32383  -0.31410
 Alpha  occ. eigenvalues --   -0.30594  -0.30172  -0.28262  -0.26479
 Alpha virt. eigenvalues --   -0.04265  -0.01750  -0.01006  -0.00494  -0.00109
 Alpha virt. eigenvalues --    0.00164   0.01629   0.02079   0.02266   0.02924
 Alpha virt. eigenvalues --    0.03671   0.03948   0.04815   0.05787   0.05863
 Alpha virt. eigenvalues --    0.05922   0.06413   0.06800   0.07568   0.07847
 Alpha virt. eigenvalues --    0.08075   0.08569   0.09055   0.09151   0.09507
 Alpha virt. eigenvalues --    0.09566   0.10103   0.10446   0.10648   0.11052
 Alpha virt. eigenvalues --    0.11581   0.11629   0.11735   0.12090   0.12217
 Alpha virt. eigenvalues --    0.12531   0.12995   0.13346   0.13485   0.13991
 Alpha virt. eigenvalues --    0.14504   0.14620   0.15229   0.15481   0.16027
 Alpha virt. eigenvalues --    0.16246   0.16585   0.16700   0.17291   0.17600
 Alpha virt. eigenvalues --    0.18636   0.18817   0.19072   0.19468   0.20254
 Alpha virt. eigenvalues --    0.20500   0.20723   0.21219   0.21454   0.21805
 Alpha virt. eigenvalues --    0.22214   0.22517   0.22845   0.23046   0.23702
 Alpha virt. eigenvalues --    0.23781   0.24434   0.24495   0.24897   0.24968
 Alpha virt. eigenvalues --    0.25543   0.25711   0.26505   0.26614   0.26925
 Alpha virt. eigenvalues --    0.27298   0.27770   0.27786   0.28019   0.28227
 Alpha virt. eigenvalues --    0.28551   0.28819   0.29200   0.29722   0.29974
 Alpha virt. eigenvalues --    0.30207   0.30844   0.31095   0.31442   0.31785
 Alpha virt. eigenvalues --    0.32609   0.33286   0.33334   0.33573   0.34037
 Alpha virt. eigenvalues --    0.34077   0.34833   0.35198   0.35375   0.36155
 Alpha virt. eigenvalues --    0.36413   0.36791   0.37290   0.37572   0.37902
 Alpha virt. eigenvalues --    0.38424   0.39307   0.39854   0.40348   0.40510
 Alpha virt. eigenvalues --    0.40988   0.41258   0.42479   0.42582   0.43039
 Alpha virt. eigenvalues --    0.44203   0.44460   0.44843   0.45904   0.45937
 Alpha virt. eigenvalues --    0.46413   0.46483   0.47467   0.47741   0.48518
 Alpha virt. eigenvalues --    0.48758   0.49567   0.50138   0.50582   0.51133
 Alpha virt. eigenvalues --    0.51832   0.52206   0.52757   0.53307   0.53576
 Alpha virt. eigenvalues --    0.54491   0.54695   0.55302   0.55328   0.55601
 Alpha virt. eigenvalues --    0.56380   0.56958   0.57581   0.57909   0.58222
 Alpha virt. eigenvalues --    0.59293   0.59937   0.60860   0.61391   0.61921
 Alpha virt. eigenvalues --    0.62647   0.63165   0.63331   0.63931   0.64569
 Alpha virt. eigenvalues --    0.64959   0.65246   0.65814   0.66220   0.66584
 Alpha virt. eigenvalues --    0.67138   0.67596   0.67777   0.68033   0.68882
 Alpha virt. eigenvalues --    0.69102   0.69604   0.70360   0.70820   0.71563
 Alpha virt. eigenvalues --    0.71699   0.72378   0.73312   0.74127   0.74424
 Alpha virt. eigenvalues --    0.74562   0.75047   0.75465   0.76445   0.77113
 Alpha virt. eigenvalues --    0.77236   0.77935   0.78494   0.78673   0.79860
 Alpha virt. eigenvalues --    0.80498   0.80773   0.81375   0.82363   0.82983
 Alpha virt. eigenvalues --    0.83215   0.83362   0.84729   0.85158   0.85773
 Alpha virt. eigenvalues --    0.86584   0.87442   0.88059   0.89049   0.90448
 Alpha virt. eigenvalues --    0.90876   0.91438   0.92031   0.93670   0.94481
 Alpha virt. eigenvalues --    0.95230   0.95669   0.96784   0.97922   0.98068
 Alpha virt. eigenvalues --    0.98932   1.00045   1.01962   1.02788   1.02985
 Alpha virt. eigenvalues --    1.03531   1.04806   1.05620   1.06457   1.06804
 Alpha virt. eigenvalues --    1.07519   1.08808   1.09455   1.09989   1.10741
 Alpha virt. eigenvalues --    1.11535   1.12418   1.13522   1.14039   1.15785
 Alpha virt. eigenvalues --    1.16879   1.17244   1.17894   1.18914   1.19619
 Alpha virt. eigenvalues --    1.20792   1.21253   1.22006   1.23800   1.23956
 Alpha virt. eigenvalues --    1.24551   1.24719   1.26882   1.28432   1.29764
 Alpha virt. eigenvalues --    1.30479   1.31424   1.31697   1.32524   1.32775
 Alpha virt. eigenvalues --    1.33943   1.35857   1.36896   1.38890   1.39258
 Alpha virt. eigenvalues --    1.40289   1.41156   1.41934   1.43235   1.43844
 Alpha virt. eigenvalues --    1.45009   1.46327   1.46966   1.47225   1.47941
 Alpha virt. eigenvalues --    1.49174   1.50137   1.51194   1.52438   1.52703
 Alpha virt. eigenvalues --    1.53944   1.54823   1.55272   1.56239   1.56765
 Alpha virt. eigenvalues --    1.57951   1.59176   1.59845   1.60438   1.61314
 Alpha virt. eigenvalues --    1.62445   1.63607   1.64845   1.65282   1.66289
 Alpha virt. eigenvalues --    1.67405   1.68312   1.69159   1.71057   1.72512
 Alpha virt. eigenvalues --    1.73358   1.73871   1.74736   1.75117   1.76657
 Alpha virt. eigenvalues --    1.77102   1.77392   1.78823   1.79773   1.80960
 Alpha virt. eigenvalues --    1.81193   1.82115   1.84343   1.84957   1.85346
 Alpha virt. eigenvalues --    1.86387   1.87371   1.88212   1.88515   1.88788
 Alpha virt. eigenvalues --    1.90484   1.90765   1.91206   1.94488   1.95640
 Alpha virt. eigenvalues --    1.96946   1.98733   1.99874   2.00472   2.01306
 Alpha virt. eigenvalues --    2.02375   2.02506   2.03803   2.04806   2.06528
 Alpha virt. eigenvalues --    2.07921   2.09019   2.09650   2.09958   2.10318
 Alpha virt. eigenvalues --    2.11998   2.12328   2.13996   2.14515   2.15253
 Alpha virt. eigenvalues --    2.16668   2.18614   2.19247   2.21006   2.21743
 Alpha virt. eigenvalues --    2.22670   2.23116   2.25710   2.26184   2.26679
 Alpha virt. eigenvalues --    2.28058   2.29205   2.29576   2.31410   2.32016
 Alpha virt. eigenvalues --    2.34391   2.35384   2.38052   2.39432   2.40479
 Alpha virt. eigenvalues --    2.42280   2.42778   2.45170   2.47319   2.48044
 Alpha virt. eigenvalues --    2.48872   2.50920   2.51900   2.53750   2.54111
 Alpha virt. eigenvalues --    2.54816   2.56071   2.58254   2.60388   2.61939
 Alpha virt. eigenvalues --    2.62053   2.63541   2.65880   2.68247   2.68836
 Alpha virt. eigenvalues --    2.71308   2.72894   2.74716   2.76646   2.76873
 Alpha virt. eigenvalues --    2.80004   2.80488   2.82797   2.84333   2.86066
 Alpha virt. eigenvalues --    2.89489   2.90314   2.94785   2.97472   2.99416
 Alpha virt. eigenvalues --    3.00476   3.12119   3.13596   3.16174   3.20632
 Alpha virt. eigenvalues --    3.23594   3.29685   3.31673   3.37918   3.39864
 Alpha virt. eigenvalues --    3.39993   3.41765   3.43655   3.44723   3.45125
 Alpha virt. eigenvalues --    3.45990   3.46708   3.47879   3.49947   3.50658
 Alpha virt. eigenvalues --    3.52364   3.52605   3.53251   3.55235   3.56581
 Alpha virt. eigenvalues --    3.58651   3.60953   3.61715   3.63126   3.64643
 Alpha virt. eigenvalues --    3.65085   3.67235   3.70203   3.72610   3.75112
 Alpha virt. eigenvalues --    3.77814   3.82925   3.84679   3.88587   3.98644
 Alpha virt. eigenvalues --    4.03331   4.06764   4.11012   4.19436   4.61898
          Condensed to atoms (all electrons):
               1          2          3          4          5          6
     1  C    8.822915  -2.289774   1.375525   0.113638   0.435894   0.087086
     2  C   -2.289774  10.574645  -3.834814  -0.625479  -1.472083  -0.030933
     3  C    1.375525  -3.834814  12.412565   0.194658   0.679044  -0.067614
     4  O    0.113638  -0.625479   0.194658   8.664009   0.017203   0.003757
     5  H    0.435894  -1.472083   0.679044   0.017203   2.344239   0.014771
     6  O    0.087086  -0.030933  -0.067614   0.003757   0.014771   9.474835
     7  H   -0.015957   0.218172  -0.749818   0.007078   0.098000  -0.305534
     8  N   -0.089855   0.820601  -1.158962  -0.021334  -0.302282  -0.084250
     9  C   -1.895824   0.664666  -1.857593   0.087911   0.006381  -0.051522
    10  H   -0.799619   0.311872  -0.300874   0.012948  -0.190551   0.018842
    11  O   -0.308258   0.030517   0.022406  -0.022785   0.015642  -0.014744
    12  C   -0.182276  -0.239771   0.111172   0.012860   0.022906  -0.135659
    13  H    0.325380  -0.077071   0.198476  -0.016030  -0.008140  -0.091997
    14  O   -0.021941   0.034915  -0.008176  -0.001292  -0.000559   0.009563
    15  H    0.041790   0.068520   0.002285  -0.002147   0.002103   0.096387
    16  H   -0.008589  -0.047330  -0.061338   0.001560  -0.000164  -0.107892
    17  H   -0.174343   0.017959  -0.009044   0.023503  -0.005210   0.002496
    18  H   -0.032267   0.119514  -0.058696   0.318252  -0.082244   0.003250
    19  H   -0.040000  -0.002849  -0.015210  -0.000475  -0.000753  -0.012282
    20  C   -0.371846   0.786116  -2.000927  -0.026989  -0.134020   0.224412
    21  C    0.066006  -0.141616   0.305482   0.005953   0.024590  -0.010953
    22  C   -0.012740   0.034740  -0.282624  -0.001516  -0.009323  -0.001544
    23  N   -0.029979   0.089530  -0.142635  -0.004257  -0.012209   0.000638
    24  C    0.138384  -0.284528   0.082839   0.019757   0.063823  -0.103494
    25  H   -0.006170  -0.085486   0.215638  -0.002015  -0.007706  -0.154284
    26  H   -0.000203   0.000365  -0.002565   0.000148   0.000171  -0.002417
    27  H    0.001998  -0.011898  -0.003295   0.000414  -0.001254   0.000019
    28  O   -0.000057   0.002467   0.003883  -0.000015   0.000753   0.000593
    29  O   -0.020055  -0.020208   0.166516   0.004614   0.015872  -0.001549
               7          8          9         10         11         12
     1  C   -0.015957  -0.089855  -1.895824  -0.799619  -0.308258  -0.182276
     2  C    0.218172   0.820601   0.664666   0.311872   0.030517  -0.239771
     3  C   -0.749818  -1.158962  -1.857593  -0.300874   0.022406   0.111172
     4  O    0.007078  -0.021334   0.087911   0.012948  -0.022785   0.012860
     5  H    0.098000  -0.302282   0.006381  -0.190551   0.015642   0.022906
     6  O   -0.305534  -0.084250  -0.051522   0.018842  -0.014744  -0.135659
     7  H    2.098614  -0.049327   0.133728  -0.026261   0.006085   0.007604
     8  N   -0.049327   8.233277   0.176238   0.035645  -0.009786   0.021211
     9  C    0.133728   0.176238   8.373995   0.043291   0.192708   0.106210
    10  H   -0.026261   0.035645   0.043291   2.396125  -0.151650  -0.093126
    11  O    0.006085  -0.009786   0.192708  -0.151650   8.540357   0.033861
    12  C    0.007604   0.021211   0.106210  -0.093126   0.033861   5.025843
    13  H   -0.007421  -0.023383  -1.021548   0.116897  -0.039440  -0.064148
    14  O   -0.000163   0.002611  -0.113785  -0.010146   0.006826   0.207084
    15  H   -0.002468   0.002296   0.055673  -0.035937   0.001058  -0.055815
    16  H    0.001659  -0.004074   0.270055   0.031963   0.001160   0.096703
    17  H   -0.000879   0.000385   0.039641   0.033813   0.358190  -0.012396
    18  H   -0.017860   0.016560  -0.031954   0.004616   0.001477  -0.003803
    19  H    0.000187   0.000610   0.027740   0.016222   0.000460   0.035667
    20  C   -0.057202   0.266438   0.342067   0.120804  -0.014170  -0.091843
    21  C   -0.015564  -0.326569   0.004326  -0.023241   0.003071  -0.004398
    22  C    0.002994  -0.123836   0.012925   0.007509  -0.000295  -0.010141
    23  N    0.001684   0.003098   0.004871  -0.000274   0.000468  -0.001884
    24  C    0.161210  -0.289294  -0.150786  -0.010469  -0.002312   0.004552
    25  H    0.034161  -0.134234  -0.064582  -0.008306  -0.000574   0.034913
    26  H   -0.002397   0.045152  -0.001480  -0.000106   0.000091  -0.001426
    27  H    0.002144   0.073567  -0.000210   0.000439  -0.000004  -0.000198
    28  O   -0.000202  -0.004796   0.000267  -0.000355  -0.000005   0.000131
    29  O    0.034788  -0.191798   0.010108  -0.000764   0.000391   0.000820
              13         14         15         16         17         18
     1  C    0.325380  -0.021941   0.041790  -0.008589  -0.174343  -0.032267
     2  C   -0.077071   0.034915   0.068520  -0.047330   0.017959   0.119514
     3  C    0.198476  -0.008176   0.002285  -0.061338  -0.009044  -0.058696
     4  O   -0.016030  -0.001292  -0.002147   0.001560   0.023503   0.318252
     5  H   -0.008140  -0.000559   0.002103  -0.000164  -0.005210  -0.082244
     6  O   -0.091997   0.009563   0.096387  -0.107892   0.002496   0.003250
     7  H   -0.007421  -0.000163  -0.002468   0.001659  -0.000879  -0.017860
     8  N   -0.023383   0.002611   0.002296  -0.004074   0.000385   0.016560
     9  C   -1.021548  -0.113785   0.055673   0.270055   0.039641  -0.031954
    10  H    0.116897  -0.010146  -0.035937   0.031963   0.033813   0.004616
    11  O   -0.039440   0.006826   0.001058   0.001160   0.358190   0.001477
    12  C   -0.064148   0.207084  -0.055815   0.096703  -0.012396  -0.003803
    13  H    2.350721   0.024228  -0.125780  -0.013084   0.001530   0.003488
    14  O    0.024228   8.307552  -0.041811  -0.174065   0.001135   0.000161
    15  H   -0.125780  -0.041811   1.682438  -0.388245   0.001238   0.000603
    16  H   -0.013084  -0.174065  -0.388245   1.618137  -0.001566  -0.000904
    17  H    0.001530   0.001135   0.001238  -0.001566   0.590935  -0.001346
    18  H    0.003488   0.000161   0.000603  -0.000904  -0.001346   0.579305
    19  H    0.004479   0.309065  -0.069315   0.036201  -0.000377  -0.000090
    20  C   -0.003606  -0.015351  -0.013093   0.034760   0.000138   0.009605
    21  C   -0.008690  -0.004713  -0.001266   0.009846   0.000550  -0.002203
    22  C    0.001352   0.000846  -0.000364   0.000193  -0.000255   0.001004
    23  N    0.000150   0.000462   0.000030  -0.000402   0.000182   0.002774
    24  C   -0.000195  -0.000029   0.000488   0.000000  -0.002948  -0.003756
    25  H    0.008540   0.007724  -0.000840  -0.000935   0.001489  -0.000707
    26  H   -0.000040   0.001142  -0.000216   0.000188  -0.000040  -0.000027
    27  H    0.000007   0.000026   0.000001  -0.000017  -0.000034  -0.000036
    28  O   -0.000013  -0.000001   0.000008   0.000002  -0.000003   0.000022
    29  O   -0.000432  -0.000055   0.000075   0.000012   0.000097   0.006741
              19         20         21         22         23         24
     1  C   -0.040000  -0.371846   0.066006  -0.012740  -0.029979   0.138384
     2  C   -0.002849   0.786116  -0.141616   0.034740   0.089530  -0.284528
     3  C   -0.015210  -2.000927   0.305482  -0.282624  -0.142635   0.082839
     4  O   -0.000475  -0.026989   0.005953  -0.001516  -0.004257   0.019757
     5  H   -0.000753  -0.134020   0.024590  -0.009323  -0.012209   0.063823
     6  O   -0.012282   0.224412  -0.010953  -0.001544   0.000638  -0.103494
     7  H    0.000187  -0.057202  -0.015564   0.002994   0.001684   0.161210
     8  N    0.000610   0.266438  -0.326569  -0.123836   0.003098  -0.289294
     9  C    0.027740   0.342067   0.004326   0.012925   0.004871  -0.150786
    10  H    0.016222   0.120804  -0.023241   0.007509  -0.000274  -0.010469
    11  O    0.000460  -0.014170   0.003071  -0.000295   0.000468  -0.002312
    12  C    0.035667  -0.091843  -0.004398  -0.010141  -0.001884   0.004552
    13  H    0.004479  -0.003606  -0.008690   0.001352   0.000150  -0.000195
    14  O    0.309065  -0.015351  -0.004713   0.000846   0.000462  -0.000029
    15  H   -0.069315  -0.013093  -0.001266  -0.000364   0.000030   0.000488
    16  H    0.036201   0.034760   0.009846   0.000193  -0.000402   0.000000
    17  H   -0.000377   0.000138   0.000550  -0.000255   0.000182  -0.002948
    18  H   -0.000090   0.009605  -0.002203   0.001004   0.002774  -0.003756
    19  H    0.536601   0.006340   0.001395  -0.000284  -0.000036  -0.000391
    20  C    0.006340   9.586013  -2.173851   0.189961   0.175369  -1.250040
    21  C    0.001395  -2.173851   9.318866  -1.656738  -0.044309   0.467404
    22  C   -0.000284   0.189961  -1.656738   7.635341   0.209965  -0.379756
    23  N   -0.000036   0.175369  -0.044309   0.209965   7.077979  -0.163701
    24  C   -0.000391  -1.250040   0.467404  -0.379756  -0.163701   7.054292
    25  H    0.001510  -0.719026  -0.074414  -0.146261   0.014903   0.018805
    26  H   -0.000288   0.460475  -0.827771   0.206486  -0.054348  -0.033627
    27  H   -0.000028  -0.029238   0.025937  -0.157785   0.418506  -0.289299
    28  O    0.000015   0.094539  -0.128258   0.147387  -0.113427   0.037116
    29  O    0.000002  -0.064935   0.023040  -0.020679  -0.258948   0.334177
              25         26         27         28         29
     1  C   -0.006170  -0.000203   0.001998  -0.000057  -0.020055
     2  C   -0.085486   0.000365  -0.011898   0.002467  -0.020208
     3  C    0.215638  -0.002565  -0.003295   0.003883   0.166516
     4  O   -0.002015   0.000148   0.000414  -0.000015   0.004614
     5  H   -0.007706   0.000171  -0.001254   0.000753   0.015872
     6  O   -0.154284  -0.002417   0.000019   0.000593  -0.001549
     7  H    0.034161  -0.002397   0.002144  -0.000202   0.034788
     8  N   -0.134234   0.045152   0.073567  -0.004796  -0.191798
     9  C   -0.064582  -0.001480  -0.000210   0.000267   0.010108
    10  H   -0.008306  -0.000106   0.000439  -0.000355  -0.000764
    11  O   -0.000574   0.000091  -0.000004  -0.000005   0.000391
    12  C    0.034913  -0.001426  -0.000198   0.000131   0.000820
    13  H    0.008540  -0.000040   0.000007  -0.000013  -0.000432
    14  O    0.007724   0.001142   0.000026  -0.000001  -0.000055
    15  H   -0.000840  -0.000216   0.000001   0.000008   0.000075
    16  H   -0.000935   0.000188  -0.000017   0.000002   0.000012
    17  H    0.001489  -0.000040  -0.000034  -0.000003   0.000097
    18  H   -0.000707  -0.000027  -0.000036   0.000022   0.006741
    19  H    0.001510  -0.000288  -0.000028   0.000015   0.000002
    20  C   -0.719026   0.460475  -0.029238   0.094539  -0.064935
    21  C   -0.074414  -0.827771   0.025937  -0.128258   0.023040
    22  C   -0.146261   0.206486  -0.157785   0.147387  -0.020679
    23  N    0.014903  -0.054348   0.418506  -0.113427  -0.258948
    24  C    0.018805  -0.033627  -0.289299   0.037116   0.334177
    25  H    3.015440  -0.218125   0.000794   0.001749  -0.004092
    26  H   -0.218125   2.036115   0.010150  -0.021044   0.001581
    27  H    0.000794   0.010150   1.121311  -0.051579  -0.002734
    28  O    0.001749  -0.021044  -0.051579   8.699293  -0.001726
    29  O   -0.004092   0.001581  -0.002734  -0.001726   8.657686
 Mulliken charges:
               1
     1  C    0.891136
     2  C    1.389244
     3  C    0.783697
     4  O   -0.763929
     5  H   -0.514894
     6  O   -0.759982
     7  H   -0.557056
     8  N    0.116088
     9  C    0.636482
    10  H   -0.499306
    11  O   -0.650748
    12  C    1.175348
    13  H   -0.534228
    14  O   -0.521251
    15  H   -0.217694
    16  H   -0.293834
    17  H    0.135161
    18  H    0.168522
    19  H    0.165885
    20  C    0.669100
    21  C    1.188088
    22  C    0.353437
    23  N   -0.174199
    24  C    0.581779
    25  H   -0.727908
    26  H   -0.595944
    27  H   -0.107703
    28  O   -0.666746
    29  O   -0.668544
 Sum of Mulliken charges =  -0.00000
 Mulliken charges with hydrogens summed into heavy atoms:
               1
     1  C    0.391830
     2  C    0.874350
     3  C    0.226641
     4  O   -0.595407
     6  O   -0.759982
     8  N    0.116088
     9  C    0.102254
    11  O   -0.515587
    12  C    0.663819
    14  O   -0.355366
    20  C   -0.058807
    21  C    0.592144
    22  C    0.353437
    23  N   -0.281902
    24  C    0.581779
    28  O   -0.666746
    29  O   -0.668544
 Electronic spatial extent (au):  <R**2>=           4225.9430
 Charge=              0.0000 electrons
 Dipole moment (field-independent basis, Debye):
    X=             -3.9833    Y=             -0.5816    Z=             -0.4011  Tot=              4.0455
 Quadrupole moment (field-independent basis, Debye-Ang):
   XX=           -115.5820   YY=            -99.4554   ZZ=            -99.7238
   XY=             -8.3830   XZ=             -1.3078   YZ=              1.1814
 Traceless Quadrupole moment (field-independent basis, Debye-Ang):
   XX=            -10.6616   YY=              5.4650   ZZ=              5.1966
   XY=             -8.3830   XZ=             -1.3078   YZ=              1.1814
 Octapole moment (field-independent basis, Debye-Ang**2):
  XXX=           -133.7465  YYY=            -13.6805  ZZZ=              1.1504  XYY=            -22.8882
  XXY=            -30.0505  XXZ=            -31.3739  XZZ=             -4.6335  YZZ=              1.5622
  YYZ=              7.3377  XYZ=            -15.6951
 Hexadecapole moment (field-independent basis, Debye-Ang**3):
 XXXX=          -4174.2718 YYYY=          -1318.2447 ZZZZ=           -377.5006 XXXY=           -325.1213
 XXXZ=            -64.9578 YYYX=             70.1384 YYYZ=             17.1385 ZZZX=              2.2147
 ZZZY=             19.0998 XXYY=           -814.8764 XXZZ=           -697.4834 YYZZ=           -259.8105
 XXYZ=            -23.4162 YYXZ=            -19.2029 ZZXY=            -34.5766
 N-N= 1.318567008191D+03 E-N=-4.768343787038D+03  KE= 9.051636588663D+02
 Calling FoFJK, ICntrl=      2127 FMM=F ISym2X=0 I1Cent= 0 IOpClX= 0 NMat=1 NMatS=1 NMatT=0.
 ***** Axes restored to original set *****
 -------------------------------------------------------------------
 Center     Atomic                   Forces (Hartrees/Bohr)
 Number     Number              X              Y              Z
 -------------------------------------------------------------------
      1        6          -0.019153018   -0.006594918   -0.016380907
      2        6          -0.000628031    0.000057894   -0.012329871
      3        6          -0.016117290    0.007872143   -0.000200792
      4        8           0.013001278    0.009452914    0.004570725
      5        1           0.006569970    0.004043511    0.003504059
      6        8           0.016280781   -0.018015541   -0.008804387
      7        1           0.003561694   -0.001431993   -0.002212546
      8        7           0.002719310    0.000763906    0.004660908
      9        6          -0.003008744    0.005207922    0.015535449
     10        1          -0.000491266    0.000688475    0.002212970
     11        8           0.005074567    0.007403911   -0.006260011
     12        6           0.012576971   -0.000042128    0.001160382
     13        1          -0.002859102   -0.004287961   -0.003004141
     14        8          -0.002647034   -0.011539019   -0.000121899
     15        1          -0.004919878    0.000388918   -0.006599825
     16        1          -0.000905791    0.002467423   -0.000731351
     17        1           0.002350495   -0.002925433    0.012799794
     18        1          -0.008227296   -0.005692812    0.009848485
     19        1           0.003676038    0.013483011   -0.000750706
     20        6          -0.009839805   -0.000251966    0.002855131
     21        6           0.015329959   -0.000453678   -0.016988746
     22        6           0.011483014    0.003687370    0.046548299
     23        7          -0.006363241    0.000646439   -0.002780977
     24        6          -0.006794900   -0.004320531   -0.016078023
     25        1          -0.006306198   -0.001404170   -0.005545947
     26        1           0.000341534    0.000129841    0.001928361
     27        1           0.001329115   -0.000634706   -0.005064493
     28        8           0.000140883   -0.000598557   -0.012524857
     29        8          -0.006174018    0.001899736    0.010754915
 -------------------------------------------------------------------
 Cartesian Forces:  Max     0.046548299 RMS     0.009183127

 GradGradGradGradGradGradGradGradGradGradGradGradGradGradGradGradGradGrad
 Berny optimization.
 FormGI is forming the generalized inverse of G from B-inverse, IUseBI=4.
 Internal  Forces:  Max     0.021400286 RMS     0.005107965
 Search for a local minimum.
 Step number   1 out of a maximum of  173
 All quantities printed in internal units (Hartrees-Bohrs-Radians)
 Mixed Optimization -- RFO/linear search
 Second derivative matrix not updated -- first step.
 ITU=  0
     Eigenvalues ---    0.00374   0.00533   0.00847   0.00891   0.01149
     Eigenvalues ---    0.01307   0.01398   0.01480   0.01587   0.01785
     Eigenvalues ---    0.01963   0.01988   0.02088   0.02134   0.02338
     Eigenvalues ---    0.02536   0.03091   0.03704   0.04349   0.04790
     Eigenvalues ---    0.04872   0.05004   0.05440   0.05627   0.05697
     Eigenvalues ---    0.05978   0.06291   0.06826   0.07909   0.08192
     Eigenvalues ---    0.09839   0.11682   0.13141   0.13923   0.15998
     Eigenvalues ---    0.16000   0.16000   0.16000   0.16000   0.16000
     Eigenvalues ---    0.16019   0.16854   0.18973   0.19755   0.22057
     Eigenvalues ---    0.22360   0.23437   0.24610   0.24992   0.24998
     Eigenvalues ---    0.24999   0.26257   0.28903   0.29419   0.29459
     Eigenvalues ---    0.33951   0.34002   0.34220   0.34226   0.34294
     Eigenvalues ---    0.34328   0.34829   0.35109   0.35789   0.36895
     Eigenvalues ---    0.37381   0.37927   0.39442   0.41122   0.42132
     Eigenvalues ---    0.45366   0.46233   0.46333   0.49737   0.51126
     Eigenvalues ---    0.51366   0.51807   0.52529   0.56954   0.91015
     Eigenvalues ---    0.93309
 RFO step:  Lambda=-1.61112158D-02 EMin= 3.74240340D-03
 Linear search not attempted -- first point.
 Iteration  1 RMS(Cart)=  0.07097628 RMS(Int)=  0.00134707
 Iteration  2 RMS(Cart)=  0.00223055 RMS(Int)=  0.00026922
 Iteration  3 RMS(Cart)=  0.00000274 RMS(Int)=  0.00026922
 Iteration  4 RMS(Cart)=  0.00000000 RMS(Int)=  0.00026922
 Variable       Old X    -DE/DX   Delta X   Delta X   Delta X     New X
                                 (Linear)    (Quad)   (Total)
    R1        2.86678   0.00390   0.00000   0.01615   0.01612   2.88291
    R2        2.87682  -0.00133   0.00000  -0.00209  -0.00223   2.87460
    R3        2.06960   0.00094   0.00000   0.00263   0.00263   2.07223
    R4        2.68755  -0.00951   0.00000  -0.02174  -0.02174   2.66581
    R5        2.91487  -0.00587   0.00000  -0.02001  -0.01989   2.89498
    R6        2.72318  -0.01426   0.00000  -0.03473  -0.03473   2.68846
    R7        2.06781   0.00183   0.00000   0.00510   0.00510   2.07291
    R8        2.72347  -0.01876   0.00000  -0.04886  -0.04875   2.67471
    R9        2.07327   0.00028   0.00000   0.00080   0.00080   2.07407
   R10        2.76004  -0.00172   0.00000  -0.00446  -0.00446   2.75558
   R11        1.84784  -0.01392   0.00000  -0.02607  -0.02607   1.82178
   R12        2.72425  -0.00453   0.00000  -0.01266  -0.01273   2.71153
   R13        2.61033  -0.00258   0.00000  -0.00622  -0.00622   2.60411
   R14        2.62564  -0.01052   0.00000  -0.02275  -0.02280   2.60283
   R15        2.89055  -0.00906   0.00000  -0.02917  -0.02917   2.86137
   R16        2.07412   0.00316   0.00000   0.00888   0.00888   2.08300
   R17        1.85446  -0.01326   0.00000  -0.02515  -0.02515   1.82931
   R18        2.70057  -0.00027   0.00000  -0.00062  -0.00062   2.69994
   R19        2.06951   0.00257   0.00000   0.00716   0.00716   2.07667
   R20        2.06837   0.00230   0.00000   0.00640   0.00640   2.07477
   R21        1.84096  -0.01370   0.00000  -0.02530  -0.02530   1.81566
   R22        2.52252   0.01719   0.00000   0.02873   0.02877   2.55129
   R23        2.05499   0.00081   0.00000   0.00221   0.00221   2.05719
   R24        2.77894  -0.00850   0.00000  -0.02114  -0.02110   2.75785
   R25        2.04413   0.00195   0.00000   0.00522   0.00522   2.04935
   R26        2.57867   0.02140   0.00000   0.04089   0.04089   2.61955
   R27        2.31444  -0.00302   0.00000  -0.00318  -0.00318   2.31126
   R28        2.58641   0.00758   0.00000   0.01429   0.01424   2.60065
   R29        1.90458   0.00455   0.00000   0.00949   0.00949   1.91407
   R30        2.32469  -0.00922   0.00000  -0.00996  -0.00996   2.31473
    A1        1.77652  -0.00251   0.00000   0.00775   0.00707   1.78359
    A2        1.90887  -0.00192   0.00000  -0.01667  -0.01674   1.89213
    A3        1.96190   0.00633   0.00000   0.04498   0.04440   2.00629
    A4        1.94842  -0.00196   0.00000  -0.03466  -0.03478   1.91364
    A5        1.96531   0.00224   0.00000   0.02014   0.01901   1.98432
    A6        1.90056  -0.00217   0.00000  -0.02043  -0.01999   1.88057
    A7        1.78169   0.00037   0.00000   0.00388   0.00398   1.78568
    A8        1.89509  -0.00198   0.00000  -0.02469  -0.02473   1.87036
    A9        1.95830   0.00088   0.00000   0.01389   0.01360   1.97191
   A10        1.95487  -0.00091   0.00000  -0.01267  -0.01289   1.94198
   A11        2.00467  -0.00303   0.00000  -0.03764  -0.03755   1.96713
   A12        1.86776   0.00435   0.00000   0.05343   0.05355   1.92131
   A13        1.88192   0.00004   0.00000  -0.00271  -0.00342   1.87850
   A14        1.92217   0.00003   0.00000   0.01237   0.01217   1.93434
   A15        1.97027   0.00047   0.00000  -0.01286  -0.01356   1.95671
   A16        1.86368   0.00261   0.00000   0.04280   0.04264   1.90633
   A17        1.94030  -0.00361   0.00000  -0.04348  -0.04376   1.89654
   A18        1.88280   0.00059   0.00000   0.00737   0.00787   1.89067
   A19        1.85299   0.00257   0.00000   0.01460   0.01460   1.86759
   A20        1.88302   0.00734   0.00000   0.03462   0.03502   1.91804
   A21        2.13276   0.00251   0.00000   0.01200   0.01202   2.14478
   A22        2.02821  -0.00667   0.00000  -0.02248  -0.02246   2.00574
   A23        2.12213   0.00415   0.00000   0.01039   0.01033   2.13246
   A24        1.84776  -0.00331   0.00000  -0.01900  -0.01878   1.82899
   A25        1.98865   0.00571   0.00000   0.02478   0.02437   2.01303
   A26        1.93537  -0.00311   0.00000  -0.02775  -0.02770   1.90767
   A27        1.92938  -0.00283   0.00000  -0.02823  -0.02795   1.90143
   A28        1.87313   0.00316   0.00000   0.03432   0.03418   1.90730
   A29        1.88650   0.00021   0.00000   0.01575   0.01602   1.90252
   A30        1.83639   0.00244   0.00000   0.01387   0.01387   1.85025
   A31        1.95455   0.00059   0.00000   0.00615   0.00628   1.96084
   A32        1.93804  -0.00672   0.00000  -0.04273  -0.04315   1.89489
   A33        1.91794  -0.00071   0.00000  -0.01497  -0.01532   1.90262
   A34        1.89351   0.00638   0.00000   0.05714   0.05736   1.95087
   A35        1.86462  -0.00043   0.00000  -0.00190  -0.00191   1.86271
   A36        1.89271   0.00123   0.00000  -0.00159  -0.00263   1.89008
   A37        1.86617   0.00526   0.00000   0.02987   0.02987   1.89605
   A38        2.12734  -0.00012   0.00000  -0.00339  -0.00335   2.12399
   A39        2.05838  -0.00862   0.00000  -0.04759  -0.04762   2.01076
   A40        2.09744   0.00874   0.00000   0.05102   0.05099   2.14843
   A41        2.07640   0.00338   0.00000   0.01631   0.01641   2.09281
   A42        2.14952  -0.00191   0.00000  -0.00940  -0.00945   2.14007
   A43        2.05725  -0.00147   0.00000  -0.00691  -0.00696   2.05029
   A44        2.02046  -0.00998   0.00000  -0.03369  -0.03364   1.98682
   A45        2.11628   0.01907   0.00000   0.06977   0.06974   2.18602
   A46        2.14642  -0.00909   0.00000  -0.03605  -0.03608   2.11034
   A47        2.19750   0.00565   0.00000   0.02508   0.02505   2.22255
   A48        2.04158  -0.00030   0.00000   0.00179   0.00180   2.04339
   A49        2.04399  -0.00535   0.00000  -0.02690  -0.02689   2.01710
   A50        2.02233  -0.00310   0.00000  -0.01493  -0.01510   2.00723
   A51        2.15150  -0.00825   0.00000  -0.02917  -0.02921   2.12229
   A52        2.10913   0.01136   0.00000   0.04457   0.04454   2.15366
    D1        0.60773  -0.00291   0.00000  -0.03060  -0.03082   0.57691
    D2       -1.45943  -0.00122   0.00000  -0.00761  -0.00792  -1.46734
    D3        2.76295  -0.00585   0.00000  -0.06606  -0.06634   2.69661
    D4       -1.45533   0.00143   0.00000   0.01212   0.01208  -1.44325
    D5        2.76070   0.00312   0.00000   0.03511   0.03498   2.79568
    D6        0.69989  -0.00151   0.00000  -0.02334  -0.02345   0.67644
    D7        2.71459   0.00133   0.00000   0.01991   0.02024   2.73483
    D8        0.64743   0.00302   0.00000   0.04290   0.04314   0.69057
    D9       -1.41338  -0.00161   0.00000  -0.01555  -0.01529  -1.42866
   D10       -0.65432   0.00426   0.00000   0.03434   0.03433  -0.61998
   D11       -2.77832   0.00664   0.00000   0.06786   0.06791  -2.71042
   D12        1.37186   0.00457   0.00000   0.05025   0.05058   1.42244
   D13        1.38020  -0.00018   0.00000   0.00430   0.00429   1.38449
   D14       -0.74381   0.00219   0.00000   0.03782   0.03786  -0.70594
   D15       -2.87681   0.00013   0.00000   0.02022   0.02054  -2.85627
   D16       -2.75879  -0.00284   0.00000  -0.03364  -0.03380  -2.79259
   D17        1.40039  -0.00046   0.00000  -0.00012  -0.00023   1.40016
   D18       -0.73261  -0.00253   0.00000  -0.01773  -0.01755  -0.75016
   D19       -0.49538  -0.00105   0.00000  -0.03039  -0.03105  -0.52642
   D20        1.49900   0.00130   0.00000   0.02116   0.02174   1.52074
   D21       -2.61340  -0.00126   0.00000  -0.02454  -0.02446  -2.63786
   D22       -0.37833   0.00200   0.00000   0.02999   0.02972  -0.34861
   D23       -2.40573  -0.00116   0.00000  -0.02621  -0.02642  -2.43215
   D24        1.77189  -0.00225   0.00000  -0.03570  -0.03583   1.73606
   D25        1.64581  -0.00049   0.00000  -0.00209  -0.00220   1.64362
   D26       -0.38158  -0.00365   0.00000  -0.05829  -0.05834  -0.43992
   D27       -2.48715  -0.00474   0.00000  -0.06778  -0.06774  -2.55489
   D28       -2.50196   0.00229   0.00000   0.03056   0.03037  -2.47159
   D29        1.75384  -0.00086   0.00000  -0.02564  -0.02578   1.72806
   D30       -0.35173  -0.00196   0.00000  -0.03513  -0.03518  -0.38691
   D31       -3.12897  -0.00054   0.00000   0.00779   0.00811  -3.12087
   D32        1.20003   0.00062   0.00000   0.02390   0.02355   1.22358
   D33       -1.01159   0.00193   0.00000   0.04148   0.04150  -0.97008
   D34       -0.02617  -0.00121   0.00000  -0.01470  -0.01466  -0.04083
   D35        2.03913   0.00023   0.00000   0.02097   0.02134   2.06047
   D36       -2.19457   0.00053   0.00000   0.03168   0.03113  -2.16344
   D37       -1.83323   0.00156   0.00000   0.04129   0.04082  -1.79242
   D38        1.29403   0.00139   0.00000   0.03449   0.03401   1.32804
   D39        0.28423  -0.00068   0.00000  -0.00310  -0.00258   0.28166
   D40       -2.87169  -0.00086   0.00000  -0.00990  -0.00939  -2.88107
   D41        2.32206   0.00081   0.00000   0.02881   0.02877   2.35083
   D42       -0.83386   0.00063   0.00000   0.02200   0.02196  -0.81190
   D43        0.42602   0.00020   0.00000  -0.00709  -0.00708   0.41894
   D44        2.58768   0.00337   0.00000  -0.00576  -0.00522   2.58246
   D45       -1.64196   0.00392   0.00000   0.01780   0.01822  -1.62374
   D46        3.13914   0.00004   0.00000   0.00021   0.00011   3.13925
   D47       -0.00920   0.00029   0.00000   0.00641   0.00619  -0.00301
   D48        0.01264   0.00031   0.00000   0.00763   0.00767   0.02031
   D49       -3.13570   0.00057   0.00000   0.01384   0.01375  -3.12195
   D50        3.13365  -0.00023   0.00000  -0.00575  -0.00565   3.12800
   D51       -0.03101   0.00074   0.00000   0.01827   0.01781  -0.01320
   D52       -0.02218  -0.00042   0.00000  -0.01249  -0.01239  -0.03457
   D53        3.09635   0.00055   0.00000   0.01153   0.01107   3.10742
   D54        0.89782   0.00091   0.00000   0.02407   0.02382   0.92164
   D55       -1.22192  -0.00294   0.00000  -0.02334  -0.02313  -1.24506
   D56        2.96724   0.00028   0.00000   0.01575   0.01534   2.98258
   D57       -1.18038   0.00333   0.00000   0.05199   0.05186  -1.12852
   D58        2.98306  -0.00052   0.00000   0.00458   0.00491   2.98797
   D59        0.88904   0.00270   0.00000   0.04367   0.04338   0.93242
   D60        3.05748   0.00098   0.00000   0.01712   0.01721   3.07469
   D61        0.93774  -0.00287   0.00000  -0.03028  -0.02975   0.90800
   D62       -1.15628   0.00035   0.00000   0.00880   0.00873  -1.14755
   D63       -1.67388   0.00115   0.00000   0.00496   0.00475  -1.66913
   D64        0.47129  -0.00250   0.00000  -0.00516  -0.00511   0.46618
   D65        2.50855   0.00195   0.00000   0.02096   0.02111   2.52966
   D66       -0.00024   0.00005   0.00000   0.00107   0.00115   0.00092
   D67        3.13703   0.00002   0.00000   0.00080   0.00087   3.13790
   D68       -3.13493  -0.00015   0.00000  -0.00489  -0.00503  -3.13995
   D69        0.00234  -0.00017   0.00000  -0.00516  -0.00531  -0.00297
   D70       -0.00136  -0.00012   0.00000  -0.00361  -0.00356  -0.00492
   D71       -3.13549  -0.00016   0.00000  -0.00733  -0.00750   3.14020
   D72       -3.13885  -0.00009   0.00000  -0.00335  -0.00329   3.14105
   D73        0.01020  -0.00014   0.00000  -0.00708  -0.00723   0.00298
   D74       -0.01000  -0.00008   0.00000  -0.00243  -0.00253  -0.01253
   D75       -3.13483   0.00005   0.00000   0.00029   0.00015  -3.13469
   D76        3.12399   0.00010   0.00000   0.00187   0.00172   3.12571
   D77       -0.00085   0.00023   0.00000   0.00458   0.00440   0.00355
   D78        0.02146   0.00036   0.00000   0.01028   0.01030   0.03176
   D79       -3.09767  -0.00031   0.00000  -0.01208  -0.01256  -3.11024
   D80       -3.13691   0.00027   0.00000   0.00781   0.00790  -3.12902
   D81        0.02714  -0.00041   0.00000  -0.01455  -0.01497   0.01217
         Item               Value     Threshold  Converged?
 Maximum Force            0.021400     0.000450     NO 
 RMS     Force            0.005108     0.000300     NO 
 Maximum Displacement     0.381401     0.001800     NO 
 RMS     Displacement     0.071353     0.001200     NO 
 Predicted change in Energy=-8.948814D-03
 GradGradGradGradGradGradGradGradGradGradGradGradGradGradGradGradGradGrad

                          Input orientation:                          
 ---------------------------------------------------------------------
 Center     Atomic      Atomic             Coordinates (Angstroms)
 Number     Number       Type             X           Y           Z
 ---------------------------------------------------------------------
      1          6           0       -2.985437   -1.829684    0.535227
      2          6           0       -2.228890   -1.318427   -0.686908
      3          6           0       -1.860497    0.108811   -0.269566
      4          8           0       -3.143372   -1.317597   -1.776729
      5          1           0       -1.350530   -1.927796   -0.932711
      6          8           0       -2.729431    0.485680    0.782228
      7          1           0       -1.985343    0.805290   -1.108584
      8          7           0       -0.484905    0.204204    0.204737
      9          6           0       -3.668208   -0.568089    1.041351
     10          1           0       -2.254150   -2.175420    1.275611
     11          8           0       -3.876393   -2.893572    0.281505
     12          6           0       -4.015239   -0.565856    2.515219
     13          1           0       -4.585381   -0.390451    0.456329
     14          8           0       -2.890053   -0.877495    3.338724
     15          1           0       -4.847074   -1.264826    2.679942
     16          1           0       -4.348265    0.440057    2.802729
     17          1           0       -4.184028   -2.773002   -0.628389
     18          1           0       -2.658104   -1.012211   -2.551734
     19          1           0       -2.908170   -1.816648    3.540742
     20          6           0       -0.158044    0.284342    1.541045
     21          6           0        1.124622    0.369204    1.953713
     22          6           0        2.205423    0.378740    0.973104
     23          7           0        1.771063    0.288997   -0.340232
     24          6           0        0.473006    0.182177   -0.784729
     25          1           0       -1.003632    0.274569    2.226595
     26          1           0        1.398566    0.436287    3.000863
     27          1           0        2.481952    0.285174   -1.061723
     28          8           0        3.397343    0.453418    1.237004
     29          8           0        0.171934    0.075187   -1.967224
 ---------------------------------------------------------------------
                    Distance matrix (angstroms):
                    1          2          3          4          5
     1  C    0.000000
     2  C    1.525569   0.000000
     3  C    2.381374   1.531958   0.000000
     4  O    2.373251   1.422669   2.439661   0.000000
     5  H    2.199407   1.096935   2.201726   2.073401   0.000000
     6  O    2.342533   2.379854   1.415396   3.157755   3.266076
     7  H    3.262728   2.178831   1.097553   2.508804   2.811349
     8  N    3.240152   2.480911   1.458190   3.648223   2.566811
     9  C    1.521170   2.370975   2.333348   2.962902   3.334270
    10  H    1.096578   2.141624   2.785722   3.292925   2.398861
    11  O    1.410686   2.476524   3.658116   2.693946   2.964292
    12  C    2.564784   3.743130   3.585123   4.443656   4.565498
    13  H    2.153471   2.778701   2.863770   2.815233   3.841501
    14  O    2.962323   4.103325   3.879760   5.140595   4.660303
    15  H    2.895610   4.265377   4.416573   4.771509   5.071155
    16  H    3.485769   4.445401   3.967078   5.050995   5.342908
    17  H    1.918456   2.437576   3.719192   2.125995   2.972490
    18  H    3.210100   1.937929   2.664800   0.964042   2.273606
    19  H    3.006536   4.310762   4.395845   5.346015   4.738183
    20  C    3.670821   3.438175   2.491479   4.741942   3.526336
    21  C    4.872350   4.589883   3.731181   5.914158   4.442300
    22  C    5.658083   5.029826   4.260140   6.248899   4.647261
    23  N    5.280107   4.324768   3.636714   5.366222   3.874215
    24  C    4.213158   3.092187   2.390819   4.038759   2.792699
    25  H    3.349053   3.539406   2.644336   4.810414   3.866777
    26  H    5.516654   5.462336   4.628654   6.821341   5.349713
    27  H    6.075790   4.990396   4.417633   5.892739   4.427392
    28  O    6.815052   6.204464   5.480273   7.416201   5.737608
    29  O    4.456432   3.057013   2.648387   3.601026   2.720304
                    6          7          8          9         10
     6  O    0.000000
     7  H    2.056936   0.000000
     8  N    2.334657   2.082650   0.000000
     9  C    1.434878   3.056211   3.380795   0.000000
    10  H    2.747867   3.826392   3.152715   2.153590   0.000000
[...]
 00019138,-0.01595451,-0.00137678,-0.02624703,0.03149324,0.00137649,0.0
 2170883,-0.13224244,-0.00221045,0.03069336,0.79997440,0.00007619,0.000
 02335,-0.00005885,0.00100255,-0.00022137,0.00017138,0.00001141,0.00365
 178,-0.00073853,-0.00002092,0.00019541,-0.00000636,0.00010909,-0.00009
 377,0.00005668,-0.00052858,-0.00005001,0.00052685,-0.00059388,-0.00044
 635,0.00025639,-0.00185063,0.00952869,0.00259699,0.00006513,0.00018335
 ,-0.00007168,0.00001803,-0.00001168,-0.00004667,-0.00006262,0.00002591
 ,0.00002427,-0.00002823,0.00000400,-0.00006463,-0.00002258,-0.00002982
 ,-0.00000140,0.00002848,0.00001507,0.00006547,0.00000653,-0.00000710,0
 .00000884,-0.00000317,0.00000547,0.00001062,0.00003550,-0.00000213,-0.
 00000379,0.00001840,-0.00001801,0.00001913,0.00000610,-0.00000680,-0.0
 0002591,-0.00125458,-0.00013331,-0.00206121,0.00153781,0.00999797,-0.0
 0051953,-0.00419644,-0.05325077,-0.00515136,0.03319676,0.06619415,-0.0
 0032018,0.00019571,-0.00064360,0.00014046,-0.00042771,-0.00014816,-0.0
 0008788,-0.00003717,-0.00742564,-0.00035127,-0.00007505,0.00085108,-0.
 00008602,0.00077294,-0.00011286,0.00199362,0.00001075,0.00159594,0.000
 76481,-0.00081823,0.00036982,0.02153949,0.00211469,0.03465877,0.000100
 53,-0.00049159,0.00032576,-0.00002232,-0.00015769,0.00005061,-0.000255
 39,-0.00015349,0.00051513,-0.00052724,0.00027007,-0.00056488,0.0001528
 6,0.00008665,-0.00001183,0.00075591,-0.00000601,0.00033954,0.00009664,
 -0.00001221,0.00005749,0.00000858,-0.00000700,0.00010032,0.00027120,0.
 00013533,-0.00022616,0.00098914,0.00035804,0.00005071,-0.00012713,-0.0
 0002631,-0.00010268,-0.00960454,-0.00080412,-0.01868705,0.01499665,-0.
 00109133,-0.04112122,-0.00715504,-0.00530635,-0.23520728,-0.07397460,0
 .02669950,0.74698216,-0.00057357,-0.00059934,0.00062529,-0.00126178,-0
 .00099960,-0.00055853,-0.03921893,-0.00035285,0.02236266,0.00220136,0.
 00128340,0.00150610,-0.00016171,-0.00182187,-0.00016871,-0.00136189,-0
 .00035291,-0.00371677,-0.00073013,0.00090362,0.00108236,-0.21084255,-0
 .00240893,0.03429843,-0.00181745,-0.00029771,0.00022544,0.00016447,-0.
 00010517,0.00014496,0.00104914,0.00120339,-0.00025045,0.00015857,-0.00
 014166,0.00053543,0.00010842,-0.00001363,0.00013538,-0.00002346,0.0002
 0390,-0.00081325,0.00003518,0.00010619,-0.00010273,-0.00004324,-0.0000
 5697,-0.00009672,-0.00038263,-0.00030748,0.00009636,-0.00020348,-0.000
 26173,-0.00085441,0.00008905,-0.00008997,0.00032841,0.04640714,0.00347
 410,0.05034632,-0.03786797,-0.00132484,0.00492833,0.00712918,-0.002387
 53,-0.09467793,-0.28948941,-0.01377135,-0.00501711,0.67492845,-0.00004
 796,-0.00012886,0.00062862,-0.00298467,0.00093811,-0.00078912,-0.00146
 896,-0.00065782,0.00142442,0.00076020,-0.00083204,0.00034551,-0.000972
 76,-0.00137917,-0.00027683,0.00149524,0.00072317,-0.00133467,0.0004813
 7,0.00140412,-0.00010051,-0.00252492,-0.06902291,-0.00222135,0.0003901
 4,-0.00032875,0.00003041,-0.00007697,0.00000809,-0.00000688,0.00026864
 ,0.00004525,-0.00021515,0.00012217,-0.00004870,0.00014235,-0.00000125,
 0.00007623,-0.00001910,-0.00007075,-0.00004244,-0.00019973,-0.00002203
 ,0.00000613,-0.00000417,0.00001506,-0.00001108,-0.00007152,-0.00015796
 ,-0.00001956,0.00003160,-0.00017054,0.00018014,-0.00015179,-0.00000921
 ,-0.00000340,0.00006591,0.00228307,-0.00161780,0.00121095,-0.00114510,
 0.00037756,0.00035580,-0.00049595,-0.01423272,-0.00381225,-0.01572219,
 -0.05819380,-0.00483712,0.02942574,0.21789109,0.00250165,-0.00072924,0
 .00152180,-0.00381672,0.00498116,0.00171326,0.02166455,-0.00269262,0.0
 2753524,-0.00185366,-0.00220285,-0.00514375,-0.00023348,-0.00280841,0.
 00104682,-0.01119278,-0.00045700,-0.00086971,-0.00757038,0.00210830,-0
 .00281946,0.05266750,-0.00240408,-0.17126964,0.00152911,0.00383180,-0.
 00270018,-0.00016686,0.00047963,-0.00046780,-0.00038034,-0.00099147,-0
 .00124638,0.00087625,-0.00057072,0.00047677,-0.00096265,-0.00063480,0.
 00005109,-0.00127891,-0.00011664,0.00010958,-0.00019071,-0.00008735,0.
 00006936,0.00006664,0.00005216,-0.00022919,-0.00044359,-0.00006256,0.0
 0059893,-0.00322631,-0.00068839,0.00052340,0.00024078,0.00012732,-0.00
 009246,0.01301067,-0.00174395,-0.05316562,0.01402299,0.00061621,0.0030
 9555,-0.03616724,-0.00163694,0.01084461,-0.05186764,-0.00721027,-0.157
 33030,0.10113293,0.04978468,0.95619683,0.00018489,-0.00055226,-0.00024
 723,-0.00003044,0.00015637,0.00010851,0.00075925,0.00010793,-0.0009193
 4,-0.00013613,-0.00001900,0.00012704,-0.00002806,0.00015024,0.00012276
 ,-0.00319496,0.00014257,-0.00170968,-0.00013796,0.00004507,0.00026748,
 0.01248971,0.00048875,-0.00571185,-0.00137807,-0.00095344,-0.00040617,
 0.00010884,0.00000987,-0.00019066,-0.00007121,0.00031983,0.00024661,-0
 .00207208,0.00029810,-0.00075898,0.00015082,0.00011490,0.00019607,-0.0
 0117579,0.00064193,0.00041703,0.00022337,0.00008792,0.00007948,-0.0000
 9239,-0.00006744,0.00013313,0.00002613,-0.00004145,-0.00011407,0.00005
 202,-0.00001368,-0.00002782,0.00104220,-0.00009729,-0.00009020,-0.2400
 0366,-0.00513442,0.14696286,-0.01172837,-0.00064568,0.01555851,-0.0032
 5958,-0.00090247,-0.00230788,-0.00008414,-0.00000848,-0.00062765,-0.00
 082313,-0.00000750,-0.00125633,0.24870720,-0.00048278,0.00000207,-0.00
 045321,-0.00016552,0.00028898,-0.00027972,0.00035493,-0.00160171,0.000
 05204,-0.00011200,-0.00021093,0.00007722,0.00002262,-0.00003003,-0.000
 00626,0.00004216,-0.00091358,0.00066034,0.00023114,0.00004458,-0.00004
 542,0.00153221,0.00388733,-0.00215335,0.00004812,0.00057857,-0.0005226
 2,0.00008516,-0.00036812,-0.00009381,0.00013736,-0.00003942,0.00030576
 ,-0.00124361,0.00070693,-0.00092193,-0.00004897,-0.00013068,0.00016321
 ,0.00154429,-0.00064522,0.00009074,0.00026365,-0.00006288,0.00020747,0
 .00026326,-0.00012079,0.00000516,0.00006107,0.00003880,-0.00005431,0.0
 0001744,0.00002107,0.00002053,-0.00035825,-0.00033078,0.00024834,-0.00
 569702,-0.04492557,0.00333908,-0.00136807,0.00835616,0.00070580,-0.000
 85907,0.01215317,-0.00047753,0.00022585,-0.00082969,-0.00003972,-0.000
 54673,0.00390091,-0.00000224,0.00557969,0.02914612,-0.00013531,0.00002
 818,-0.00032211,-0.00018493,-0.00019681,-0.00030561,0.00243693,-0.0002
 0519,-0.00147116,0.00006093,0.00007171,0.00015106,0.00002559,0.0001354
 0,0.00002157,0.00100446,0.00042318,0.00142117,0.00003482,-0.00004372,0
 .00002905,0.02563532,0.00047214,-0.02260232,-0.00186940,-0.00108713,0.
 00043285,-0.00004667,-0.00012641,0.00018011,0.00021411,0.00026453,0.00
 013237,0.00086547,-0.00074820,0.00149405,0.00033336,0.00017497,-0.0001
 1314,0.00014819,0.00015867,-0.00181753,-0.00028744,0.00008894,-0.00033
 529,-0.00003644,0.00004920,-0.00005621,0.00000399,-0.00000307,-0.00002
 929,0.00003128,-0.00001267,-0.00003947,-0.00044741,0.00006716,0.000076
 89,0.13881224,0.00226757,-0.16773686,-0.01045358,-0.00030827,0.0128997
 6,-0.00209478,-0.00041655,-0.00224556,0.00049047,0.00005347,0.00103278
 ,-0.00604770,-0.00021033,-0.00180605,-0.14877529,-0.00094886,0.1814748
 2,-0.00000041,-0.00000730,-0.00006534,-0.00008028,0.00028384,0.0000070
 6,0.00119028,-0.00013063,-0.00127853,-0.00013685,-0.00018264,-0.000103
 01,-0.00001119,-0.00000861,0.00000352,-0.00013754,-0.00002943,0.000448
 55,-0.00033279,-0.00006125,-0.00011435,-0.00565922,-0.00075909,-0.0013
 5246,0.00013575,0.00015908,-0.00007303,0.00001275,-0.00001360,-0.00001
 299,-0.00004097,-0.00004178,0.00004613,-0.00014331,0.00005753,-0.00017
 349,-0.00002259,-0.00002235,0.00001479,0.00023526,-0.00003499,0.000187
 42,0.00003416,-0.00000233,0.00003979,-0.00000045,-0.00000777,0.0000065
 5,0.00002184,0.00001310,-0.00001670,-0.00001155,0.00001593,0.00004363,
 -0.00005569,-0.00001315,-0.00003044,-0.00156039,-0.00085985,-0.0290712
 2,-0.06584993,-0.00371371,-0.06085769,0.01041562,0.00114244,0.02306278
 ,-0.00392758,-0.00018553,0.00410548,-0.00249051,-0.00011502,0.00040280
 ,0.00086784,0.00029942,0.00011504,0.06542197,-0.00001659,0.00002536,0.
 00000165,0.00032898,-0.00012830,0.00006816,-0.00014134,0.00204774,-0.0
 0034921,0.00012917,0.00007785,0.00013246,-0.00000722,-0.00002530,0.000
 01076,0.00001128,-0.00005164,0.00006946,-0.00044273,-0.00002608,-0.000
 19749,-0.00025819,0.00795431,-0.00024313,0.00004086,0.00002309,0.00003
 929,0.00000195,0.00002237,-0.00001559,0.00000915,-0.00001324,0.0000004
 3,-0.00005734,0.00003120,-0.00005386,-0.00000353,-0.00000130,-0.000002
 84,0.00005774,-0.00009104,0.00013002,0.00000421,-0.00000098,0.00000771
 ,0.00001936,-0.00001025,0.00000579,-0.00000541,0.00000069,-0.00000105,
 0.00000681,0.00002621,-0.00001136,-0.00010672,0.00000477,-0.00003155,0
 .00006067,-0.00126617,-0.00126594,-0.00390308,-0.02734211,-0.01261778,
 0.00023087,0.00106626,0.00070183,-0.00026416,0.00279892,0.00010578,-0.
 00020475,-0.00020402,0.00019669,0.00032114,-0.00547948,0.00012182,0.00
 404665,0.02279786,-0.00002361,0.00000941,-0.00001898,-0.00002276,0.000
 04191,-0.00003003,0.00029562,0.00000312,-0.00006726,-0.00000122,-0.000
 02169,0.00001463,0.00000098,0.00000564,0.00000118,0.00001272,-0.000021
 89,0.00007744,-0.00003685,-0.00004208,0.00002305,-0.00090414,-0.000250
 66,0.00312410,0.00000793,0.00003405,0.00000321,-0.00000250,-0.00000918
 ,0.00000995,0.00001682,0.00000192,0.00001654,-0.00002186,-0.00001013,-
 0.00002118,-0.00000036,-0.00000729,0.00000171,0.00003050,-0.00001953,-
 0.00002498,0.00000150,0.00000308,0.00000431,0.00000011,-0.00000304,0.0
 0000326,0.00000329,0.00000241,-0.00000540,0.00000591,0.00000293,0.0000
 0028,-0.00002969,-0.00000194,0.00002270,0.00178790,0.00001540,-0.00419
 584,-0.06142084,-0.01237581,-0.34713497,-0.01038233,-0.00095366,-0.013
 50075,0.00322758,0.00003325,-0.00202486,0.00191229,0.00008338,0.000035
 39,-0.00010065,0.00019988,0.00051848,0.06632006,0.01319380,0.36112322,
 -0.00002628,-0.00003856,0.00002524,-0.00011425,0.00011885,-0.00002633,
 0.00038461,-0.00010795,0.00140850,0.00006344,-0.00001822,-0.00004168,0
 .00000546,-0.00009840,-0.00000298,-0.00036679,-0.00002181,0.00003813,-
 0.00009694,0.00006525,-0.00003037,-0.00452039,-0.00069376,-0.00449000,
 -0.00006381,0.00011616,-0.00006723,0.00000379,-0.00001491,0.00000692,0
 .00006907,0.00004552,-0.00001160,-0.00004562,-0.00000506,-0.00002124,-
 0.00001860,-0.00002616,0.00001693,0.00007944,0.00000037,-0.00002400,0.
 00001121,0.00000536,0.00000861,-0.00000015,-0.00000627,-0.00000697,-0.
 00002889,-0.00001804,0.00000925,-0.00010495,-0.00003791,-0.00002224,-0
 .00001718,-0.00000901,0.00002421,0.00011817,0.00004322,-0.00084423,-0.
 00032182,-0.00030391,-0.00307438,0.01744295,0.00046078,-0.00429195,-0.
 26595609,-0.00267887,0.18713818,-0.02046239,0.00058238,0.02785571,-0.0
 0009290,0.00002537,0.00007193,0.00062070,0.00001954,-0.00053718,0.2719
 4656,-0.00002884,0.00001923,-0.00003758,-0.00004814,0.00001660,0.00011
 413,0.00027866,0.00096874,0.00010325,0.00007179,-0.00005317,0.00003488
 ,-0.00000428,0.00000921,-0.00000790,-0.00025245,-0.00018767,0.00010190
 ,-0.00003054,-0.00001860,-0.00006429,-0.00076764,0.00461500,-0.0006434
 4,0.00001899,0.00012086,-0.00004136,0.00000847,0.00000944,0.00002388,0
 .00001017,-0.00004863,-0.00000998,-0.00002186,-0.00000420,-0.00000603,
 -0.00000854,-0.00002000,0.00000197,0.00001724,-0.00001887,0.00000902,-
 0.00000066,-0.00000031,0.00000687,0.00000516,-0.00000400,-0.00000739,-
 0.00001187,0.00001133,0.00000920,-0.00000632,0.00005354,-0.00000419,-0
 .00001512,0.00000886,0.00000724,0.00006352,-0.00076711,-0.00009115,-0.
 00035788,0.00387942,-0.00031595,0.00197326,0.00123960,-0.00037442,-0.0
 0201551,-0.01767533,-0.00363105,-0.00121780,-0.00111034,0.00261921,0.0
 0001350,-0.00039764,0.00001205,0.00005647,0.00028221,-0.00004304,0.002
 02499,0.01701953,0.00006523,0.00006002,-0.00000242,0.00005337,0.000120
 76,0.00014506,0.00030094,-0.00009991,0.00084854,-0.00014368,-0.0000823
 3,-0.00018225,-0.00000231,0.00001880,0.00001412,-0.00066594,-0.0001176
 0,0.00014981,-0.00002904,0.00001394,-0.00000138,-0.00504842,-0.0004365
 7,-0.00007898,0.00010641,0.00018963,-0.00004484,-0.00000208,0.00000698
 ,-0.00002236,-0.00008156,-0.00010429,-0.00002030,-0.00001494,-0.000018
 15,-0.00003693,-0.00004940,-0.00003073,0.00000215,-0.00001482,-0.00001
 174,0.00005920,-0.00000551,-0.00000933,0.00001888,0.00000512,0.0000054
 2,-0.00000005,0.00001724,0.00001962,0.00001428,-0.00000703,0.00001406,
 0.00006978,0.00000419,0.00000865,-0.00002501,-0.00111685,-0.00005679,-
 0.00089453,-0.00395710,-0.00048506,-0.00488651,0.02926533,0.00036298,-
 0.01791307,0.19252940,-0.00236317,-0.25595507,-0.00737391,0.00057403,0
 .01828174,0.00006271,0.00003366,0.00001741,0.00125059,0.00005168,-0.00
 055332,-0.20402895,0.00192244,0.25882433,0.00064811,0.00053706,-0.0001
 8289,0.00002369,0.00111713,0.00122089,0.00509688,-0.00068203,-0.000353
 23,-0.00131675,-0.00087134,-0.00117103,-0.00002553,0.00034034,0.000019
 54,-0.00287901,-0.00051291,0.00089562,-0.00077145,-0.00027763,-0.00023
 669,-0.00413064,-0.00041822,-0.01040572,0.00140912,0.00126525,-0.00036
 402,-0.00000064,0.00020250,-0.00011772,-0.00094237,-0.00107172,-0.0000
 4853,0.00026797,-0.00013622,-0.00015480,-0.00033471,-0.00018151,-0.000
 05576,-0.00075976,-0.00025346,0.00082936,-0.00014027,-0.00010108,0.000
 06975,0.00004225,0.00007549,-0.00000885,0.00025793,0.00023986,0.000028
 05,0.00024389,0.00024521,0.00047583,0.00005515,0.00016338,-0.00037608,
 0.00858513,0.00042539,0.01778252,-0.07065622,-0.00461258,0.00151095,-0
 .66482867,-0.03175881,-0.10377974,-0.04441530,-0.00473834,-0.05641034,
 0.00821448,0.00057457,0.00346070,-0.00040182,0.00013399,-0.00127862,0.
 00081638,0.00016374,0.00024979,-0.00307468,-0.00022667,-0.00185692,0.7
 7324359,0.00006325,-0.00000419,0.00001916,-0.00002741,-0.00000378,0.00
 005299,0.00034150,-0.00039671,0.00003202,-0.00009938,0.00000247,-0.000
 07091,-0.00002048,0.00004901,0.00001898,-0.00013983,0.00004105,0.00010
 646,0.00002751,-0.00000420,-0.00011366,-0.00036314,-0.00001880,-0.0002
 1112,0.00003610,0.00001256,0.00000595,0.00000220,0.00001278,-0.0000280
 8,-0.00007470,-0.00001165,0.00000087,0.00004247,-0.00002896,0.00000478
 ,-0.00001560,-0.00000082,-0.00000531,-0.00012143,0.00002936,0.00006185
 ,-0.00000959,-0.00000236,-0.00000404,-0.00001123,0.00001107,0.00000527
 ,0.00002335,0.00000094,0.00000175,0.00003650,-0.00001625,0.00002514,0.
 00003796,-0.00000129,-0.00002790,0.00018367,0.00374704,0.00042147,-0.0
 0386216,0.02238428,0.00002194,-0.03210249,-0.07722735,-0.00645353,-0.0
 0563707,0.01862301,-0.00433887,0.00071279,0.00714879,-0.00024982,0.000
 16919,-0.00274492,0.00002638,0.00005860,-0.00204292,0.00013173,0.00013
 410,-0.00410530,0.00033633,0.04093401,0.03613527,-0.00006374,0.0000937
 9,-0.00022209,0.00013894,0.00007860,0.00001761,0.00079784,-0.00009600,
 -0.00006818,-0.00022953,-0.00009888,0.00009607,-0.00001711,0.00018559,
 -0.00000423,-0.00058272,-0.00010668,0.00102049,0.00015109,-0.00016719,
 0.00010063,-0.00665186,0.00002929,0.00959573,0.00006530,0.00016455,-0.
 00004840,-0.00000068,-0.00007468,-0.00000883,-0.00011559,-0.00010414,0
 .00017681,-0.00031452,0.00009405,-0.00032208,-0.00001992,-0.00003800,0
 .00001959,0.00043190,0.00001816,0.00017064,0.00005196,-0.00001034,0.00
 005572,0.00001143,-0.00000091,0.00003505,0.00009579,0.00004895,-0.0000
 7187,0.00021310,0.00007031,0.00003710,-0.00005530,-0.00000529,-0.00006
 262,0.00154652,-0.00027551,-0.01219118,0.02450553,0.00118256,0.0227047
 5,-0.10810040,-0.00662966,-0.12332003,-0.08323720,-0.00545586,-0.02502
 623,0.02249565,0.00080300,-0.00665377,0.00071185,0.00010560,0.00094626
 ,-0.00283112,0.00001297,0.00240945,0.00173349,0.00036515,0.00540377,0.
 15638526,0.01044853,0.12871160,-0.00056948,0.00103981,-0.00070814,0.00
 091963,-0.00073694,0.00046192,-0.00224587,0.00334301,-0.00305494,-0.00
 020399,-0.00039641,0.00055632,-0.00084703,0.00072832,0.00030018,-0.000
 33315,-0.00144977,0.00364882,-0.00003126,-0.00125263,0.00310636,0.0217
 6997,0.00098268,0.03800910,0.00074854,0.00030704,0.00082581,0.00002886
 ,-0.00010488,0.00001131,-0.00051751,-0.00064967,0.00030778,-0.00060147
 ,0.00002187,-0.00057984,-0.00002298,-0.00001749,-0.00005025,0.00045580
 ,-0.00008691,0.00049114,0.00002167,-0.00005730,0.00017878,0.00003183,0
 .00002870,0.00007142,0.00030468,0.00021561,-0.00011373,0.00110016,0.00
 063346,0.00048343,-0.00010261,0.00004152,-0.00016314,-0.01094060,-0.00
 023604,-0.00727345,0.00734190,0.00035387,-0.00298520,-0.00318930,0.000
 11160,0.02302099,-0.02181178,-0.00616778,-0.07848680,-0.13273121,-0.01
 040483,-0.11882468,0.00009845,0.00001427,0.00137343,0.00068868,-0.0000
 4105,-0.00038902,0.00456634,0.00047194,0.00073792,-0.00422677,-0.00031
 866,-0.00711594,0.14029850,-0.00046911,0.00085909,-0.00039057,0.000894
 58,-0.00266342,0.00082458,-0.00066358,-0.00437779,-0.00047862,-0.00051
 760,0.00087764,0.00020059,-0.00088111,0.00119203,0.00016406,0.00095684
 ,0.00091299,-0.00054759,-0.00023540,-0.00011029,-0.00061635,0.00225268
 ,0.02036618,-0.00481455,-0.00063744,-0.00082274,0.00031587,0.00000747,
 -0.00007486,-0.00002577,-0.00025248,-0.00002643,0.00024941,-0.00007940
 ,0.00029603,-0.00017887,0.00007708,0.00002878,0.00001736,0.00014554,0.
 00005368,0.00012777,0.00003938,0.00000016,-0.00005077,-0.00002469,0.00
 001470,0.00013499,0.00021845,0.00002430,-0.00009839,0.00091311,-0.0004
 7059,0.00009858,0.00000378,-0.00001291,-0.00007292,-0.00012046,0.00447
 611,-0.00047283,0.00041014,-0.00096873,-0.00046952,-0.00025561,0.00740
 429,0.00184011,-0.00507218,0.01972287,-0.00848846,-0.01005031,-0.08486
 619,-0.03950780,-0.00020385,-0.00029325,-0.00010815,0.00005596,-0.0004
 7601,-0.00000197,0.00043696,-0.00384240,0.00007666,-0.00057540,-0.0015
 8811,-0.00063797,0.01362666,0.04436486,-0.00128855,0.00018013,-0.00082
 558,0.00087542,-0.00250537,-0.00176712,-0.01335631,0.00064944,-0.00698
 534,0.00087234,0.00093320,0.00338901,0.00031640,0.00139219,-0.00071632
 ,0.00264965,0.00038456,0.00095594,0.00391308,-0.00111358,0.00061355,0.
 02396330,-0.00452459,-0.08363142,-0.00109379,-0.00153364,0.00108912,0.
 00008843,-0.00036047,0.00027883,0.00025788,0.00056020,0.00084307,-0.00
 085731,0.00040878,-0.00066588,0.00043674,0.00021134,0.00003467,0.00135
 446,0.00014860,0.00005552,0.00018739,0.00004555,0.00003437,-0.00002351
 ,-0.00004622,0.00014111,0.00028931,0.00008360,-0.00042652,0.00221695,0
 .00057841,-0.00053334,-0.00017199,-0.00008823,0.00003456,0.00796015,0.
 00004671,0.00412730,-0.00141199,0.00003569,-0.00380399,0.00431931,0.00
 012444,0.01018928,-0.04641246,-0.00674362,-0.04234228,-0.12247813,-0.0
 4123014,-0.61830610,-0.00175024,-0.00021587,-0.00194802,-0.00007383,-0
 .00006048,0.00018868,-0.00081576,-0.00005341,-0.00323207,-0.00612732,-
 0.00021835,-0.00350178,0.14616040,0.05291114,0.74671078\\-0.00004577,-
 0.00005162,-0.00002318,-0.00001708,-0.00000734,-0.00002349,-0.00004965
 ,0.00002349,0.00000700,0.00002051,0.00001176,0.00002446,0.00000460,0.0
 0000519,0.00000223,0.00001985,-0.00001726,-0.00000877,0.00000758,0.000
 00134,-0.00000773,0.00003143,-0.00002771,-0.00003431,0.00001044,0.0000
 1832,0.00001229,0.00000507,0.00000163,0.00001257,0.00003734,0.00002745
 ,-0.00000294,0.00002179,0.00001083,0.00001312,-0.00000598,-0.00000142,
 -0.00000750,-0.00001353,-0.00000483,-0.00001742,-0.00000481,0.00000082
 ,0.00000267,-0.00000673,-0.00000040,-0.00000771,-0.00000792,-0.0000009
 7,0.00000608,-0.00000217,-0.00000796,-0.00000064,0.00000310,0.00000190
 ,0.00000629,0.00004386,0.00001860,0.00008845,-0.00001404,-0.00000584,-
 0.00004685,-0.00000410,0.00002338,0.00000047,0.00005204,-0.00000178,0.
 00003503,-0.00006556,-0.00000414,-0.00003519,-0.00001709,-0.00000436,-
 0.00002053,0.00000209,0.00000116,0.00000523,-0.00001398,-0.00000308,-0
 .00001116,0.00000426,-0.00001114,0.00000872,0.00000444,0.00000398,0.00
 002279\\\@
 The archive entry for this job was punched.


 A COMPLEXITY IS MERELY A DISARRANGEMENT OF SIMPLICITIES.

                                    -- G. O. ABELL IN "EXPLORATION OF THE UNIVERSE"
 Job cpu time:       0 days 10 hours 40 minutes 33.0 seconds.
 Elapsed time:       0 days  0 hours 16 minutes  9.0 seconds.
 File lengths (MBytes):  RWF=    632 Int=      0 D2E=      0 Chk=     21 Scr=      1
 Normal termination of Gaussian 16 at Thu Oct 17 07:30:25 2024.
