 Entering Gaussian System, Link 0=g16
 Input=UridineRNsllgPBE0aVDZ.gjf
 Output=UridineRNsllgPBE0aVDZ.log
 Initial command:
 /sw/contrib/chem-src/g16/c01/g16/l1.exe "/scr/Gau-37296.inp" -scrdir="/scr/"
 Entering Link 1 = /sw/contrib/chem-src/g16/c01/g16/l1.exe PID=     37297.
  
 Copyright (c) 1988-2019, Gaussian, Inc.  All Rights Reserved.
  
 This is part of the Gaussian(R) 16 program.  It is based on
 the Gaussian(R) 09 system (copyright 2009, Gaussian, Inc.),
 the Gaussian(R) 03 system (copyright 2003, Gaussian, Inc.),
 the Gaussian(R) 98 system (copyright 1998, Gaussian, Inc.),
 the Gaussian(R) 94 system (copyright 1995, Gaussian, Inc.),
 the Gaussian 92(TM) system (copyright 1992, Gaussian, Inc.),
 the Gaussian 90(TM) system (copyright 1990, Gaussian, Inc.),
 the Gaussian 88(TM) system (copyright 1988, Gaussian, Inc.),
 the Gaussian 86(TM) system (copyright 1986, Carnegie Mellon
 University), and the Gaussian 82(TM) system (copyright 1983,
 Carnegie Mellon University). Gaussian is a federally registered
 trademark of Gaussian, Inc.
  
 This software contains proprietary and confidential information,
 including trade secrets, belonging to Gaussian, Inc.
  
 This software is provided under written license and may be
 used, copied, transmitted, or stored only in accord with that
 written license.
  
 The following legend is applicable only to US Government
 contracts under FAR:
  
                    RESTRICTED RIGHTS LEGEND
  
 Use, reproduction and disclosure by the US Government is
 subject to restrictions as set forth in subparagraphs (a)
 and (c) of the Commercial Computer Software - Restricted
 Rights clause in FAR 52.227-19.
  
 Gaussian, Inc.
 340 Quinnipiac St., Bldg. 40, Wallingford CT 06492
  
  
 ---------------------------------------------------------------
 Warning -- This program may not be used in any manner that
 competes with the business of Gaussian, Inc. or will provide
 assistance to any competitor of Gaussian, Inc.  The licensee
 of this program is prohibited from giving any competitor of
 Gaussian, Inc. access to this program.  By using this program,
 the user acknowledges that Gaussian, Inc. is engaged in the
 business of creating and licensing software in the field of
 computational chemistry and represents and warrants to the
 licensee that it is not a competitor of Gaussian, Inc. and that
 it will not use this program in any manner prohibited above.
 ---------------------------------------------------------------
  

 Cite this work as:
 Gaussian 16, Revision C.01,
 M. J. Frisch, G. W. Trucks, H. B. Schlegel, G. E. Scuseria, 
 M. A. Robb, J. R. Cheeseman, G. Scalmani, V. Barone, 
 G. A. Petersson, H. Nakatsuji, X. Li, M. Caricato, A. V. Marenich, 
 J. Bloino, B. G. Janesko, R. Gomperts, B. Mennucci, H. P. Hratchian, 
 J. V. Ortiz, A. F. Izmaylov, J. L. Sonnenberg, D. Williams-Young, 
 F. Ding, F. Lipparini, F. Egidi, J. Goings, B. Peng, A. Petrone, 
 T. Henderson, D. Ranasinghe, V. G. Zakrzewski, J. Gao, N. Rega, 
 G. Zheng, W. Liang, M. Hada, M. Ehara, K. Toyota, R. Fukuda, 
 J. Hasegawa, M. Ishida, T. Nakajima, Y. Honda, O. Kitao, H. Nakai, 
 T. Vreven, K. Throssell, J. A. Montgomery, Jr., J. E. Peralta, 
 F. Ogliaro, M. J. Bearpark, J. J. Heyd, E. N. Brothers, K. N. Kudin, 
 V. N. Staroverov, T. A. Keith, R. Kobayashi, J. Normand, 
 K. Raghavachari, A. P. Rendell, J. C. Burant, S. S. Iyengar, 
 J. Tomasi, M. Cossi, J. M. Millam, M. Klene, C. Adamo, R. Cammi, 
 J. W. Ochterski, R. L. Martin, K. Morokuma, O. Farkas, 
 J. B. Foresman, and D. J. Fox, Gaussian, Inc., Wallingford CT, 2019.
 
 ******************************************
 Gaussian 16:  EM64L-G16RevC.01  3-Jul-2019
                26-Oct-2024 
 ******************************************
 %nprocshared=40
 Will use up to   40 processors via shared memory.
 %mem=50gb
 ------------------------------------------------------
 # PBE1PBE/aug-cc-pVDZ opt freq EmpiricalDispersion=GD3
 ------------------------------------------------------
 1/18=20,19=15,26=3,38=1/1,3;
 2/9=110,12=2,17=6,18=5,40=1/2;
 3/5=16,7=10,11=2,25=1,30=1,71=1,74=-13,124=31/1,2,3;
 4//1;
 5/5=2,38=5/2;
 6/7=2,8=2,9=2,10=2,28=1/1;
 7//1,2,3,16;
 1/18=20,19=15,26=3/3(2);
 2/9=110/2;
 99//99;
 2/9=110/2;
 3/5=16,7=10,11=2,25=1,30=1,71=1,74=-13,124=31/1,2,3;
 4/5=5,16=3,69=1/1;
 5/5=2,38=5/2;
 7//1,2,3,16;
 1/18=20,19=15,26=3/3(-5);
 2/9=110/2;
 6/7=2,8=2,9=2,10=2,19=2,28=1/1;
 99/9=1/99;
 ----
 blah
 ----
 Symbolic Z-matrix:
 Charge =  0 Multiplicity = 2
 C                    -2.6312   -0.61061   0.21961 
 C                    -1.18107  -0.86809   0.64608 
 C                    -0.40422  -0.32632  -0.56314 
 O                    -0.97375  -2.22687   0.88019 
 H                    -0.91961  -0.24499   1.52178 
 O                    -1.12805   0.81442  -0.97371 
 H                    -0.3953   -1.09792  -1.35117 
 N                     0.97      0.03613  -0.28695 
 C                    -2.51293   0.62569  -0.68569 
 H                    -3.29384  -0.42076   1.0857 
 O                    -3.11188  -1.71955  -0.50322 
 C                    -3.08413   1.90491  -0.10227 
 H                    -3.05606   0.40484  -1.62062 
 O                    -2.53441   2.28575   1.14472 
 H                    -4.18232   1.78852  -0.03832 
 H                    -2.87062   2.73617  -0.78697 
 H                    -2.53132  -2.44705  -0.20948 
 H                    -0.02798  -2.38362   0.54527 
 H                    -2.5894    1.538     1.74804 
 C                     1.39106   1.33427  -0.18771 
 C                     2.69873   1.60736   0.0073 
 C                     3.66856   0.50831   0.07879 
 N                     3.18084  -0.77757   0.04341 
 C                     1.89078  -1.02603  -0.10059 
 H                     0.61548   2.09081  -0.28151 
 H                     3.05333   2.6333    0.08451 
 O                     4.88112   0.74571   0.17854 
 O                     1.38301  -2.18748  -0.08487 
 

 GradGradGradGradGradGradGradGradGradGradGradGradGradGradGradGradGradGrad
 Berny optimization.
 Initialization pass.
                           ----------------------------
                           !    Initial Parameters    !
                           ! (Angstroms and Degrees)  !
 --------------------------                            --------------------------
 ! Name  Definition              Value          Derivative Info.                !
 --------------------------------------------------------------------------------
 ! R1    R(1,2)                  1.5333         estimate D2E/DX2                !
 ! R2    R(1,9)                  1.5369         estimate D2E/DX2                !
 ! R3    R(1,10)                 1.1069         estimate D2E/DX2                !
 ! R4    R(1,11)                 1.4083         estimate D2E/DX2                !
 ! R5    R(2,3)                  1.536          estimate D2E/DX2                !
 ! R6    R(2,4)                  1.3943         estimate D2E/DX2                !
 ! R7    R(2,5)                  1.1061         estimate D2E/DX2                !
 ! R8    R(3,6)                  1.412          estimate D2E/DX2                !
 ! R9    R(3,7)                  1.1029         estimate D2E/DX2                !
 ! R10   R(3,8)                  1.4478         estimate D2E/DX2                !
 ! R11   R(4,18)                 1.0155         estimate D2E/DX2                !
 ! R12   R(6,9)                  1.427          estimate D2E/DX2                !
 ! R13   R(8,20)                 1.3683         estimate D2E/DX2                !
 ! R14   R(8,24)                 1.418          estimate D2E/DX2                !
 ! R15   R(9,12)                 1.5176         estimate D2E/DX2                !
 ! R16   R(9,13)                 1.1036         estimate D2E/DX2                !
 ! R17   R(11,17)                0.976          estimate D2E/DX2                !
 ! R18   R(12,14)                1.415          estimate D2E/DX2                !
 ! R19   R(12,15)                1.1062         estimate D2E/DX2                !
 ! R20   R(12,16)                1.0979         estimate D2E/DX2                !
 ! R21   R(14,19)                0.9624         estimate D2E/DX2                !
 ! R22   R(20,21)                1.35           estimate D2E/DX2                !
 ! R23   R(20,25)                1.0875         estimate D2E/DX2                !
 ! R24   R(21,22)                1.4675         estimate D2E/DX2                !
 ! R25   R(21,26)                1.0882         estimate D2E/DX2                !
 ! R26   R(22,23)                1.3757         estimate D2E/DX2                !
 ! R27   R(22,27)                1.2396         estimate D2E/DX2                !
 ! R28   R(23,24)                1.3216         estimate D2E/DX2                !
 ! R29   R(24,28)                1.2677         estimate D2E/DX2                !
 ! A1    A(2,1,9)              103.0699         estimate D2E/DX2                !
 ! A2    A(2,1,10)             112.1689         estimate D2E/DX2                !
 ! A3    A(2,1,11)             109.471          estimate D2E/DX2                !
 ! A4    A(9,1,10)             111.6538         estimate D2E/DX2                !
 ! A5    A(9,1,11)             110.9382         estimate D2E/DX2                !
 ! A6    A(10,1,11)            109.4102         estimate D2E/DX2                !
 ! A7    A(1,2,3)              101.5447         estimate D2E/DX2                !
 ! A8    A(1,2,4)              110.547          estimate D2E/DX2                !
 ! A9    A(1,2,5)              110.4357         estimate D2E/DX2                !
 ! A10   A(3,2,4)              113.6229         estimate D2E/DX2                !
 ! A11   A(3,2,5)              107.7594         estimate D2E/DX2                !
 ! A12   A(4,2,5)              112.3898         estimate D2E/DX2                !
 ! A13   A(2,3,6)              104.7499         estimate D2E/DX2                !
 ! A14   A(2,3,7)              108.6523         estimate D2E/DX2                !
 ! A15   A(2,3,8)              114.72           estimate D2E/DX2                !
 ! A16   A(6,3,7)              111.1974         estimate D2E/DX2                !
 ! A17   A(6,3,8)              109.864          estimate D2E/DX2                !
 ! A18   A(7,3,8)              107.6838         estimate D2E/DX2                !
 ! A19   A(2,4,18)             103.5057         estimate D2E/DX2                !
 ! A20   A(3,6,9)              109.3871         estimate D2E/DX2                !
 ! A21   A(3,8,20)             122.9171         estimate D2E/DX2                !
 ! A22   A(3,8,24)             116.9938         estimate D2E/DX2                !
 ! A23   A(20,8,24)            120.0846         estimate D2E/DX2                !
 ! A24   A(1,9,6)              107.4548         estimate D2E/DX2                !
 ! A25   A(1,9,12)             115.0025         estimate D2E/DX2                !
 ! A26   A(1,9,13)             107.4683         estimate D2E/DX2                !
 ! A27   A(6,9,12)             109.3528         estimate D2E/DX2                !
 ! A28   A(6,9,13)             109.4567         estimate D2E/DX2                !
 ! A29   A(12,9,13)            108.0072         estimate D2E/DX2                !
 ! A30   A(1,11,17)            103.2644         estimate D2E/DX2                !
 ! A31   A(9,12,14)            114.7991         estimate D2E/DX2                !
 ! A32   A(9,12,15)            107.8905         estimate D2E/DX2                !
 ! A33   A(9,12,16)            108.9817         estimate D2E/DX2                !
 ! A34   A(14,12,15)           111.2881         estimate D2E/DX2                !
 ! A35   A(14,12,16)           105.68           estimate D2E/DX2                !
 ! A36   A(15,12,16)           107.986          estimate D2E/DX2                !
 ! A37   A(12,14,19)           108.7327         estimate D2E/DX2                !
 ! A38   A(8,20,21)            120.0296         estimate D2E/DX2                !
 ! A39   A(8,20,25)            115.7384         estimate D2E/DX2                !
 ! A40   A(21,20,25)           124.231          estimate D2E/DX2                !
 ! A41   A(20,21,22)           119.7141         estimate D2E/DX2                !
 ! A42   A(20,21,26)           121.1026         estimate D2E/DX2                !
 ! A43   A(22,21,26)           119.1599         estimate D2E/DX2                !
 ! A44   A(21,22,23)           117.6755         estimate D2E/DX2                !
 ! A45   A(21,22,27)           120.4605         estimate D2E/DX2                !
 ! A46   A(23,22,27)           121.8614         estimate D2E/DX2                !
 ! A47   A(22,23,24)           121.6394         estimate D2E/DX2                !
 ! A48   A(8,24,23)            120.4866         estimate D2E/DX2                !
 ! A49   A(8,24,28)            115.3284         estimate D2E/DX2                !
 ! A50   A(23,24,28)           124.185          estimate D2E/DX2                !
 ! D1    D(9,1,2,3)            -29.378          estimate D2E/DX2                !
 ! D2    D(9,1,2,4)           -150.2644         estimate D2E/DX2                !
 ! D3    D(9,1,2,5)             84.7225         estimate D2E/DX2                !
 ! D4    D(10,1,2,3)          -149.6192         estimate D2E/DX2                !
 ! D5    D(10,1,2,4)            89.4943         estimate D2E/DX2                !
 ! D6    D(10,1,2,5)           -35.5188         estimate D2E/DX2                !
 ! D7    D(11,1,2,3)            88.7339         estimate D2E/DX2                !
 ! D8    D(11,1,2,4)           -32.1525         estimate D2E/DX2                !
 ! D9    D(11,1,2,5)          -157.1656         estimate D2E/DX2                !
 ! D10   D(2,1,9,6)             12.4786         estimate D2E/DX2                !
 ! D11   D(2,1,9,12)          -109.5226         estimate D2E/DX2                !
 ! D12   D(2,1,9,13)           130.189          estimate D2E/DX2                !
 ! D13   D(10,1,9,6)           133.0728         estimate D2E/DX2                !
 ! D14   D(10,1,9,12)           11.0716         estimate D2E/DX2                !
 ! D15   D(10,1,9,13)         -109.2168         estimate D2E/DX2                !
 ! D16   D(11,1,9,6)          -104.6002         estimate D2E/DX2                !
 ! D17   D(11,1,9,12)          133.3986         estimate D2E/DX2                !
 ! D18   D(11,1,9,13)           13.1102         estimate D2E/DX2                !
 ! D19   D(2,1,11,17)           22.4818         estimate D2E/DX2                !
 ! D20   D(9,1,11,17)          135.5666         estimate D2E/DX2                !
 ! D21   D(10,1,11,17)        -100.8112         estimate D2E/DX2                !
 ! D22   D(1,2,3,6)             37.4386         estimate D2E/DX2                !
 ! D23   D(1,2,3,7)            -81.4756         estimate D2E/DX2                !
 ! D24   D(1,2,3,8)            157.9706         estimate D2E/DX2                !
 ! D25   D(4,2,3,6)            156.1453         estimate D2E/DX2                !
 ! D26   D(4,2,3,7)             37.231          estimate D2E/DX2                !
 ! D27   D(4,2,3,8)            -83.3228         estimate D2E/DX2                !
 ! D28   D(5,2,3,6)            -78.641          estimate D2E/DX2                !
 ! D29   D(5,2,3,7)            162.4448         estimate D2E/DX2                !
 ! D30   D(5,2,3,8)             41.891          estimate D2E/DX2                !
 ! D31   D(1,2,4,18)           143.6202         estimate D2E/DX2                !
 ! D32   D(3,2,4,18)            30.2163         estimate D2E/DX2                !
 ! D33   D(5,2,4,18)           -92.4837         estimate D2E/DX2                !
 ! D34   D(2,3,6,9)            -31.1265         estimate D2E/DX2                !
 ! D35   D(7,3,6,9)             86.0561         estimate D2E/DX2                !
 ! D36   D(8,3,6,9)           -154.8309         estimate D2E/DX2                !
 ! D37   D(2,3,8,20)          -105.6668         estimate D2E/DX2                !
 ! D38   D(2,3,8,24)            73.5604         estimate D2E/DX2                !
 ! D39   D(6,3,8,20)            12.0008         estimate D2E/DX2                !
 ! D40   D(6,3,8,24)          -168.7719         estimate D2E/DX2                !
 ! D41   D(7,3,8,20)           133.2467         estimate D2E/DX2                !
 ! D42   D(7,3,8,24)           -47.526          estimate D2E/DX2                !
 ! D43   D(3,6,9,1)             11.6652         estimate D2E/DX2                !
 ! D44   D(3,6,9,12)           137.1179         estimate D2E/DX2                !
 ! D45   D(3,6,9,13)          -104.7456         estimate D2E/DX2                !
 ! D46   D(3,8,20,21)         -176.7801         estimate D2E/DX2                !
 ! D47   D(3,8,20,25)            2.8833         estimate D2E/DX2                !
 ! D48   D(24,8,20,21)           4.0157         estimate D2E/DX2                !
 ! D49   D(24,8,20,25)        -176.3209         estimate D2E/DX2                !
 ! D50   D(3,8,24,23)          174.3009         estimate D2E/DX2                !
 ! D51   D(3,8,24,28)           -5.7323         estimate D2E/DX2                !
 ! D52   D(20,8,24,23)          -6.4488         estimate D2E/DX2                !
 ! D53   D(20,8,24,28)         173.5181         estimate D2E/DX2                !
 ! D54   D(1,9,12,14)           56.8418         estimate D2E/DX2                !
 ! D55   D(1,9,12,15)          -67.8675         estimate D2E/DX2                !
 ! D56   D(1,9,12,16)          175.121          estimate D2E/DX2                !
 ! D57   D(6,9,12,14)          -64.1282         estimate D2E/DX2                !
 ! D58   D(6,9,12,15)          171.1625         estimate D2E/DX2                !
 ! D59   D(6,9,12,16)           54.151          estimate D2E/DX2                !
 ! D60   D(13,9,12,14)         176.8333         estimate D2E/DX2                !
 ! D61   D(13,9,12,15)          52.124          estimate D2E/DX2                !
 ! D62   D(13,9,12,16)         -64.8875         estimate D2E/DX2                !
 ! D63   D(9,12,14,19)         -52.1805         estimate D2E/DX2                !
 ! D64   D(15,12,14,19)         70.7226         estimate D2E/DX2                !
 ! D65   D(16,12,14,19)       -172.3035         estimate D2E/DX2                !
 ! D66   D(8,20,21,22)           1.5094         estimate D2E/DX2                !
 ! D67   D(8,20,21,26)         179.7362         estimate D2E/DX2                !
 ! D68   D(25,20,21,22)       -178.1239         estimate D2E/DX2                !
 ! D69   D(25,20,21,26)          0.103          estimate D2E/DX2                !
 ! D70   D(20,21,22,23)         -4.8381         estimate D2E/DX2                !
 ! D71   D(20,21,22,27)        175.7433         estimate D2E/DX2                !
 ! D72   D(26,21,22,23)        176.9004         estimate D2E/DX2                !
 ! D73   D(26,21,22,27)         -2.5182         estimate D2E/DX2                !
 ! D74   D(21,22,23,24)          2.5115         estimate D2E/DX2                !
 ! D75   D(27,22,23,24)       -178.0786         estimate D2E/DX2                !
 ! D76   D(22,23,24,8)           2.9709         estimate D2E/DX2                !
 ! D77   D(22,23,24,28)       -176.9929         estimate D2E/DX2                !
 --------------------------------------------------------------------------------
 Trust Radius=3.00D-01 FncErr=1.00D-07 GrdErr=1.00D-06 EigMax=2.50D+02 EigMin=1.00D-04
 Number of steps in this run=    166 maximum allowed number of steps=    168.
 GradGradGradGradGradGradGradGradGradGradGradGradGradGradGradGradGradGrad

                          Input orientation:                          
 ---------------------------------------------------------------------
 Center     Atomic      Atomic             Coordinates (Angstroms)
 Number     Number       Type             X           Y           Z
 ---------------------------------------------------------------------
      1          6           0       -2.631200   -0.610606    0.219609
      2          6           0       -1.181071   -0.868091    0.646079
      3          6           0       -0.404222   -0.326319   -0.563138
      4          8           0       -0.973749   -2.226866    0.880185
      5          1           0       -0.919611   -0.244986    1.521777
      6          8           0       -1.128050    0.814415   -0.973708
      7          1           0       -0.395301   -1.097916   -1.351168
      8          7           0        0.969995    0.036133   -0.286948
      9          6           0       -2.512928    0.625692   -0.685687
     10          1           0       -3.293841   -0.420756    1.085704
     11          8           0       -3.111878   -1.719546   -0.503219
     12          6           0       -3.084130    1.904911   -0.102273
     13          1           0       -3.056061    0.404843   -1.620618
     14          8           0       -2.534411    2.285750    1.144718
     15          1           0       -4.182316    1.788518   -0.038324
     16          1           0       -2.870617    2.736174   -0.786972
     17          1           0       -2.531321   -2.447052   -0.209475
     18          1           0       -0.027978   -2.383624    0.545267
     19          1           0       -2.589399    1.537996    1.748036
     20          6           0        1.391060    1.334271   -0.187706
     21          6           0        2.698729    1.607358    0.007298
     22          6           0        3.668563    0.508306    0.078791
     23          7           0        3.180836   -0.777573    0.043414
     24          6           0        1.890779   -1.026031   -0.100586
     25          1           0        0.615476    2.090812   -0.281514
     26          1           0        3.053328    2.633297    0.084513
     27          8           0        4.881124    0.745706    0.178543
     28          8           0        1.383006   -2.187479   -0.084872
 ---------------------------------------------------------------------
                    Distance matrix (angstroms):
                    1          2          3          4          5
     1  C    0.000000
     2  C    1.533313   0.000000
     3  C    2.377592   1.535974   0.000000
     4  O    2.407447   1.394295   2.453492   0.000000
     5  H    2.181480   1.106105   2.149212   2.083847   0.000000
     6  O    2.390429   2.336097   1.412009   3.565125   2.719048
     7  H    2.775618   2.158530   1.102920   2.566723   3.042401
     8  N    3.693708   2.513015   1.447800   3.203358   2.630803
     9  C    1.536874   2.403920   2.316891   3.599738   2.858258
    10  H    1.106913   2.203900   3.328287   2.947388   2.420335
    11  O    1.408290   2.402889   3.045665   2.596686   3.328809
    12  C    2.576156   3.445461   3.517484   4.742416   3.456116
    13  H    2.144313   3.205287   2.947051   4.185204   3.855041
    14  O    3.042051   3.467980   3.778542   4.782191   3.025620
    15  H    2.868499   4.066135   4.361417   5.221290   4.149012
    16  H    3.503065   4.230712   3.938536   5.568598   4.245475
    17  H    1.888550   2.246835   3.024423   1.913602   3.231708
    18  H    3.166451   1.906994   2.366986   1.015493   2.514429
    19  H    2.637106   2.997824   3.686759   4.187801   2.453245
    20  C    4.486316   3.487328   2.474176   4.406179   3.279571
    21  C    5.776901   4.646368   3.700380   5.380548   4.337881
    22  C    6.399907   5.072991   4.206691   5.447427   4.868367
    23  N    5.817103   4.404274   3.663902   4.478974   4.391227
    24  C    4.552296   3.165236   2.443477   3.257213   3.337722
    25  H    4.253197   3.583729   2.638488   4.745263   3.326305
    26  H    6.546374   5.523152   4.597111   6.361731   5.112190
    27  O    7.633890   6.290718   5.443731   6.603637   6.036081
    28  O    4.323550   2.974822   2.624279   2.546994   3.414183
                    6          7          8          9         10
     6  O    0.000000
     7  H    2.082404   0.000000
     8  N    2.340759   2.069460   0.000000
     9  C    1.427046   2.810344   3.554902   0.000000
    10  H    3.233802   3.846872   4.502579   2.200615   0.000000
    11  O    3.252367   2.912942   4.448693   2.427381   2.060253
    12  C    2.403087   4.219776   4.467926   1.517579   2.619923
    13  H    2.074480   3.067659   4.257200   1.103569   2.839425
    14  O    2.937755   4.717461   4.403556   2.471161   2.811653
    15  H    3.339515   4.939286   5.447841   2.134971   2.633195
    16  H    2.600878   4.598451   4.721286   2.142973   3.694894
    17  H    3.631857   2.772402   4.293183   3.109481   2.522856
    18  H    3.707411   2.320439   2.746590   4.092213   3.848478
    19  H    3.172854   4.622463   4.366467   2.600222   2.184406
    20  C    2.689603   3.234233   1.368323   3.998899   5.162363
    21  C    4.029314   4.328621   2.354538   5.348389   6.417718
    22  C    4.920259   4.597795   2.763871   6.229690   7.095921
    23  N    4.704834   3.851783   2.378881   5.909288   6.567734
    24  C    3.641828   2.606777   1.418015   4.739532   5.352936
    25  H    2.268966   3.511953   2.085047   3.478052   4.843554
    26  H    4.681035   5.279789   3.350152   5.967151   7.114505
    27  O    6.119034   5.794792   4.002138   7.445354   8.307444
    28  O    4.013328   2.439883   2.270653   4.842852   5.134633
                   11         12         13         14         15
    11  O    0.000000
    12  C    3.646672   0.000000
    13  H    2.400984   2.134564   0.000000
    14  O    4.369389   1.414997   3.384821   0.000000
    15  H    3.697090   1.106187   2.384672   2.088640   0.000000
    16  H    4.471260   1.097907   2.482833   2.011801   1.782997
    17  H    0.976011   4.388242   3.224900   4.922729   4.549190
    18  H    3.324269   5.305743   4.651440   5.333348   5.916576
    19  H    3.994085   1.950136   3.584639   0.962368   2.406497
    20  C    5.449936   4.512234   4.763818   4.253233   5.593852
    21  C    6.715063   5.791546   6.100308   5.398120   6.883581
    22  C    7.160757   6.897982   6.936805   6.540061   7.955436
    23  N    6.386264   6.816652   6.562469   6.577299   7.797917
    24  C    5.066523   5.774092   5.369276   5.665773   6.693881
    25  H    5.334899   3.708608   4.256275   3.463225   4.813453
    26  H    7.569837   6.183351   6.722954   5.698039   7.285828
    27  O    8.392279   8.054060   8.145678   7.635142   9.125811
    28  O    4.538497   6.058322   5.365069   6.071888   6.839849
                   16         17         18         19         20
    16  H    0.000000
    17  H    5.226323   0.000000
    18  H    6.005646   2.615413   0.000000
    19  H    2.817974   4.440251   4.835973   0.000000
    20  C    4.526184   5.448298   4.046438   4.430875   0.000000
    21  C    5.737831   6.621076   4.863361   5.567699   1.350038
    22  C    6.962314   6.874285   4.716490   6.558104   2.437265
    23  N    7.046704   5.956497   3.623223   6.446953   2.777877
    24  C    6.107062   4.646087   2.437583   5.483031   2.414194
    25  H    3.581176   5.522656   4.595452   3.833524   1.087513
    26  H    5.988589   7.555440   5.905611   5.983925   2.127136
    27  O    8.061245   8.080136   5.833222   7.674617   3.558243
    28  O    6.544357   3.924903   1.557698   5.746192   3.523260
                   21         22         23         24         25
    21  C    0.000000
    22  C    1.467516   0.000000
    23  N    2.433439   1.375723   0.000000
    24  C    2.756657   2.355182   1.321633   0.000000
    25  H    2.158028   3.457670   3.861901   3.372513   0.000000
    26  H    1.088234   2.212269   3.413500   3.844017   2.524161
    27  O    2.352577   1.239602   2.286836   3.486994   4.496300
    28  O    4.017513   3.538052   2.288337   1.267692   4.351039
                   26         27         28
    26  H    0.000000
    27  O    2.629198   0.000000
    28  O    5.104757   4.572723   0.000000
 Stoichiometry    C9H11N2O6(2)
 Framework group  C1[X(C9H11N2O6)]
 Deg. of freedom    78
 Full point group                 C1      NOp   1
 Largest Abelian subgroup         C1      NOp   1
 Largest concise Abelian subgroup C1      NOp   1
                         Standard orientation:                         
 ---------------------------------------------------------------------
 Center     Atomic      Atomic             Coordinates (Angstroms)
 Number     Number       Type             X           Y           Z
 ---------------------------------------------------------------------
      1          6           0        2.631200    0.610606    0.219609
      2          6           0        1.181071    0.868091    0.646079
      3          6           0        0.404222    0.326319   -0.563138
      4          8           0        0.973749    2.226866    0.880185
      5          1           0        0.919611    0.244986    1.521777
      6          8           0        1.128050   -0.814415   -0.973708
      7          1           0        0.395301    1.097916   -1.351168
      8          7           0       -0.969995   -0.036133   -0.286948
      9          6           0        2.512928   -0.625692   -0.685687
     10          1           0        3.293841    0.420756    1.085704
     11          8           0        3.111878    1.719546   -0.503219
     12          6           0        3.084130   -1.904911   -0.102273
     13          1           0        3.056061   -0.404843   -1.620618
     14          8           0        2.534411   -2.285750    1.144718
     15          1           0        4.182316   -1.788518   -0.038324
     16          1           0        2.870617   -2.736174   -0.786972
     17          1           0        2.531321    2.447052   -0.209475
     18          1           0        0.027978    2.383624    0.545267
     19          1           0        2.589399   -1.537996    1.748036
     20          6           0       -1.391060   -1.334271   -0.187706
     21          6           0       -2.698729   -1.607358    0.007298
     22          6           0       -3.668563   -0.508306    0.078791
     23          7           0       -3.180836    0.777573    0.043414
     24          6           0       -1.890779    1.026031   -0.100586
     25          1           0       -0.615476   -2.090812   -0.281514
     26          1           0       -3.053328   -2.633297    0.084513
     27          8           0       -4.881124   -0.745706    0.178543
     28          8           0       -1.383006    2.187479   -0.084872
 ---------------------------------------------------------------------
 Rotational constants (GHZ):           0.8929475           0.3123632           0.2502738
 Standard basis: Aug-CC-pVDZ (5D, 7F)
 There are   524 symmetry adapted cartesian basis functions of A   symmetry.
 There are   490 symmetry adapted basis functions of A   symmetry.
   490 basis functions,   852 primitive gaussians,   524 cartesian basis functions
    64 alpha electrons       63 beta electrons
       nuclear repulsion energy      1307.4347219817 Hartrees.
 NAtoms=   28 NActive=   28 NUniq=   28 SFac= 1.00D+00 NAtFMM=   60 NAOKFM=F Big=F
 Integral buffers will be    131072 words long.
 Raffenetti 2 integral format.
 Two-electron integral symmetry is turned on.
 Nuclear repulsion after empirical dispersion term =     1307.4154658302 Hartrees.
 One-electron integrals computed using PRISM.
 NBasis=   490 RedAO= T EigKep=  3.34D-06  NBF=   490
 NBsUse=   490 1.00D-06 EigRej= -1.00D+00 NBFU=   490
 ExpMin= 2.97D-02 ExpMax= 1.17D+04 ExpMxC= 4.01D+02 IAcc=3 IRadAn=         5 AccDes= 0.00D+00
 Harris functional with IExCor= 1009 and IRadAn=       5 diagonalized for initial guess.
 HarFok:  IExCor= 1009 AccDes= 0.00D+00 IRadAn=         5 IDoV= 1 UseB2=F ITyADJ=14
 ICtDFT=  3500011 ScaDFX=  1.000000  1.000000  1.000000  1.000000
 FoFCou: FMM=F IPFlag=           0 FMFlag=      100000 FMFlg1=           0
         NFxFlg=           0 DoJE=T BraDBF=F KetDBF=T FulRan=T
         wScrn=  0.000000 ICntrl=       500 IOpCl=  0 I1Cent=   200000004 NGrid=           0
         NMat0=    1 NMatS0=      1 NMatT0=    0 NMatD0=    1 NMtDS0=    0 NMtDT0=    0
 Petite list used in FoFCou.
 Initial guess <Sx>= 0.0000 <Sy>= 0.0000 <Sz>= 0.5000 <S**2>= 0.7500 S= 0.5000
 Requested convergence on RMS density matrix=1.00D-08 within 128 cycles.
 Requested convergence on MAX density matrix=1.00D-06.
 Requested convergence on             energy=1.00D-06.
 No special actions if energy rises.
 Restarting incremental Fock formation.
 SCF Done:  E(UPBE1PBE) =  -909.513912588     A.U. after   31 cycles
            NFock= 31  Conv=0.96D-08     -V/T= 2.0055
 <Sx>= 0.0000 <Sy>= 0.0000 <Sz>= 0.5000 <S**2>= 0.7884 S= 0.5190
 <L.S>= 0.000000000000E+00
 Annihilation of the first spin contaminant:
 S**2 before annihilation     0.7884,   after     0.7509

 **********************************************************************

            Population analysis using the SCF Density.

 **********************************************************************

 Orbital symmetries:
 Alpha Orbitals:
       Occupied  (A) (A) (A) (A) (A) (A) (A) (A) (A) (A) (A) (A)
                 (A) (A) (A) (A) (A) (A) (A) (A) (A) (A) (A) (A)
                 (A) (A) (A) (A) (A) (A) (A) (A) (A) (A) (A) (A)
                 (A) (A) (A) (A) (A) (A) (A) (A) (A) (A) (A) (A)
                 (A) (A) (A) (A) (A) (A) (A) (A) (A) (A) (A) (A)
                 (A) (A) (A) (A)
       Virtual   (A) (A) (A) (A) (A) (A) (A) (A) (A) (A) (A) (A)
                 (A) (A) (A) (A) (A) (A) (A) (A) (A) (A) (A) (A)
                 (A) (A) (A) (A) (A) (A) (A) (A) (A) (A) (A) (A)
                 (A) (A) (A) (A) (A) (A) (A) (A) (A) (A) (A) (A)
                 (A) (A) (A) (A) (A) (A) (A) (A) (A) (A) (A) (A)
                 (A) (A) (A) (A) (A) (A) (A) (A) (A) (A) (A) (A)
                 (A) (A) (A) (A) (A) (A) (A) (A) (A) (A) (A) (A)
                 (A) (A) (A) (A) (A) (A) (A) (A) (A) (A) (A) (A)
                 (A) (A) (A) (A) (A) (A) (A) (A) (A) (A) (A) (A)
                 (A) (A) (A) (A) (A) (A) (A) (A) (A) (A) (A) (A)
                 (A) (A) (A) (A) (A) (A) (A) (A) (A) (A) (A) (A)
                 (A) (A) (A) (A) (A) (A) (A) (A) (A) (A) (A) (A)
                 (A) (A) (A) (A) (A) (A) (A) (A) (A) (A) (A) (A)
                 (A) (A) (A) (A) (A) (A) (A) (A) (A) (A) (A) (A)
                 (A) (A) (A) (A) (A) (A) (A) (A) (A) (A) (A) (A)
                 (A) (A) (A) (A) (A) (A) (A) (A) (A) (A) (A) (A)
                 (A) (A) (A) (A) (A) (A) (A) (A) (A) (A) (A) (A)
                 (A) (A) (A) (A) (A) (A) (A) (A) (A) (A) (A) (A)
                 (A) (A) (A) (A) (A) (A) (A) (A) (A) (A) (A) (A)
                 (A) (A) (A) (A) (A) (A) (A) (A) (A) (A) (A) (A)
                 (A) (A) (A) (A) (A) (A) (A) (A) (A) (A) (A) (A)
                 (A) (A) (A) (A) (A) (A) (A) (A) (A) (A) (A) (A)
                 (A) (A) (A) (A) (A) (A) (A) (A) (A) (A) (A) (A)
                 (A) (A) (A) (A) (A) (A) (A) (A) (A) (A) (A) (A)
                 (A) (A) (A) (A) (A) (A) (A) (A) (A) (A) (A) (A)
                 (A) (A) (A) (A) (A) (A) (A) (A) (A) (A) (A) (A)
                 (A) (A) (A) (A) (A) (A) (A) (A) (A) (A) (A) (A)
                 (A) (A) (A) (A) (A) (A) (A) (A) (A) (A) (A) (A)
                 (A) (A) (A) (A) (A) (A) (A) (A) (A) (A) (A) (A)
                 (A) (A) (A) (A) (A) (A) (A) (A) (A) (A) (A) (A)
                 (A) (A) (A) (A) (A) (A) (A) (A) (A) (A) (A) (A)
                 (A) (A) (A) (A) (A) (A) (A) (A) (A) (A) (A) (A)
                 (A) (A) (A) (A) (A) (A) (A) (A) (A) (A) (A) (A)
                 (A) (A) (A) (A) (A) (A) (A) (A) (A) (A) (A) (A)
                 (A) (A) (A) (A) (A) (A) (A) (A) (A) (A) (A) (A)
                 (A) (A) (A) (A) (A) (A)
 Beta  Orbitals:
       Occupied  (A) (A) (A) (A) (A) (A) (A) (A) (A) (A) (A) (A)
                 (A) (A) (A) (A) (A) (A) (A) (A) (A) (A) (A) (A)
                 (A) (A) (A) (A) (A) (A) (A) (A) (A) (A) (A) (A)
                 (A) (A) (A) (A) (A) (A) (A) (A) (A) (A) (A) (A)
                 (A) (A) (A) (A) (A) (A) (A) (A) (A) (A) (A) (A)
                 (A) (A) (A)
       Virtual   (A) (A) (A) (A) (A) (A) (A) (A) (A) (A) (A) (A)
                 (A) (A) (A) (A) (A) (A) (A) (A) (A) (A) (A) (A)
                 (A) (A) (A) (A) (A) (A) (A) (A) (A) (A) (A) (A)
                 (A) (A) (A) (A) (A) (A) (A) (A) (A) (A) (A) (A)
                 (A) (A) (A) (A) (A) (A) (A) (A) (A) (A) (A) (A)
                 (A) (A) (A) (A) (A) (A) (A) (A) (A) (A) (A) (A)
                 (A) (A) (A) (A) (A) (A) (A) (A) (A) (A) (A) (A)
                 (A) (A) (A) (A) (A) (A) (A) (A) (A) (A) (A) (A)
                 (A) (A) (A) (A) (A) (A) (A) (A) (A) (A) (A) (A)
                 (A) (A) (A) (A) (A) (A) (A) (A) (A) (A) (A) (A)
                 (A) (A) (A) (A) (A) (A) (A) (A) (A) (A) (A) (A)
                 (A) (A) (A) (A) (A) (A) (A) (A) (A) (A) (A) (A)
                 (A) (A) (A) (A) (A) (A) (A) (A) (A) (A) (A) (A)
                 (A) (A) (A) (A) (A) (A) (A) (A) (A) (A) (A) (A)
                 (A) (A) (A) (A) (A) (A) (A) (A) (A) (A) (A) (A)
                 (A) (A) (A) (A) (A) (A) (A) (A) (A) (A) (A) (A)
                 (A) (A) (A) (A) (A) (A) (A) (A) (A) (A) (A) (A)
                 (A) (A) (A) (A) (A) (A) (A) (A) (A) (A) (A) (A)
                 (A) (A) (A) (A) (A) (A) (A) (A) (A) (A) (A) (A)
                 (A) (A) (A) (A) (A) (A) (A) (A) (A) (A) (A) (A)
                 (A) (A) (A) (A) (A) (A) (A) (A) (A) (A) (A) (A)
                 (A) (A) (A) (A) (A) (A) (A) (A) (A) (A) (A) (A)
                 (A) (A) (A) (A) (A) (A) (A) (A) (A) (A) (A) (A)
                 (A) (A) (A) (A) (A) (A) (A) (A) (A) (A) (A) (A)
                 (A) (A) (A) (A) (A) (A) (A) (A) (A) (A) (A) (A)
                 (A) (A) (A) (A) (A) (A) (A) (A) (A) (A) (A) (A)
                 (A) (A) (A) (A) (A) (A) (A) (A) (A) (A) (A) (A)
                 (A) (A) (A) (A) (A) (A) (A) (A) (A) (A) (A) (A)
                 (A) (A) (A) (A) (A) (A) (A) (A) (A) (A) (A) (A)
                 (A) (A) (A) (A) (A) (A) (A) (A) (A) (A) (A) (A)
                 (A) (A) (A) (A) (A) (A) (A) (A) (A) (A) (A) (A)
                 (A) (A) (A) (A) (A) (A) (A) (A) (A) (A) (A) (A)
                 (A) (A) (A) (A) (A) (A) (A) (A) (A) (A) (A) (A)
                 (A) (A) (A) (A) (A) (A) (A) (A) (A) (A) (A) (A)
                 (A) (A) (A) (A) (A) (A) (A) (A) (A) (A) (A) (A)
                 (A) (A) (A) (A) (A) (A) (A)
 The electronic state is 2-A.
 Alpha  occ. eigenvalues --  -19.28873 -19.26838 -19.25759 -19.24447 -19.24439
 Alpha  occ. eigenvalues --  -19.22366 -14.54392 -14.42214 -10.39637 -10.37687
 Alpha  occ. eigenvalues --  -10.37240 -10.35176 -10.32945 -10.32059 -10.31996
 Alpha  occ. eigenvalues --  -10.31399 -10.30875  -1.15803  -1.12909  -1.11459
 Alpha  occ. eigenvalues --   -1.09833  -1.08713  -1.06408  -1.04300  -0.96632
 Alpha  occ. eigenvalues --   -0.87733  -0.83426  -0.81814  -0.74804  -0.73185
 Alpha  occ. eigenvalues --   -0.69267  -0.66685  -0.64518  -0.62165  -0.60864
 Alpha  occ. eigenvalues --   -0.59093  -0.56967  -0.55754  -0.54195  -0.52717
 Alpha  occ. eigenvalues --   -0.52442  -0.51434  -0.50236  -0.49493  -0.48994
 Alpha  occ. eigenvalues --   -0.47827  -0.47041  -0.46842  -0.44565  -0.44280
 Alpha  occ. eigenvalues --   -0.42775  -0.41542  -0.39619  -0.39151  -0.36414
 Alpha  occ. eigenvalues --   -0.34934  -0.34194  -0.32967  -0.32560  -0.31832
 Alpha  occ. eigenvalues --   -0.31665  -0.31236  -0.30651  -0.29809
 Alpha virt. eigenvalues --   -0.07760  -0.03051  -0.02183  -0.00982  -0.00282
 Alpha virt. eigenvalues --    0.00348   0.01340   0.02083   0.02256   0.03140
 Alpha virt. eigenvalues --    0.03522   0.04053   0.05302   0.05583   0.05904
 Alpha virt. eigenvalues --    0.06143   0.06555   0.07058   0.07397   0.07606
 Alpha virt. eigenvalues --    0.07862   0.08309   0.08436   0.08854   0.09174
 Alpha virt. eigenvalues --    0.09367   0.09620   0.09715   0.10328   0.10695
 Alpha virt. eigenvalues --    0.10911   0.11365   0.11589   0.11917   0.12104
 Alpha virt. eigenvalues --    0.12627   0.13037   0.13212   0.13894   0.14402
 Alpha virt. eigenvalues --    0.14680   0.14800   0.14915   0.15904   0.16268
 Alpha virt. eigenvalues --    0.16482   0.16820   0.17540   0.18189   0.18376
 Alpha virt. eigenvalues --    0.18590   0.18903   0.19585   0.19612   0.19903
 Alpha virt. eigenvalues --    0.20427   0.20796   0.20997   0.21892   0.21980
 Alpha virt. eigenvalues --    0.22466   0.22984   0.23175   0.23381   0.23582
 Alpha virt. eigenvalues --    0.24260   0.24406   0.24792   0.24981   0.25329
 Alpha virt. eigenvalues --    0.25452   0.25850   0.26165   0.26217   0.26478
 Alpha virt. eigenvalues --    0.26774   0.27126   0.27711   0.28067   0.28701
 Alpha virt. eigenvalues --    0.28965   0.29449   0.29963   0.30120   0.30353
 Alpha virt. eigenvalues --    0.30428   0.31280   0.31778   0.31908   0.32341
 Alpha virt. eigenvalues --    0.32854   0.33193   0.33542   0.33858   0.34241
 Alpha virt. eigenvalues --    0.34641   0.35049   0.35764   0.35787   0.36415
 Alpha virt. eigenvalues --    0.36782   0.37315   0.37669   0.38374   0.39120
 Alpha virt. eigenvalues --    0.39532   0.39920   0.40380   0.40710   0.41037
 Alpha virt. eigenvalues --    0.41951   0.42252   0.42937   0.43501   0.43678
 Alpha virt. eigenvalues --    0.44542   0.45088   0.45273   0.45721   0.46491
 Alpha virt. eigenvalues --    0.47006   0.47499   0.48068   0.48703   0.49088
 Alpha virt. eigenvalues --    0.50061   0.50569   0.51107   0.51681   0.52515
 Alpha virt. eigenvalues --    0.52693   0.53265   0.54222   0.54614   0.55143
 Alpha virt. eigenvalues --    0.55455   0.55950   0.56390   0.56951   0.57544
 Alpha virt. eigenvalues --    0.58308   0.58497   0.59085   0.59175   0.60006
 Alpha virt. eigenvalues --    0.60764   0.61335   0.61836   0.62254   0.62430
 Alpha virt. eigenvalues --    0.63250   0.63623   0.63944   0.64984   0.65002
 Alpha virt. eigenvalues --    0.65881   0.66494   0.67231   0.67451   0.67601
 Alpha virt. eigenvalues --    0.68398   0.68683   0.69224   0.69563   0.70472
 Alpha virt. eigenvalues --    0.70590   0.71232   0.72263   0.72405   0.72550
 Alpha virt. eigenvalues --    0.72971   0.73346   0.74241   0.75181   0.75626
 Alpha virt. eigenvalues --    0.76998   0.77569   0.78068   0.78634   0.78837
 Alpha virt. eigenvalues --    0.79275   0.79995   0.80235   0.81260   0.81835
 Alpha virt. eigenvalues --    0.82088   0.83641   0.84264   0.85221   0.85638
 Alpha virt. eigenvalues --    0.86216   0.86591   0.87515   0.88719   0.88874
 Alpha virt. eigenvalues --    0.90028   0.91177   0.91972   0.92844   0.93411
 Alpha virt. eigenvalues --    0.94496   0.94896   0.95785   0.96755   0.97268
 Alpha virt. eigenvalues --    0.98467   0.99416   1.00178   1.01102   1.02006
 Alpha virt. eigenvalues --    1.03405   1.03624   1.04970   1.05707   1.06396
 Alpha virt. eigenvalues --    1.07247   1.08302   1.09363   1.10479   1.10801
 Alpha virt. eigenvalues --    1.12623   1.13330   1.14217   1.14490   1.15463
 Alpha virt. eigenvalues --    1.16954   1.17101   1.17423   1.18197   1.19121
 Alpha virt. eigenvalues --    1.19303   1.20534   1.21648   1.22007   1.23873
 Alpha virt. eigenvalues --    1.24453   1.25321   1.28218   1.28703   1.29119
 Alpha virt. eigenvalues --    1.29846   1.31152   1.31596   1.32878   1.33532
 Alpha virt. eigenvalues --    1.34632   1.35045   1.36282   1.37209   1.38408
 Alpha virt. eigenvalues --    1.39119   1.40973   1.41808   1.42670   1.43380
 Alpha virt. eigenvalues --    1.44504   1.45808   1.46411   1.47288   1.48328
 Alpha virt. eigenvalues --    1.49077   1.49622   1.50565   1.51397   1.52081
 Alpha virt. eigenvalues --    1.52396   1.53972   1.54228   1.54908   1.56083
 Alpha virt. eigenvalues --    1.56656   1.58086   1.58984   1.60592   1.61392
 Alpha virt. eigenvalues --    1.61713   1.62561   1.63345   1.64721   1.66309
 Alpha virt. eigenvalues --    1.66702   1.67994   1.68112   1.69468   1.70080
 Alpha virt. eigenvalues --    1.70369   1.71208   1.72744   1.74103   1.75066
 Alpha virt. eigenvalues --    1.75811   1.76079   1.76661   1.77276   1.79219
 Alpha virt. eigenvalues --    1.80098   1.81834   1.82351   1.83225   1.84576
 Alpha virt. eigenvalues --    1.85072   1.85984   1.87223   1.88730   1.89170
 Alpha virt. eigenvalues --    1.90064   1.90892   1.92841   1.93363   1.94461
 Alpha virt. eigenvalues --    1.95947   1.97097   1.98407   1.99714   2.00290
 Alpha virt. eigenvalues --    2.01772   2.02108   2.03521   2.05208   2.06373
 Alpha virt. eigenvalues --    2.06599   2.08006   2.09090   2.09990   2.11403
 Alpha virt. eigenvalues --    2.13137   2.13630   2.14397   2.15209   2.15990
 Alpha virt. eigenvalues --    2.19105   2.20331   2.20965   2.22313   2.22640
 Alpha virt. eigenvalues --    2.24566   2.25801   2.26907   2.29314   2.31735
 Alpha virt. eigenvalues --    2.32581   2.34277   2.34926   2.36242   2.37216
 Alpha virt. eigenvalues --    2.38078   2.39562   2.40945   2.41500   2.42132
 Alpha virt. eigenvalues --    2.43703   2.44987   2.46886   2.47973   2.48996
 Alpha virt. eigenvalues --    2.50779   2.52833   2.53349   2.55188   2.56098
 Alpha virt. eigenvalues --    2.58518   2.60504   2.61275   2.63458   2.64486
 Alpha virt. eigenvalues --    2.65624   2.67500   2.70358   2.72393   2.72728
 Alpha virt. eigenvalues --    2.73783   2.75733   2.76409   2.79903   2.81479
 Alpha virt. eigenvalues --    2.83201   2.86875   2.89189   2.90938   2.93072
 Alpha virt. eigenvalues --    2.96285   2.99714   3.02408   3.09568   3.14623
 Alpha virt. eigenvalues --    3.18070   3.21089   3.24570   3.27514   3.29018
 Alpha virt. eigenvalues --    3.33417   3.35576   3.37317   3.38032   3.40045
 Alpha virt. eigenvalues --    3.43295   3.43536   3.45811   3.46311   3.49158
 Alpha virt. eigenvalues --    3.50200   3.52084   3.52905   3.55196   3.57445
 Alpha virt. eigenvalues --    3.58527   3.58892   3.59268   3.60938   3.61193
 Alpha virt. eigenvalues --    3.63126   3.65139   3.67622   3.73270   3.75088
 Alpha virt. eigenvalues --    3.75488   3.78459   3.81453   3.85723   3.89662
 Alpha virt. eigenvalues --    3.95784   4.00186   4.07652   4.17951   4.44221
 Alpha virt. eigenvalues --    4.63074
  Beta  occ. eigenvalues --  -19.28842 -19.25759 -19.25649 -19.24432 -19.24404
  Beta  occ. eigenvalues --  -19.22396 -14.53715 -14.41909 -10.39740 -10.37695
  Beta  occ. eigenvalues --  -10.37501 -10.35359 -10.32869 -10.32059 -10.31988
  Beta  occ. eigenvalues --  -10.30874 -10.30845  -1.15526  -1.12061  -1.09994
  Beta  occ. eigenvalues --   -1.09607  -1.08707  -1.06314  -1.03760  -0.95695
  Beta  occ. eigenvalues --   -0.86985  -0.83359  -0.81327  -0.74516  -0.72897
  Beta  occ. eigenvalues --   -0.69051  -0.66391  -0.64366  -0.61876  -0.60565
  Beta  occ. eigenvalues --   -0.58638  -0.56895  -0.55658  -0.53832  -0.52439
  Beta  occ. eigenvalues --   -0.51467  -0.51076  -0.49721  -0.49096  -0.48605
  Beta  occ. eigenvalues --   -0.47747  -0.46494  -0.45189  -0.44364  -0.43022
  Beta  occ. eigenvalues --   -0.42195  -0.40866  -0.39264  -0.38964  -0.36086
  Beta  occ. eigenvalues --   -0.33854  -0.33135  -0.32356  -0.31782  -0.31448
  Beta  occ. eigenvalues --   -0.30905  -0.30320  -0.28314
  Beta virt. eigenvalues --   -0.21701  -0.06007  -0.02280  -0.02126  -0.00946
  Beta virt. eigenvalues --   -0.00243   0.00389   0.01370   0.02139   0.02287
  Beta virt. eigenvalues --    0.03160   0.03547   0.04103   0.05409   0.05642
  Beta virt. eigenvalues --    0.05932   0.06195   0.06634   0.07100   0.07438
  Beta virt. eigenvalues --    0.07638   0.08001   0.08390   0.08727   0.08912
  Beta virt. eigenvalues --    0.09329   0.09476   0.09705   0.09771   0.10500
  Beta virt. eigenvalues --    0.10746   0.11003   0.11434   0.11823   0.12047
  Beta virt. eigenvalues --    0.12151   0.12725   0.13086   0.13300   0.13980
  Beta virt. eigenvalues --    0.14498   0.14695   0.14876   0.14965   0.15966
  Beta virt. eigenvalues --    0.16388   0.16544   0.16843   0.17605   0.18269
  Beta virt. eigenvalues --    0.18452   0.18698   0.18992   0.19660   0.19703
  Beta virt. eigenvalues --    0.20022   0.20520   0.20918   0.21027   0.22008
  Beta virt. eigenvalues --    0.22091   0.22573   0.23033   0.23254   0.23454
  Beta virt. eigenvalues --    0.23632   0.24458   0.24507   0.24833   0.25076
  Beta virt. eigenvalues --    0.25434   0.25528   0.25908   0.26244   0.26298
  Beta virt. eigenvalues --    0.26592   0.26817   0.27191   0.27876   0.28254
  Beta virt. eigenvalues --    0.28857   0.29019   0.29499   0.30031   0.30232
  Beta virt. eigenvalues --    0.30409   0.30502   0.31438   0.31830   0.31964
  Beta virt. eigenvalues --    0.32442   0.32911   0.33322   0.33612   0.33978
  Beta virt. eigenvalues --    0.34347   0.34745   0.35156   0.35855   0.35926
  Beta virt. eigenvalues --    0.36555   0.36859   0.37380   0.37768   0.38429
  Beta virt. eigenvalues --    0.39218   0.39573   0.39987   0.40523   0.40779
  Beta virt. eigenvalues --    0.41194   0.42072   0.42301   0.43046   0.43601
  Beta virt. eigenvalues --    0.43798   0.44665   0.45150   0.45359   0.45817
  Beta virt. eigenvalues --    0.46640   0.47098   0.47592   0.48169   0.48905
  Beta virt. eigenvalues --    0.49137   0.50127   0.50672   0.51305   0.51796
  Beta virt. eigenvalues --    0.52627   0.52760   0.53343   0.54326   0.54690
  Beta virt. eigenvalues --    0.55232   0.55574   0.56064   0.56595   0.57021
  Beta virt. eigenvalues --    0.57650   0.58368   0.58583   0.59149   0.59316
  Beta virt. eigenvalues --    0.60079   0.60875   0.61358   0.61952   0.62409
  Beta virt. eigenvalues --    0.62578   0.63393   0.63681   0.64089   0.65009
  Beta virt. eigenvalues --    0.65181   0.66101   0.66580   0.67341   0.67653
  Beta virt. eigenvalues --    0.67781   0.68561   0.68808   0.69295   0.69632
  Beta virt. eigenvalues --    0.70655   0.70782   0.71344   0.72494   0.72585
  Beta virt. eigenvalues --    0.72647   0.73093   0.73698   0.74367   0.75289
  Beta virt. eigenvalues --    0.75706   0.77109   0.77671   0.78201   0.78729
  Beta virt. eigenvalues --    0.78927   0.79357   0.80095   0.80433   0.81348
  Beta virt. eigenvalues --    0.81949   0.82208   0.83719   0.84367   0.85325
  Beta virt. eigenvalues --    0.85753   0.86312   0.86817   0.87613   0.88871
  Beta virt. eigenvalues --    0.88996   0.90271   0.91370   0.92183   0.92999
  Beta virt. eigenvalues --    0.93851   0.94611   0.94992   0.95892   0.96876
  Beta virt. eigenvalues --    0.97436   0.98572   0.99552   1.00274   1.01456
  Beta virt. eigenvalues --    1.02392   1.03671   1.03934   1.05134   1.06036
  Beta virt. eigenvalues --    1.06598   1.07442   1.08436   1.09593   1.10575
  Beta virt. eigenvalues --    1.10894   1.12760   1.13533   1.14451   1.14615
  Beta virt. eigenvalues --    1.15634   1.17112   1.17207   1.17520   1.18285
  Beta virt. eigenvalues --    1.19350   1.19618   1.20626   1.21785   1.22108
  Beta virt. eigenvalues --    1.23947   1.24606   1.25482   1.28276   1.28863
  Beta virt. eigenvalues --    1.29270   1.29919   1.31216   1.31803   1.33029
  Beta virt. eigenvalues --    1.33792   1.34748   1.35364   1.36370   1.37537
  Beta virt. eigenvalues --    1.38710   1.39495   1.41221   1.42082   1.42854
  Beta virt. eigenvalues --    1.43520   1.44700   1.45949   1.46693   1.47434
  Beta virt. eigenvalues --    1.48721   1.49457   1.49895   1.50739   1.51782
  Beta virt. eigenvalues --    1.52397   1.52766   1.54071   1.54384   1.55131
  Beta virt. eigenvalues --    1.56411   1.56762   1.58226   1.59088   1.60807
  Beta virt. eigenvalues --    1.61726   1.61867   1.62622   1.63506   1.64778
  Beta virt. eigenvalues --    1.66414   1.67049   1.68124   1.68232   1.69708
  Beta virt. eigenvalues --    1.70202   1.70609   1.71272   1.73266   1.74179
  Beta virt. eigenvalues --    1.75242   1.76078   1.76215   1.76811   1.77453
  Beta virt. eigenvalues --    1.79312   1.80225   1.82074   1.82486   1.83510
  Beta virt. eigenvalues --    1.84745   1.85141   1.86080   1.87304   1.88833
  Beta virt. eigenvalues --    1.89273   1.90175   1.91007   1.92907   1.93529
  Beta virt. eigenvalues --    1.94624   1.96145   1.97290   1.98504   1.99834
  Beta virt. eigenvalues --    2.00389   2.01899   2.02303   2.03697   2.05398
  Beta virt. eigenvalues --    2.06567   2.06756   2.08134   2.09277   2.10133
  Beta virt. eigenvalues --    2.11523   2.13318   2.13763   2.14481   2.15474
  Beta virt. eigenvalues --    2.16158   2.19310   2.20520   2.21066   2.22460
  Beta virt. eigenvalues --    2.22780   2.24882   2.25885   2.27043   2.29460
  Beta virt. eigenvalues --    2.31825   2.32667   2.34451   2.35089   2.36407
  Beta virt. eigenvalues --    2.37348   2.38265   2.39715   2.41130   2.41755
  Beta virt. eigenvalues --    2.42308   2.44031   2.45429   2.47068   2.48310
  Beta virt. eigenvalues --    2.49270   2.51018   2.53150   2.53651   2.55615
  Beta virt. eigenvalues --    2.56435   2.58858   2.60748   2.61381   2.63829
  Beta virt. eigenvalues --    2.64700   2.66076   2.67761   2.70799   2.72757
  Beta virt. eigenvalues --    2.72952   2.73909   2.75928   2.76687   2.80024
  Beta virt. eigenvalues --    2.81574   2.83413   2.87058   2.89631   2.91183
  Beta virt. eigenvalues --    2.93265   2.96427   3.00021   3.02586   3.09699
  Beta virt. eigenvalues --    3.14889   3.18197   3.21254   3.24784   3.27641
  Beta virt. eigenvalues --    3.29657   3.35510   3.36739   3.39944   3.40136
  Beta virt. eigenvalues --    3.40627   3.43374   3.43592   3.45836   3.46332
  Beta virt. eigenvalues --    3.49239   3.50281   3.52209   3.52982   3.55599
  Beta virt. eigenvalues --    3.57805   3.58551   3.58984   3.59471   3.61108
  Beta virt. eigenvalues --    3.61484   3.63187   3.65302   3.68042   3.73430
  Beta virt. eigenvalues --    3.75250   3.75640   3.78671   3.81919   3.85836
  Beta virt. eigenvalues --    3.89702   3.96122   4.00259   4.07693   4.17979
  Beta virt. eigenvalues --    4.44280   4.63104
          Condensed to atoms (all electrons):
               1          2          3          4          5          6
     1  C    8.836304  -1.552028   0.027752   0.024233   0.279852  -0.070567
     2  C   -1.552028   7.965555  -1.345773  -0.358914  -0.638037  -0.056073
     3  C    0.027752  -1.345773  11.250570   0.271582  -0.104679  -0.207934
     4  O    0.024233  -0.358914   0.271582   8.736015  -0.202383   0.010343
     5  H    0.279852  -0.638037  -0.104679  -0.202383   2.335036   0.011070
     6  O   -0.070567  -0.056073  -0.207934   0.010343   0.011070   9.631763
     7  H   -0.133474   0.144336  -0.347567  -0.017776   0.160424  -0.211661
     8  N    0.121567   0.434318  -1.268174  -0.050344  -0.185430  -0.067880
     9  C   -1.361656   0.496816  -2.621829   0.032978  -0.137297  -0.124426
    10  H   -0.918951   0.505419   0.189392   0.011372  -0.145659   0.023478
    11  O   -0.541966   0.083166  -0.064634  -0.015790  -0.031064   0.032597
    12  C   -0.165533  -0.160105   0.233289   0.000990  -0.006874  -0.024094
    13  H    0.253929   0.119031   0.430005  -0.002379  -0.004300  -0.237631
    14  O   -0.030026  -0.008557  -0.043340  -0.001614   0.020046  -0.005042
    15  H    0.060019  -0.039977   0.038941   0.000061   0.006623   0.108589
    16  H    0.003689  -0.001350  -0.010003  -0.000195  -0.003582  -0.087908
    17  H    0.117548  -0.186676   0.021761   0.058603   0.038226   0.009263
    18  H    0.030444  -0.068102  -0.023074   0.316112   0.001410   0.000291
    19  H   -0.024921  -0.025359   0.010580   0.001229   0.007274  -0.016384
    20  C    0.001580  -0.078677  -1.309277  -0.015223   0.096073   0.267364
    21  C   -0.020350   0.057692  -0.197305   0.004470  -0.028770  -0.026833
    22  C    0.005125  -0.017248  -0.046535  -0.003452   0.004844   0.001236
    23  N    0.019479   0.022675  -0.062144  -0.002580  -0.003185   0.002034
    24  C   -0.071151  -0.040912   0.189926  -0.003670   0.068755  -0.016733
    25  H    0.087579  -0.124786   0.052852   0.000460   0.002679  -0.186237
    26  H   -0.000923  -0.002991   0.053381   0.000299  -0.002235   0.000869
    27  O   -0.000341   0.000918  -0.010193   0.000010   0.000163   0.000578
    28  O    0.030278  -0.022027   0.199511  -0.051832  -0.005341  -0.010130
               7          8          9         10         11         12
     1  C   -0.133474   0.121567  -1.361656  -0.918951  -0.541966  -0.165533
     2  C    0.144336   0.434318   0.496816   0.505419   0.083166  -0.160105
     3  C   -0.347567  -1.268174  -2.621829   0.189392  -0.064634   0.233289
     4  O   -0.017776  -0.050344   0.032978   0.011372  -0.015790   0.000990
     5  H    0.160424  -0.185430  -0.137297  -0.145659  -0.031064  -0.006874
     6  O   -0.211661  -0.067880  -0.124426   0.023478   0.032597  -0.024094
     7  H    2.307704  -0.466149  -0.015614   0.010202   0.021086  -0.003025
     8  N   -0.466149   8.455033   0.357495  -0.024575  -0.004969  -0.029052
     9  C   -0.015614   0.357495   8.961338  -0.160685   0.335057  -0.138030
    10  H    0.010202  -0.024575  -0.160685   2.056427  -0.093829  -0.044667
    11  O    0.021086  -0.004969   0.335057  -0.093829   8.762997   0.009227
    12  C   -0.003025  -0.029052  -0.138030  -0.044667   0.009227   5.025291
    13  H    0.001544  -0.032770  -0.693174   0.066969  -0.069422  -0.154317
    14  O    0.001975   0.009402   0.139370  -0.019426  -0.000579   0.050484
    15  H   -0.002140   0.002817  -0.072940  -0.034600   0.010609   0.178511
    16  H    0.003134  -0.006009   0.089327   0.029567  -0.002374   0.123281
    17  H    0.007787  -0.002769  -0.082005  -0.018109   0.270655   0.002359
    18  H    0.013174  -0.024961   0.026904   0.000610  -0.003157   0.001293
    19  H   -0.001131  -0.005619   0.070227   0.021949   0.001248  -0.051504
    20  C   -0.077897   0.548855   0.285946  -0.028294   0.005678  -0.054591
    21  C   -0.023218  -0.388021   0.063804   0.000725   0.001056   0.007839
    22  C   -0.005167  -0.010981   0.009431  -0.000220  -0.000134  -0.004416
    23  N   -0.006895   0.053685   0.002355   0.000094   0.000204   0.000315
    24  C    0.104667  -0.420532  -0.191954   0.008164  -0.001465  -0.004735
    25  H    0.020884  -0.003845  -0.052577  -0.003825  -0.002102   0.036012
    26  H   -0.000356   0.060466   0.001961   0.000264   0.000110  -0.001056
    27  O   -0.000306  -0.016536  -0.000212  -0.000030   0.000002   0.000051
    28  O    0.041153  -0.173020  -0.003477   0.000095  -0.001564   0.001423
              13         14         15         16         17         18
     1  C    0.253929  -0.030026   0.060019   0.003689   0.117548   0.030444
     2  C    0.119031  -0.008557  -0.039977  -0.001350  -0.186676  -0.068102
     3  C    0.430005  -0.043340   0.038941  -0.010003   0.021761  -0.023074
     4  O   -0.002379  -0.001614   0.000061  -0.000195   0.058603   0.316112
     5  H   -0.004300   0.020046   0.006623  -0.003582   0.038226   0.001410
     6  O   -0.237631  -0.005042   0.108589  -0.087908   0.009263   0.000291
     7  H    0.001544   0.001975  -0.002140   0.003134   0.007787   0.013174
     8  N   -0.032770   0.009402   0.002817  -0.006009  -0.002769  -0.024961
     9  C   -0.693174   0.139370  -0.072940   0.089327  -0.082005   0.026904
    10  H    0.066969  -0.019426  -0.034600   0.029567  -0.018109   0.000610
    11  O   -0.069422  -0.000579   0.010609  -0.002374   0.270655  -0.003157
    12  C   -0.154317   0.050484   0.178511   0.123281   0.002359   0.001293
    13  H    1.902694   0.006590  -0.101420  -0.021095  -0.008290   0.000817
    14  O    0.006590   8.330437  -0.019086  -0.167485   0.000392  -0.000846
    15  H   -0.101420  -0.019086   1.470195  -0.367733   0.003419  -0.001032
    16  H   -0.021095  -0.167485  -0.367733   1.638544  -0.001435   0.000639
    17  H   -0.008290   0.000392   0.003419  -0.001435   0.564074  -0.003740
    18  H    0.000817  -0.000846  -0.001032   0.000639  -0.003740   0.425535
    19  H    0.006515   0.274467  -0.060968   0.027605  -0.000916   0.000193
    20  C   -0.043665  -0.013992  -0.001216   0.010753   0.009040  -0.029313
    21  C   -0.002505  -0.003989  -0.000215   0.004805  -0.002245   0.021898
    22  C    0.000522  -0.000470  -0.000053  -0.000065   0.000728  -0.010903
    23  N   -0.000293   0.000170   0.000180  -0.000504   0.000707  -0.001049
    24  C    0.007914  -0.001204  -0.001789   0.003068   0.004944  -0.007759
    25  H   -0.004356   0.002333   0.002972   0.001233   0.000392   0.000495
    26  H    0.000076  -0.000435  -0.000303   0.000689  -0.000090  -0.000254
    27  O   -0.000016   0.000007   0.000005  -0.000015   0.000003   0.000449
    28  O   -0.000562   0.000078   0.000121   0.000013  -0.000726   0.020124
              19         20         21         22         23         24
     1  C   -0.024921   0.001580  -0.020350   0.005125   0.019479  -0.071151
     2  C   -0.025359  -0.078677   0.057692  -0.017248   0.022675  -0.040912
     3  C    0.010580  -1.309277  -0.197305  -0.046535  -0.062144   0.189926
     4  O    0.001229  -0.015223   0.004470  -0.003452  -0.002580  -0.003670
     5  H    0.007274   0.096073  -0.028770   0.004844  -0.003185   0.068755
     6  O   -0.016384   0.267364  -0.026833   0.001236   0.002034  -0.016733
     7  H   -0.001131  -0.077897  -0.023218  -0.005167  -0.006895   0.104667
     8  N   -0.005619   0.548855  -0.388021  -0.010981   0.053685  -0.420532
     9  C    0.070227   0.285946   0.063804   0.009431   0.002355  -0.191954
    10  H    0.021949  -0.028294   0.000725  -0.000220   0.000094   0.008164
    11  O    0.001248   0.005678   0.001056  -0.000134   0.000204  -0.001465
    12  C   -0.051504  -0.054591   0.007839  -0.004416   0.000315  -0.004735
    13  H    0.006515  -0.043665  -0.002505   0.000522  -0.000293   0.007914
    14  O    0.274467  -0.013992  -0.003989  -0.000470   0.000170  -0.001204
    15  H   -0.060968  -0.001216  -0.000215  -0.000053   0.000180  -0.001789
    16  H    0.027605   0.010753   0.004805  -0.000065  -0.000504   0.003068
    17  H   -0.000916   0.009040  -0.002245   0.000728   0.000707   0.004944
    18  H    0.000193  -0.029313   0.021898  -0.010903  -0.001049  -0.007759
    19  H    0.596626   0.002059   0.002099   0.000199  -0.000095  -0.000997
    20  C    0.002059   8.730467  -2.097466   0.213270  -0.037654  -0.947167
    21  C    0.002099  -2.097466   9.078129  -1.576977   0.252754   0.683941
    22  C    0.000199   0.213270  -1.576977   7.772604  -0.105591  -0.772209
    23  N   -0.000095  -0.037654   0.252754  -0.105591   7.790538  -0.167402
    24  C   -0.000997  -0.947167   0.683941  -0.772209  -0.167402   6.920220
    25  H    0.000676  -0.657082   0.037330  -0.136649   0.039847   0.047695
    26  H    0.000030   0.458685  -0.642241   0.018114  -0.073802  -0.110445
    27  O   -0.000006   0.063730  -0.155044   0.130020  -0.092843   0.054655
    28  O    0.000288  -0.080820   0.021752   0.012076  -0.163204   0.125199
              25         26         27         28
     1  C    0.087579  -0.000923  -0.000341   0.030278
     2  C   -0.124786  -0.002991   0.000918  -0.022027
     3  C    0.052852   0.053381  -0.010193   0.199511
     4  O    0.000460   0.000299   0.000010  -0.051832
     5  H    0.002679  -0.002235   0.000163  -0.005341
     6  O   -0.186237   0.000869   0.000578  -0.010130
     7  H    0.020884  -0.000356  -0.000306   0.041153
     8  N   -0.003845   0.060466  -0.016536  -0.173020
     9  C   -0.052577   0.001961  -0.000212  -0.003477
    10  H   -0.003825   0.000264  -0.000030   0.000095
    11  O   -0.002102   0.000110   0.000002  -0.001564
    12  C    0.036012  -0.001056   0.000051   0.001423
    13  H   -0.004356   0.000076  -0.000016  -0.000562
    14  O    0.002333  -0.000435   0.000007   0.000078
    15  H    0.002972  -0.000303   0.000005   0.000121
    16  H    0.001233   0.000689  -0.000015   0.000013
    17  H    0.000392  -0.000090   0.000003  -0.000726
    18  H    0.000495  -0.000254   0.000449   0.020124
    19  H    0.000676   0.000030  -0.000006   0.000288
    20  C   -0.657082   0.458685   0.063730  -0.080820
    21  C    0.037330  -0.642241  -0.155044   0.021752
    22  C   -0.136649   0.018114   0.130020   0.012076
    23  N    0.039847  -0.073802  -0.092843  -0.163204
    24  C    0.047695  -0.110445   0.054655   0.125199
    25  H    2.712337  -0.172571   0.001108   0.000515
    26  H   -0.172571   1.936343  -0.020458   0.001944
    27  O    0.001108  -0.020458   8.629394  -0.004051
    28  O    0.000515   0.001944  -0.004051   8.854996
          Atomic-Atomic Spin Densities.
               1          2          3          4          5          6
     1  C    0.010171   0.018737  -0.024958  -0.005239   0.006230   0.007000
     2  C    0.018737   0.049227  -0.021916  -0.006816   0.008432   0.002892
     3  C   -0.024958  -0.021916   0.037565   0.011437  -0.030994  -0.007960
     4  O   -0.005239  -0.006816   0.011437   0.014613  -0.003775  -0.001090
     5  H    0.006230   0.008432  -0.030994  -0.003775   0.009899   0.003794
     6  O    0.007000   0.002892  -0.007960  -0.001090   0.003794   0.018100
     7  H    0.002096   0.008600  -0.027628  -0.000365   0.002505  -0.001530
     8  N   -0.001381  -0.000931  -0.076977  -0.001324   0.011425   0.005902
     9  C    0.003410  -0.009734   0.014521   0.000817  -0.000630  -0.003951
    10  H   -0.009346  -0.010166   0.009855   0.002528  -0.003677  -0.002477
    11  O   -0.001462  -0.000838   0.000980   0.000372  -0.000651  -0.000490
    12  C   -0.000798   0.001868  -0.002303  -0.000060  -0.000483   0.000095
    13  H   -0.000506   0.000479   0.000434  -0.000018   0.000066  -0.000100
    14  O    0.000241  -0.000408   0.000965  -0.000015   0.000263  -0.000108
    15  H    0.000157   0.001179  -0.001556  -0.000065   0.000180   0.000700
    16  H   -0.000126  -0.000620   0.000924   0.000010  -0.000180  -0.000771
    17  H   -0.000964  -0.000730   0.001352   0.000280  -0.000239  -0.000188
    18  H    0.002023   0.001607  -0.008591  -0.000236   0.002856   0.000456
    19  H   -0.000409  -0.000508   0.001379   0.000119  -0.000421  -0.000430
    20  C    0.000036  -0.001136   0.026495   0.000128  -0.003101  -0.003357
    21  C    0.000894   0.003234   0.015709  -0.000088   0.000042   0.001068
    22  C    0.000476   0.001241  -0.001816   0.000060   0.001404   0.000076
    23  N   -0.000173  -0.000039   0.006939  -0.000003  -0.000588   0.000119
    24  C    0.002231   0.000621   0.005003  -0.001663   0.002804  -0.002141
    25  H   -0.000571  -0.001719   0.011584   0.000191  -0.000750  -0.004548
    26  H   -0.000093   0.000273  -0.004904  -0.000008   0.000139   0.000357
    27  O    0.000009  -0.000035  -0.000745  -0.000007   0.000043   0.000016
    28  O   -0.000928  -0.001489   0.006939   0.001049  -0.002074  -0.000473
               7          8          9         10         11         12
     1  C    0.002096  -0.001381   0.003410  -0.009346  -0.001462  -0.000798
     2  C    0.008600  -0.000931  -0.009734  -0.010166  -0.000838   0.001868
     3  C   -0.027628  -0.076977   0.014521   0.009855   0.000980  -0.002303
     4  O   -0.000365  -0.001324   0.000817   0.002528   0.000372  -0.000060
     5  H    0.002505   0.011425  -0.000630  -0.003677  -0.000651  -0.000483
     6  O   -0.001530   0.005902  -0.003951  -0.002477  -0.000490   0.000095
     7  H    0.044874  -0.005751  -0.000619   0.000142  -0.001310   0.000398
     8  N   -0.005751   0.440008  -0.002125   0.000043   0.001061   0.000203
     9  C   -0.000619  -0.002125  -0.010218   0.003809   0.000462   0.005523
    10  H    0.000142   0.000043   0.003809   0.013014   0.000028  -0.000581
    11  O   -0.001310   0.001061   0.000462   0.000028   0.006460  -0.000051
    12  C    0.000398   0.000203   0.005523  -0.000581  -0.000051  -0.005068
    13  H    0.000013  -0.000032  -0.000836   0.000001   0.000043   0.000555
    14  O    0.000029  -0.000160  -0.001584   0.000191   0.000015   0.001011
    15  H   -0.000078   0.000068   0.000546  -0.000619   0.000002  -0.000602
    16  H    0.000149  -0.000150   0.000657   0.000054  -0.000006  -0.000287
    17  H   -0.000116   0.000013   0.000303   0.000269   0.000075  -0.000164
    18  H    0.002516   0.000417  -0.000571  -0.000320  -0.000232   0.000068
    19  H   -0.000008  -0.000324   0.000511   0.000246   0.000007  -0.000317
    20  C   -0.000237  -0.030357  -0.001734   0.000157   0.000114   0.000951
    21  C    0.000605   0.001127   0.000807   0.000157   0.000014  -0.000517
    22  C   -0.000471   0.006022  -0.000360  -0.000055  -0.000046   0.000093
    23  N    0.000932  -0.010213   0.000205   0.000003  -0.000004  -0.000079
    24  C    0.006769  -0.007693  -0.000672  -0.000617  -0.000291   0.000960
    25  H   -0.000096   0.003832  -0.002316   0.000418   0.000105   0.000806
    26  H   -0.000200  -0.009602   0.000184  -0.000028  -0.000003  -0.000028
    27  O    0.000180   0.001404  -0.000006   0.000003   0.000000   0.000004
    28  O   -0.003883  -0.001122   0.000484   0.000127   0.000166  -0.000078
              13         14         15         16         17         18
     1  C   -0.000506   0.000241   0.000157  -0.000126  -0.000964   0.002023
     2  C    0.000479  -0.000408   0.001179  -0.000620  -0.000730   0.001607
     3  C    0.000434   0.000965  -0.001556   0.000924   0.001352  -0.008591
     4  O   -0.000018  -0.000015  -0.000065   0.000010   0.000280  -0.000236
     5  H    0.000066   0.000263   0.000180  -0.000180  -0.000239   0.002856
     6  O   -0.000100  -0.000108   0.000700  -0.000771  -0.000188   0.000456
     7  H    0.000013   0.000029  -0.000078   0.000149  -0.000116   0.002516
     8  N   -0.000032  -0.000160   0.000068  -0.000150   0.000013   0.000417
     9  C   -0.000836  -0.001584   0.000546   0.000657   0.000303  -0.000571
    10  H    0.000001   0.000191  -0.000619   0.000054   0.000269  -0.000320
    11  O    0.000043   0.000015   0.000002  -0.000006   0.000075  -0.000232
    12  C    0.000555   0.001011  -0.000602  -0.000287  -0.000164   0.000068
    13  H    0.000848  -0.000084   0.000034   0.000065   0.000006  -0.000007
    14  O   -0.000084  -0.000405   0.000100   0.000141   0.000007   0.000009
    15  H    0.000034   0.000100   0.000092  -0.000182  -0.000010   0.000019
    16  H    0.000065   0.000141  -0.000182   0.000032  -0.000007  -0.000011
    17  H    0.000006   0.000007  -0.000010  -0.000007  -0.000000  -0.000186
    18  H   -0.000007   0.000009   0.000019  -0.000011  -0.000186   0.004347
    19  H    0.000009   0.000108  -0.000133   0.000058   0.000002  -0.000040
    20  C   -0.000118  -0.000462   0.000093   0.000007  -0.000027  -0.000922
    21  C    0.000112   0.000122  -0.000009  -0.000127  -0.000028  -0.000241
    22  C   -0.000009   0.000003   0.000013  -0.000001  -0.000006   0.001070
    23  N   -0.000004  -0.000005  -0.000005   0.000009  -0.000030  -0.000175
    24  C   -0.000036  -0.000025   0.000068  -0.000038  -0.000009   0.001243
    25  H   -0.000095  -0.000001  -0.000053   0.000276  -0.000004  -0.000140
    26  H   -0.000000  -0.000005   0.000007   0.000005  -0.000001   0.000055
    27  O   -0.000001   0.000001   0.000000   0.000001  -0.000001   0.000008
    28  O    0.000018   0.000004  -0.000011   0.000001   0.000105  -0.005096
              19         20         21         22         23         24
     1  C   -0.000409   0.000036   0.000894   0.000476  -0.000173   0.002231
     2  C   -0.000508  -0.001136   0.003234   0.001241  -0.000039   0.000621
     3  C    0.001379   0.026495   0.015709  -0.001816   0.006939   0.005003
     4  O    0.000119   0.000128  -0.000088   0.000060  -0.000003  -0.001663
     5  H   -0.000421  -0.003101   0.000042   0.001404  -0.000588   0.002804
     6  O   -0.000430  -0.003357   0.001068   0.000076   0.000119  -0.002141
     7  H   -0.000008  -0.000237   0.000605  -0.000471   0.000932   0.006769
     8  N   -0.000324  -0.030357   0.001127   0.006022  -0.010213  -0.007693
     9  C    0.000511  -0.001734   0.000807  -0.000360   0.000205  -0.000672
    10  H    0.000246   0.000157   0.000157  -0.000055   0.000003  -0.000617
    11  O    0.000007   0.000114   0.000014  -0.000046  -0.000004  -0.000291
    12  C   -0.000317   0.000951  -0.000517   0.000093  -0.000079   0.000960
    13  H    0.000009  -0.000118   0.000112  -0.000009  -0.000004  -0.000036
    14  O    0.000108  -0.000462   0.000122   0.000003  -0.000005  -0.000025
    15  H   -0.000133   0.000093  -0.000009   0.000013  -0.000005   0.000068
    16  H    0.000058   0.000007  -0.000127  -0.000001   0.000009  -0.000038
    17  H    0.000002  -0.000027  -0.000028  -0.000006  -0.000030  -0.000009
    18  H   -0.000040  -0.000922  -0.000241   0.001070  -0.000175   0.001243
    19  H    0.000012   0.000078  -0.000194  -0.000026  -0.000001  -0.000013
    20  C    0.000078  -0.253250   0.089047   0.005274   0.009206   0.018627
    21  C   -0.000194   0.089047   0.267439   0.106557  -0.004128  -0.029470
    22  C   -0.000026   0.005274   0.106557  -0.359744   0.009265   0.031066
    23  N   -0.000001   0.009206  -0.004128   0.009265   0.168518  -0.005963
    24  C   -0.000013   0.018627  -0.029470   0.031066  -0.005963  -0.105852
    25  H    0.000141   0.000939  -0.013120  -0.006688  -0.000843   0.004800
    26  H    0.000006  -0.048649   0.080793   0.016441   0.001938   0.003228
    27  O   -0.000003  -0.003910  -0.024100  -0.019893  -0.007677  -0.000564
    28  O    0.000033   0.000743   0.000963  -0.000236   0.000471   0.013698
              25         26         27         28
     1  C   -0.000571  -0.000093   0.000009  -0.000928
     2  C   -0.001719   0.000273  -0.000035  -0.001489
     3  C    0.011584  -0.004904  -0.000745   0.006939
     4  O    0.000191  -0.000008  -0.000007   0.001049
     5  H   -0.000750   0.000139   0.000043  -0.002074
     6  O   -0.004548   0.000357   0.000016  -0.000473
     7  H   -0.000096  -0.000200   0.000180  -0.003883
     8  N    0.003832  -0.009602   0.001404  -0.001122
     9  C   -0.002316   0.000184  -0.000006   0.000484
    10  H    0.000418  -0.000028   0.000003   0.000127
    11  O    0.000105  -0.000003   0.000000   0.000166
    12  C    0.000806  -0.000028   0.000004  -0.000078
    13  H   -0.000095  -0.000000  -0.000001   0.000018
    14  O   -0.000001  -0.000005   0.000001   0.000004
    15  H   -0.000053   0.000007   0.000000  -0.000011
    16  H    0.000276   0.000005   0.000001   0.000001
    17  H   -0.000004  -0.000001  -0.000001   0.000105
    18  H   -0.000140   0.000055   0.000008  -0.005096
    19  H    0.000141   0.000006  -0.000003   0.000033
    20  C    0.000939  -0.048649  -0.003910   0.000743
    21  C   -0.013120   0.080793  -0.024100   0.000963
    22  C   -0.006688   0.016441  -0.019893  -0.000236
    23  N   -0.000843   0.001938  -0.007677   0.000471
    24  C    0.004800   0.003228  -0.000564   0.013698
    25  H    0.021209  -0.003935  -0.000199   0.000158
    26  H   -0.003935  -0.049307  -0.001589  -0.000116
    27  O   -0.000199  -0.001589   0.505896  -0.000351
    28  O    0.000158  -0.000116  -0.000351  -0.017474
 Mulliken charges and spin densities:
               1          2
     1  C    0.992508   0.006755
     2  C    0.897665   0.041304
     3  C    0.692920  -0.058265
     4  O   -0.742608   0.010832
     5  H   -0.533640   0.002520
     6  O   -0.749945   0.010960
     7  H   -0.525693   0.027516
     8  N    0.137998   0.323383
     9  C    0.782866  -0.003115
    10  H   -0.431858   0.003158
    11  O   -0.700641   0.004519
    12  C    1.171634   0.001116
    13  H   -0.420414   0.000836
    14  O   -0.519659  -0.000053
    15  H   -0.179590  -0.000066
    16  H   -0.266596  -0.000116
    17  H    0.197100  -0.000299
    18  H    0.313805  -0.000075
    19  H    0.164636  -0.000117
    20  C    0.778838  -0.195366
    21  C    0.926885   0.496668
    22  C    0.522900  -0.210292
    23  N   -0.467796   0.167674
    24  C    0.540974  -0.063926
    25  H   -0.703370   0.009381
    26  H   -0.505072  -0.015044
    27  O   -0.581040   0.448483
    28  O   -0.792812  -0.008371
 Sum of Mulliken charges =  -0.00000   1.00000
 Mulliken charges and spin densities with hydrogens summed into heavy atoms:
               1          2
     1  C    0.560651   0.009913
     2  C    0.364026   0.043824
     3  C    0.167228  -0.030749
     4  O   -0.428803   0.010757
     6  O   -0.749945   0.010960
     8  N    0.137998   0.323383
     9  C    0.362452  -0.002279
    11  O   -0.503541   0.004220
    12  C    0.725448   0.000934
    14  O   -0.355023  -0.000170
    20  C    0.075468  -0.185985
    21  C    0.421814   0.481624
    22  C    0.522900  -0.210292
    23  N   -0.467796   0.167674
    24  C    0.540974  -0.063926
    27  O   -0.581040   0.448483
    28  O   -0.792812  -0.008371
 Electronic spatial extent (au):  <R**2>=           4207.6328
 Charge=             -0.0000 electrons
 Dipole moment (field-independent basis, Debye):
    X=              4.1403    Y=             -4.7905    Z=             -0.4330  Tot=              6.3466
 Quadrupole moment (field-independent basis, Debye-Ang):
   XX=           -120.6512   YY=           -107.1539   ZZ=            -96.3542
   XY=              5.8265   XZ=              2.2112   YZ=              1.4336
 Traceless Quadrupole moment (field-independent basis, Debye-Ang):
   XX=            -12.5982   YY=              0.8992   ZZ=             11.6989
   XY=              5.8265   XZ=              2.2112   YZ=              1.4336
 Octapole moment (field-independent basis, Debye-Ang**2):
  XXX=            149.3671  YYY=            -12.3946  ZZZ=              5.6256  XYY=             -6.7460
  XXY=            -34.1917  XXZ=              0.4758  XZZ=              4.7192  YZZ=              1.4273
  YYZ=            -15.5604  XYZ=              9.6697
 Hexadecapole moment (field-independent basis, Debye-Ang**3):
 XXXX=          -4494.8047 YYYY=          -1261.0139 ZZZZ=           -283.2713 XXXY=            -80.9742
 XXXZ=             61.0668 YYYX=            100.5613 YYYZ=             23.2976 ZZZX=             12.1826
 ZZZY=            -13.9410 XXYY=           -898.2835 XXZZ=           -659.3343 YYZZ=           -280.3931
 XXYZ=             36.7918 YYXZ=            -35.3451 ZZXY=             -4.6717
 N-N= 1.307415465830D+03 E-N=-4.743412022368D+03  KE= 9.045733725389D+02
                          Isotropic Fermi Contact Couplings
        Atom                 a.u.       MegaHertz       Gauss      10(-4) cm-1
     1  C(13)             -0.00010      -0.11022      -0.03933      -0.03676
     2  C(13)              0.01091      12.26365       4.37598       4.09071
     3  C(13)             -0.01311     -14.73483      -5.25775      -4.91501
     4  O(17)              0.00213      -1.28835      -0.45972      -0.42975
     5  H(1)              -0.00028      -1.25517      -0.44788      -0.41868
     6  O(17)              0.00156      -0.94865      -0.33850      -0.31644
     7  H(1)               0.01173      52.41486      18.70293      17.48372
     8  N(14)              0.07082      22.88303       8.16524       7.63296
     9  C(13)              0.00002       0.02549       0.00910       0.00850
    10  H(1)               0.00149       6.66559       2.37845       2.22340
    11  O(17)              0.00125      -0.75528      -0.26950      -0.25193
    12  C(13)             -0.00002      -0.01740      -0.00621      -0.00580
    13  H(1)               0.00027       1.21820       0.43469       0.40635
    14  O(17)             -0.00004       0.02420       0.00863       0.00807
    15  H(1)               0.00001       0.03607       0.01287       0.01203
    16  H(1)              -0.00002      -0.08018      -0.02861      -0.02674
    17  H(1)               0.00002       0.09375       0.03345       0.03127
    18  H(1)               0.00021       0.93572       0.33389       0.31212
    19  H(1)               0.00000       0.01145       0.00409       0.00382
    20  C(13)             -0.02812     -31.60899     -11.27887     -10.54362
[...]
 0002462,-0.00022969,-0.00017210,0.00005958,-0.00010737,0.00004276,-0.0
 0003869,-0.05821416,0.00269482,-0.06619088,0.10082780,0.02523069,0.128
 51327,0.00066626,0.00024536,0.00367390,0.00016670,0.00576306,-0.008690
 08,-0.00128950,-0.01031525,0.01086644,0.00101367,-0.00735204,0.0013310
 1,0.00009826,0.00018967,-0.00016519,-0.00055088,0.00110687,-0.00039914
 ,0.00033885,-0.00097037,-0.00078359,0.05533591,-0.03070622,0.01077596,
 0.00179090,-0.00070589,0.00012206,-0.00112403,0.00032777,-0.00036753,-
 0.00128331,-0.00109268,-0.00060430,-0.00006882,-0.00037038,-0.00005498
 ,-0.00020607,0.00008848,-0.00005865,-0.00035680,0.00067960,0.00042909,
 -0.00014150,0.00009609,0.00009024,0.00013638,0.00003788,-0.00000893,0.
 00074380,0.00041767,0.00015793,-0.00433126,0.00151496,-0.00078426,0.00
 003322,-0.00037160,-0.00039392,0.00960303,0.02542821,-0.00750337,-0.09
 383432,0.04309157,-0.00109242,0.50902141,-0.00003602,0.00025701,0.0018
 7605,-0.00040810,0.00568917,-0.00508445,-0.00592999,-0.00744576,0.0032
 0697,0.00516072,-0.00488604,0.00094913,-0.00017875,0.00004445,0.000131
 59,0.00164287,-0.00162345,0.00027372,-0.00171188,0.00148775,-0.0010728
 6,0.01635127,-0.01769075,0.00376445,0.00042260,0.00015815,0.00064932,-
 0.00038537,0.00011781,-0.00028057,0.00006757,-0.00098002,-0.00016826,0
 .00008574,0.00011915,0.00012084,0.00008336,-0.00008647,-0.00002353,-0.
 00019737,-0.00034023,0.00007255,-0.00003860,0.00002315,-0.00001422,0.0
 0004771,-0.00005623,0.00003097,-0.00049330,0.00023981,-0.00028029,-0.0
 0859640,-0.00055751,0.00096709,-0.00013574,0.00014128,-0.00001128,0.00
 498846,0.02855118,-0.00316561,0.08050642,-0.18679494,0.01574760,0.0833
 2060,0.63156264,0.00028055,-0.00018124,0.00036126,0.00026598,0.0007156
 7,-0.00085140,0.00206972,-0.00117253,-0.00072757,-0.00053541,-0.000375
 99,-0.00002971,0.00008911,0.00000422,-0.00004689,0.00023926,0.00095374
 ,-0.00087527,-0.00063463,-0.00064964,-0.00025241,0.00500920,-0.0025967
 8,-0.00033716,0.00012761,-0.00024362,-0.00020893,-0.00009170,0.0000849
 4,-0.00008357,-0.00030632,-0.00012401,-0.00013792,0.00022130,0.0000059
 1,0.00016756,-0.00003303,0.00002945,-0.00001531,-0.00027862,0.00023786
 ,-0.00006011,-0.00003342,-0.00004779,0.00000115,0.00000622,0.00000962,
 -0.00001249,0.00015397,0.00008764,0.00003903,0.00060887,0.00032293,0.0
 0011621,0.00003863,-0.00007464,-0.00001664,-0.00472928,-0.00020575,0.0
 2165263,-0.00947925,0.00791623,-0.08687451,0.06586478,0.00655471,0.178
 89339,-0.00007939,0.00000108,-0.00202881,0.00071561,-0.00608015,0.0047
 9242,0.00566739,0.01184450,-0.00542448,-0.00581894,0.00582458,-0.00011
 462,0.00006204,0.00007489,0.00014818,-0.00444249,0.00154236,-0.0002130
 9,0.00070933,-0.00004779,0.00115241,-0.08021680,0.04200432,-0.01958793
 ,-0.00007178,0.00000321,-0.00132023,0.00044533,-0.00018564,0.00030525,
 0.00000403,0.00084723,0.00014828,-0.00020433,-0.00019018,-0.00031378,-
 0.00027743,0.00007393,0.00015648,0.00041072,0.00027483,0.00019345,0.00
 006782,0.00002851,0.00009003,-0.00003522,0.00002869,-0.00000744,0.0003
 4894,-0.00015974,0.00021878,0.00976583,0.00058967,-0.00157047,0.000036
 26,-0.00006810,0.00000963,-0.03191541,-0.03369431,-0.00284587,0.015132
 94,0.01883338,0.00112621,0.00065565,-0.03413928,-0.00199875,0.52961392
 ,-0.00002447,-0.00046671,-0.00162321,-0.00008037,-0.00731244,0.0045667
 9,0.00233043,-0.00122009,-0.00181156,-0.00833326,0.00638803,-0.0003133
 3,0.00020109,0.00024097,-0.00006131,0.00235573,0.00094216,0.00051824,0
 .00170480,-0.00084226,0.00135211,0.01039730,0.02589621,0.00087784,-0.0
 0092030,-0.00000654,0.00051423,0.00035719,-0.00004033,0.00020295,-0.00
 013539,0.00121979,0.00005560,-0.00006067,-0.00004157,-0.00020530,0.000
 27628,0.00006689,-0.00014152,0.00033134,0.00028346,-0.00008623,0.00009
 300,-0.00005691,-0.00000796,-0.00006755,0.00008627,-0.00000432,0.00067
 571,-0.00027276,0.00039632,0.01235777,0.00105213,-0.00265508,0.0000991
 8,-0.00014696,0.00005546,-0.01474151,-0.01130979,0.00132402,0.00101834
 ,-0.04088743,0.00182696,0.03933058,-0.31127603,0.00843414,0.19441453,0
 .55190371,0.00000374,0.00004994,0.00015162,-0.00036288,-0.00015826,-0.
 00018862,0.00018897,0.00236728,0.00166644,-0.00010555,-0.00004747,0.00
 009417,-0.00009894,0.00001849,-0.00003201,-0.00084839,-0.00024811,-0.0
 0033225,0.00035495,-0.00022058,-0.00009191,-0.01620519,0.00111991,0.01
 576973,0.00033752,0.00005349,-0.00026966,-0.00005753,-0.00000226,0.000
 01623,-0.00002550,-0.00008966,0.00000885,-0.00005015,-0.00006720,-0.00
 008677,-0.00010224,0.00001849,0.00003952,0.00002992,0.00002991,0.00015
 612,-0.00002313,0.00001848,0.00002874,0.00002559,-0.00002823,0.0000079
 8,-0.00000548,0.00005330,-0.00002453,0.00013641,0.00034127,0.00009223,
 -0.00004717,-0.00000340,-0.00007376,0.00207219,0.00145469,-0.00386791,
 -0.00265054,0.00401006,0.02100017,-0.00803561,0.00485486,-0.06058053,0
 .06618156,0.00128138,0.07057787,0.00001833,0.00038910,0.00219907,-0.00
 199347,0.00589948,-0.00561133,-0.02534839,0.00800703,-0.00285252,0.002
 20813,-0.00552232,0.00135695,0.00002534,0.00043679,0.00019486,0.000936
 06,-0.00308124,-0.00037010,-0.00175046,-0.00109589,-0.00241255,-0.0705
 8560,-0.07233873,0.00045045,0.00027214,-0.00029529,-0.00057343,-0.0004
 3259,0.00015112,-0.00028955,0.00018730,-0.00089807,-0.00002994,0.00036
 064,0.00015480,0.00033170,-0.00017915,0.00000825,0.00012922,-0.0005039
 6,-0.00030913,-0.00022115,-0.00010703,-0.00006057,-0.00007525,0.000045
 63,-0.00006345,0.00000813,-0.00034502,0.00011836,-0.00014460,-0.006658
 36,-0.00367377,-0.00063377,-0.00003058,0.00011611,-0.00001836,0.075539
 80,0.06366487,0.01861351,-0.02249031,0.00489564,-0.01051373,-0.1583027
 4,-0.06239809,-0.01499226,-0.29838540,-0.07915481,-0.04018675,0.554634
 07,-0.00036457,0.00146914,0.00220088,-0.00212273,0.01609834,-0.0065482
 4,0.01033892,0.02793540,0.00490435,0.02311191,-0.01362535,0.00018098,-
 0.00065610,-0.00082260,-0.00030530,-0.01257104,-0.00277704,-0.00214375
 ,-0.00489884,-0.00005067,-0.00416226,-0.02390208,-0.06413780,-0.003701
 44,0.00238962,-0.00044538,-0.00296931,-0.00054221,-0.00014584,-0.00018
 733,0.00087384,-0.00273032,0.00023100,0.00013635,-0.00002061,0.0003886
 6,-0.00117749,-0.00005160,0.00052214,-0.00067106,-0.00047635,0.0003926
 2,-0.00019840,0.00015581,0.00005394,0.00013079,-0.00024993,-0.00002523
 ,-0.00195888,0.00053246,-0.00107271,-0.03108217,-0.00662840,0.00732249
 ,-0.00020645,0.00038033,-0.00010494,0.00255417,-0.04243428,-0.00167176
 ,0.00607375,0.00438866,0.00282642,-0.03980333,-0.02877483,-0.00229998,
 -0.07531009,-0.12473002,-0.00857427,0.31280887,0.76053897,0.00014889,-
 0.00019017,0.00006165,-0.00047221,-0.00082466,0.00049923,-0.00802720,0
 .00085763,0.00022233,-0.00092848,0.00121765,-0.00007327,0.00036478,-0.
 00011813,-0.00028977,0.00014137,-0.00021015,0.00170615,-0.00043867,0.0
 0023213,0.00056588,-0.00399614,-0.01640369,-0.07301030,-0.00064084,-0.
 00004049,0.00030440,-0.00004042,0.00005223,-0.00006784,-0.00025424,0.0
 0007288,-0.00027039,0.00002291,0.00006611,0.00018174,0.00011920,0.0000
 3694,-0.00007203,-0.00018900,0.00004284,-0.00021223,0.00002188,-0.0000
 1020,-0.00007121,-0.00003131,0.00008658,-0.00001698,0.00024134,-0.0000
 1633,0.00014106,0.00145325,0.00120334,-0.00153114,0.00008193,-0.000080
 48,0.00002994,0.01491936,0.01251742,0.00587298,-0.00250625,-0.00051654
 ,-0.00366168,-0.02413121,-0.01096353,-0.01553249,-0.02945175,-0.008722
 35,-0.07180799,0.02427951,-0.02293164,0.21929616,-0.00008072,-0.000313
 34,0.00031612,-0.00007649,0.00018303,-0.00057524,-0.00102459,-0.001712
 14,0.00097412,-0.00034367,0.00021169,-0.00002477,0.00005684,0.00000210
 ,0.00004039,-0.00288006,-0.00179575,-0.00069752,0.00011818,0.00056431,
 -0.00006502,0.01269872,-0.00166781,0.00108035,-0.00139588,-0.00063225,
 0.00026042,-0.00009962,0.00006894,-0.00002569,-0.00005195,0.00031129,-
 0.00003615,-0.00121926,-0.00037331,0.00017095,0.00012393,0.00003203,-0
 .00000876,-0.00123871,0.00026869,0.00007887,0.00015733,0.00019192,-0.0
 0023422,-0.00017155,0.00038361,-0.00018992,0.00009114,-0.00002693,0.00
 003023,0.00030519,0.00004565,-0.00008879,0.00026136,-0.00009575,0.0002
 1019,-0.23138966,0.14261098,-0.04984153,-0.00978365,0.01697893,-0.0040
 2614,0.00092850,-0.00511289,-0.00140103,-0.00065971,0.00007245,0.00078
 094,0.00177022,-0.00118407,-0.00150603,0.23651630,0.00007682,-0.000173
 27,-0.00007729,-0.00008410,-0.00045789,0.00012885,0.00271704,-0.001682
 15,0.00103238,-0.00033307,0.00043610,-0.00008455,-0.00002158,-0.000052
 98,0.00007433,0.00089807,0.00170315,-0.00004497,-0.00001878,0.00010551
 ,0.00009164,0.02735142,-0.02543728,0.00737617,-0.00171515,0.00040529,0
 .00052554,0.00004511,0.00008341,-0.00008938,0.00008508,0.00013102,-0.0
 0002961,-0.00013413,0.00048747,-0.00015115,0.00020153,-0.00002203,-0.0
 0001368,0.00069330,-0.00046234,-0.00060428,0.00004128,-0.00014809,-0.0
 0000700,0.00014725,-0.00003872,0.00016864,0.00001788,-0.00005440,0.000
 02618,0.00053971,0.00003882,-0.00012183,0.00005587,-0.00011536,-0.0000
 1988,0.13535221,-0.16864283,0.03509044,-0.00933920,0.01320239,-0.00223
 095,-0.00132970,-0.00221652,0.00026951,0.00111432,0.00097220,0.0001021
 4,-0.00732157,0.00122597,-0.00244486,-0.14874722,0.18273531,0.00025919
 ,-0.00006395,-0.00023739,0.00096641,0.00061822,0.00061114,0.00139218,-
 0.00115069,-0.00421955,-0.00008829,-0.00004591,-0.00021127,0.00001739,
 0.00006493,-0.00011854,-0.00067109,-0.00082223,-0.00175834,-0.00090712
 ,0.00012896,-0.00015824,0.00020842,0.00353132,0.00940822,-0.00081009,0
 .00036422,0.00026648,0.00011960,0.00006728,-0.00007095,-0.00008981,-0.
 00002587,-0.00004257,0.00111250,-0.00006525,0.00135753,0.00010696,-0.0
 0009578,-0.00008071,-0.00034277,-0.00031660,-0.00041826,-0.00015677,-0
 .00005878,-0.00022233,-0.00006903,0.00015718,-0.00009002,0.00002849,0.
 00000767,0.00000657,0.00006756,0.00000795,0.00001059,-0.00033902,0.000
 02306,-0.00009005,-0.04992104,0.03399386,-0.05496361,-0.00317859,0.005
 42896,0.00607861,0.00233818,-0.00092745,0.00384709,-0.00156893,-0.0004
 8660,-0.00210514,-0.00187713,-0.00028272,0.00704395,0.05388593,-0.0395
 3626,0.03917059,0.00001051,-0.00004820,0.00010389,-0.00010188,0.000106
 92,-0.00034275,0.00101266,-0.00123689,0.00043868,0.00009924,-0.0001352
 5,0.00011046,0.00000436,-0.00001828,0.00002099,-0.00002388,0.00036505,
 -0.00000573,-0.00036182,-0.00015771,-0.00009081,-0.00546337,-0.0016687
 3,-0.00252665,0.00013100,-0.00008341,-0.00008709,-0.00004518,0.0000067
 9,-0.00000256,-0.00003830,0.00001109,0.00000188,-0.00006057,-0.0000624
 3,-0.00007130,-0.00002177,0.00001427,0.00000774,0.00007481,0.00011626,
 0.00007784,0.00001518,0.00001246,0.00001256,-0.00001562,0.00000553,-0.
 00001399,0.00001939,0.00001435,-0.00000975,-0.00019373,0.00000855,-0.0
 0000271,0.00000012,-0.00002767,-0.00001405,-0.00028623,-0.02767688,-0.
 00113801,-0.07004018,-0.06822411,-0.00937124,0.01100607,0.01969462,0.0
 0183730,-0.00271666,0.00517273,-0.00131026,-0.00311519,-0.00001802,-0.
 00030990,0.00062186,0.00038104,0.00085437,0.06751444,0.00001010,-0.000
 01863,-0.00003172,-0.00003412,-0.00015654,0.00009845,0.00074671,0.0003
 4205,0.00001933,-0.00009165,0.00010049,-0.00001841,0.00000555,-0.00000
 205,-0.00001095,-0.00000824,0.00003326,-0.00000574,-0.00001708,-0.0000
 9486,0.00002320,-0.00015947,0.00151750,-0.00002612,0.00001336,-0.00000
 246,-0.00003211,0.00000683,-0.00000154,0.00000583,0.00001102,0.0000212
 7,0.00000589,0.00000720,0.00000323,-0.00003235,-0.00000201,0.00000474,
 0.00000231,0.00003603,-0.00001108,0.00003381,0.00000444,0.00000085,0.0
 0000310,0.00000525,0.00000013,0.00000926,0.00000252,-0.00000730,0.0000
 0565,0.00014472,0.00001218,-0.00003432,-0.00000329,0.00000734,-0.00000
 353,0.00386767,-0.00063587,0.00101816,-0.07123498,-0.34244396,-0.02076
 471,-0.01296212,-0.01274051,-0.00276272,0.00340230,-0.00243306,0.00026
 515,0.00096871,0.00050468,0.00028847,-0.00022094,0.00034847,-0.0000911
 2,0.07526315,0.35332322,-0.00010100,0.00006853,-0.00015632,-0.00006175
 ,-0.00020940,0.00039604,0.00029996,-0.00046450,0.00020459,-0.00005327,
 0.00009061,-0.00010727,-0.00000734,-0.00000407,-0.00000963,-0.00014119
 ,0.00007173,0.00025270,-0.00005107,0.00018634,0.00010122,-0.00250236,-
 0.00056081,0.00443912,0.00001057,0.00003498,0.00003781,0.00002670,-0.0
 0002044,0.00002952,0.00002474,0.00002378,0.00002609,-0.00000247,-0.000
 03045,0.00006977,0.00000139,-0.00000761,-0.00000673,-0.00001361,-0.000
 04449,-0.00011332,-0.00000560,0.00001800,-0.00000680,-0.00000618,0.000
 00620,-0.00000421,-0.00000527,-0.00001403,0.00001238,0.00007214,0.0000
 2110,0.00001085,0.00002838,0.00002271,0.00002580,-0.00152455,-0.005330
 19,0.00348064,-0.00772833,-0.01900658,-0.03218365,-0.00498040,0.001812
 91,0.00522614,0.00149825,0.00093870,0.00369839,0.00017845,0.00002761,-
 0.00194228,0.00104396,0.00001739,-0.00248210,0.01145794,0.02146958,0.0
 2105573,-0.00030757,-0.00005896,-0.00203701,0.00006090,-0.00380897,0.0
 0479650,0.00029689,0.00543381,-0.00553466,-0.00168122,0.00431822,-0.00
 056708,-0.00004797,-0.00004767,0.00009745,-0.00013640,-0.00103114,0.00
 019456,0.00006724,0.00056797,0.00063711,-0.02989633,0.02156940,-0.0061
 7448,-0.00069585,0.00029665,-0.00008884,0.00058531,-0.00018525,0.00022
 893,0.00055114,0.00062990,0.00029343,0.00007989,0.00016181,-0.00000685
 ,0.00007958,-0.00002750,0.00002023,0.00014721,-0.00027115,-0.00004895,
 0.00005523,-0.00004291,-0.00002576,-0.00004998,-0.00003174,0.00001089,
 -0.00023648,-0.00021516,-0.00001349,0.00383070,-0.00053307,-0.00003292
 ,-0.00005865,0.00015211,0.00016173,-0.02600245,0.00342569,-0.00237179,
 -0.10156044,0.01792146,-0.01770389,-0.35373733,-0.11630698,-0.04426022
 ,-0.08531771,-0.08282846,-0.00270489,0.08621422,-0.00362774,0.01487332
 ,-0.00266322,-0.00146958,-0.00198300,0.00108757,0.00059721,0.00286992,
 0.52837309,-0.00001631,-0.00007901,-0.00078866,0.00004982,-0.00220233,
 0.00212359,0.00244174,0.00308977,-0.00122522,-0.00182803,0.00184000,-0
 .00032683,0.00004844,-0.00001528,-0.00005250,-0.00050561,0.00031186,-0
 .00016643,0.00055566,-0.00059839,0.00038260,-0.00686208,-0.00031743,-0
 .00168342,-0.00017527,-0.00002388,-0.00020341,0.00017611,-0.00005135,0
 .00011477,0.00004197,0.00037541,0.00008995,-0.00000177,-0.00001544,-0.
 00001373,-0.00001458,0.00002754,0.00000465,0.00003419,0.00006828,-0.00
 001278,0.00000681,-0.00001309,-0.00000560,-0.00001457,0.00000939,-0.00
 001068,0.00014033,-0.00010264,0.00009705,0.00300399,0.00016814,-0.0004
 2928,0.00002149,-0.00003233,0.00001123,0.00585024,0.00228053,0.0021403
 5,0.00509158,0.02102187,-0.00119925,-0.09667292,-0.12046763,-0.0137601
 9,-0.07886054,-0.04300597,-0.00829323,0.01863640,-0.00413198,0.0047689
 6,0.00101280,0.00065081,0.00033174,-0.00196153,0.00246993,0.00064345,0
 .15926238,0.14636292,-0.00010801,0.00007033,-0.00033440,0.00019031,-0.
 00062491,0.00063928,-0.00110214,0.00042450,-0.00067655,-0.00029497,0.0
 0036249,0.00003984,-0.00003736,0.00002568,0.00005264,-0.00011292,-0.00
 035382,0.00036488,0.00014595,0.00049354,0.00015038,-0.00338561,0.00492
 689,-0.00283481,-0.00011240,0.00012643,0.00008783,0.00007517,-0.000047
 09,0.00005841,0.00013455,0.00014614,0.00008352,-0.00011273,-0.00000930
 ,-0.00011571,0.00002045,-0.00000977,0.00000711,0.00013731,-0.00006841,
 0.00010285,0.00002240,0.00002223,0.00000187,-0.00000930,-0.00000437,0.
 00000830,-0.00003088,-0.00006184,0.00001007,0.00038032,-0.00003421,-0.
 00006428,-0.00003824,0.00002309,0.00000176,-0.00491555,-0.00031955,-0.
 00754444,-0.01326158,0.00258821,0.02144737,-0.04220662,-0.01881799,-0.
 05371642,-0.00795408,-0.00459061,0.00938861,0.01317762,-0.00159402,0.0
 1123468,-0.00038327,-0.00042788,0.00014785,0.00026076,0.00048150,-0.00
 193477,0.06303252,0.01767073,0.02540431,0.00028037,-0.00023269,-0.0014
 0171,0.00086873,-0.01238982,0.00425638,-0.00082745,-0.00181980,-0.0032
 8155,-0.02838484,0.00551126,0.00496412,0.00027723,0.00072437,0.0001735
 4,0.00022487,0.00305067,0.00070442,-0.00043183,0.00249631,0.00123334,0
 .01017962,0.03017861,-0.00683774,-0.00010287,0.00009797,0.00023642,0.0
 0023752,-0.00003760,0.00019168,-0.00093501,0.00137941,-0.00048765,-0.0
 0025618,-0.00026392,-0.00029988,0.00016076,0.00013532,-0.00015633,0.00
 027848,0.00061254,0.00018080,0.00003812,0.00002364,0.00009407,-0.00000
 374,0.00011597,0.00000019,0.00155374,-0.00000747,0.00108907,0.00425836
 ,0.00725472,-0.00241198,0.00010221,-0.00031676,-0.00012629,-0.01168775
 ,-0.00781838,-0.00446440,0.00339973,-0.00397963,0.00254947,0.02368798,
 0.02369683,0.00196142,-0.05349452,-0.08484168,0.00270838,-0.13198362,-
 0.15812295,0.01625591,-0.00057084,0.00079615,0.00064549,0.00088717,-0.
 00035886,-0.00032804,-0.01903738,-0.00946073,-0.00351167,0.20128114,0.
 00001588,-0.00030624,-0.00243961,0.00059571,-0.01202123,0.00597653,-0.
 00551320,-0.00368792,-0.00427932,-0.02162372,0.01264446,0.00173089,0.0
 0033155,0.00085891,0.00024694,0.00301253,0.00138025,0.00013944,0.00262
 429,-0.00097968,0.00215726,0.01364430,-0.09296919,0.02053704,-0.001728
 65,0.00006796,0.00074069,0.00047619,-0.00003090,0.00031307,-0.00049549
 ,0.00217832,0.00005563,-0.00015275,-0.00016536,-0.00040301,0.00038389,
 0.00014333,-0.00021347,0.00051807,0.00054381,-0.00011779,0.00013068,-0
 .00006131,-0.00000988,-0.00008725,0.00019562,0.00000540,0.00159544,-0.
 00051396,0.00093732,0.02492802,-0.00116883,-0.00638120,0.00017504,-0.0
 0030015,0.00000990,0.01484125,0.00383322,0.00518159,-0.00129327,-0.005
 28881,-0.00038655,0.00101415,0.02754538,-0.00113169,-0.05216651,-0.045
 00293,0.00169386,-0.18004259,-0.52099675,0.04203002,-0.00105602,-0.003
 02206,-0.00075614,0.00014630,-0.00014148,0.00023895,-0.00385035,-0.007
 61970,-0.00039799,0.20357652,0.64488522,-0.00024594,0.00002461,0.00030
 010,0.00076022,0.00481087,-0.00242024,0.00093323,-0.00102620,-0.003780
 32,0.01180321,-0.00233663,0.00256439,-0.00043648,-0.00007365,0.0003810
 7,-0.00198319,0.00183396,0.00075538,-0.00012656,0.00178820,0.00036249,
 -0.00450134,0.02793225,0.01409634,0.00132092,0.00044070,-0.00048112,-0
 .00009260,-0.00002040,0.00002367,0.00047513,-0.00051586,0.00063266,-0.
 00031349,-0.00001487,-0.00005475,-0.00012412,-0.00007472,0.00009048,0.
 00013170,-0.00020329,0.00022762,-0.00002633,0.00007844,0.00010346,0.00
 001463,-0.00010846,-0.00000438,-0.00067105,-0.00002339,-0.00073043,-0.
 00653670,-0.00330106,-0.00347607,-0.00011273,0.00014346,-0.00001266,-0
 .00737305,-0.00301377,-0.00008074,0.00148794,0.00059536,-0.00094971,0.
 00461064,-0.00020273,0.01005485,-0.00162069,-0.00163537,0.01676440,0.0
 1988295,0.03952380,-0.07860055,0.00023160,0.00098033,-0.00067955,0.000
 11240,0.00008411,-0.00011972,-0.00366278,-0.00020784,-0.00201019,-0.01
 393750,-0.06547788,0.04704352\\-0.00000392,0.00000682,-0.00000532,-0.0
 0000553,-0.00001936,0.00000827,0.00001234,0.00001255,-0.00000594,-0.00
 000110,0.00001356,0.00000176,-0.00000175,0.00000625,0.00000138,-0.0000
 0454,0.00000011,0.00000952,-0.00000280,-0.00000735,0.00000401,-0.00000
 021,-0.00002234,0.00000246,0.00001124,-0.00001435,-0.00000320,0.000001
 88,0.00000078,0.00000357,0.00000954,-0.00000406,0.00000279,0.00000703,
 0.00001136,0.00000158,-0.00000093,0.00000241,-0.00000206,0.00000059,-0
 .00001040,-0.00000775,-0.00000151,-0.00000487,-0.00000284,-0.00000262,
 0.00000041,-0.00000366,-0.00000518,-0.00000015,0.00000413,-0.00000139,
 0.00000038,0.00000201,-0.00000214,0.00000976,-0.00000261,0.00000844,0.
 00000830,0.00000150,-0.00002106,0.00000711,-0.00000810,0.00004467,-0.0
 0000834,0.00000324,0.00000744,0.00000172,0.00000509,-0.00002815,0.0000
 1724,-0.00000451,-0.00000127,0.00000005,-0.00000148,0.00000131,-0.0000
 0034,-0.00000330,-0.00002195,-0.00000246,-0.00000116,0.00000156,-0.000
 00478,0.00000062\\\@
 The archive entry for this job was punched.


 THE PROGRESS OF RIVERS TO THE SEA IS NOT AS RAPID
 AS THAT OF MAN TO ERROR.
                                              -- VOLTAIRE
 Job cpu time:       0 days 17 hours 34 minutes 51.1 seconds.
 Elapsed time:       0 days  0 hours 26 minutes 35.4 seconds.
 File lengths (MBytes):  RWF=   1167 Int=      0 D2E=      0 Chk=     28 Scr=      1
 Normal termination of Gaussian 16 at Sun Oct 27 00:41:56 2024.
