 Entering Gaussian System, Link 0=g16
 Input=UridineNsllg2PBE0aVDZ.gjf
 Output=UridineNsllg2PBE0aVDZ.log
 Initial command:
 /sw/contrib/chem-src/g16/c01/g16/l1.exe "/scr/Gau-13622.inp" -scrdir="/scr/"
 Entering Link 1 = /sw/contrib/chem-src/g16/c01/g16/l1.exe PID=     13623.
  
 Copyright (c) 1988-2019, Gaussian, Inc.  All Rights Reserved.
  
 This is part of the Gaussian(R) 16 program.  It is based on
 the Gaussian(R) 09 system (copyright 2009, Gaussian, Inc.),
 the Gaussian(R) 03 system (copyright 2003, Gaussian, Inc.),
 the Gaussian(R) 98 system (copyright 1998, Gaussian, Inc.),
 the Gaussian(R) 94 system (copyright 1995, Gaussian, Inc.),
 the Gaussian 92(TM) system (copyright 1992, Gaussian, Inc.),
 the Gaussian 90(TM) system (copyright 1990, Gaussian, Inc.),
 the Gaussian 88(TM) system (copyright 1988, Gaussian, Inc.),
 the Gaussian 86(TM) system (copyright 1986, Carnegie Mellon
 University), and the Gaussian 82(TM) system (copyright 1983,
 Carnegie Mellon University). Gaussian is a federally registered
 trademark of Gaussian, Inc.
  
 This software contains proprietary and confidential information,
 including trade secrets, belonging to Gaussian, Inc.
  
 This software is provided under written license and may be
 used, copied, transmitted, or stored only in accord with that
 written license.
  
 The following legend is applicable only to US Government
 contracts under FAR:
  
                    RESTRICTED RIGHTS LEGEND
  
 Use, reproduction and disclosure by the US Government is
 subject to restrictions as set forth in subparagraphs (a)
 and (c) of the Commercial Computer Software - Restricted
 Rights clause in FAR 52.227-19.
  
 Gaussian, Inc.
 340 Quinnipiac St., Bldg. 40, Wallingford CT 06492
  
  
 ---------------------------------------------------------------
 Warning -- This program may not be used in any manner that
 competes with the business of Gaussian, Inc. or will provide
 assistance to any competitor of Gaussian, Inc.  The licensee
 of this program is prohibited from giving any competitor of
 Gaussian, Inc. access to this program.  By using this program,
 the user acknowledges that Gaussian, Inc. is engaged in the
 business of creating and licensing software in the field of
 computational chemistry and represents and warrants to the
 licensee that it is not a competitor of Gaussian, Inc. and that
 it will not use this program in any manner prohibited above.
 ---------------------------------------------------------------
  

 Cite this work as:
 Gaussian 16, Revision C.01,
 M. J. Frisch, G. W. Trucks, H. B. Schlegel, G. E. Scuseria, 
 M. A. Robb, J. R. Cheeseman, G. Scalmani, V. Barone, 
 G. A. Petersson, H. Nakatsuji, X. Li, M. Caricato, A. V. Marenich, 
 J. Bloino, B. G. Janesko, R. Gomperts, B. Mennucci, H. P. Hratchian, 
 J. V. Ortiz, A. F. Izmaylov, J. L. Sonnenberg, D. Williams-Young, 
 F. Ding, F. Lipparini, F. Egidi, J. Goings, B. Peng, A. Petrone, 
 T. Henderson, D. Ranasinghe, V. G. Zakrzewski, J. Gao, N. Rega, 
 G. Zheng, W. Liang, M. Hada, M. Ehara, K. Toyota, R. Fukuda, 
 J. Hasegawa, M. Ishida, T. Nakajima, Y. Honda, O. Kitao, H. Nakai, 
 T. Vreven, K. Throssell, J. A. Montgomery, Jr., J. E. Peralta, 
 F. Ogliaro, M. J. Bearpark, J. J. Heyd, E. N. Brothers, K. N. Kudin, 
 V. N. Staroverov, T. A. Keith, R. Kobayashi, J. Normand, 
 K. Raghavachari, A. P. Rendell, J. C. Burant, S. S. Iyengar, 
 J. Tomasi, M. Cossi, J. M. Millam, M. Klene, C. Adamo, R. Cammi, 
 J. W. Ochterski, R. L. Martin, K. Morokuma, O. Farkas, 
 J. B. Foresman, and D. J. Fox, Gaussian, Inc., Wallingford CT, 2019.
 
 ******************************************
 Gaussian 16:  EM64L-G16RevC.01  3-Jul-2019
                17-Oct-2024 
 ******************************************
 %nprocshared=40
 Will use up to   40 processors via shared memory.
 %mem=50gb
 ------------------------------------------------------
 # PBE1PBE/aug-cc-pVDZ opt freq EmpiricalDispersion=GD3
 ------------------------------------------------------
 1/18=20,19=15,26=3,38=1/1,3;
 2/9=110,12=2,17=6,18=5,40=1/2;
 3/5=16,7=10,11=2,25=1,30=1,71=1,74=-13,124=31/1,2,3;
 4//1;
 5/5=2,38=5/2;
 6/7=2,8=2,9=2,10=2,28=1/1;
 7//1,2,3,16;
 1/18=20,19=15,26=3/3(2);
 2/9=110/2;
 99//99;
 2/9=110/2;
 3/5=16,7=10,11=2,25=1,30=1,71=1,74=-13,124=31/1,2,3;
 4/5=5,16=3,69=1/1;
 5/5=2,38=5/2;
 7//1,2,3,16;
 1/18=20,19=15,26=3/3(-5);
 2/9=110/2;
 6/7=2,8=2,9=2,10=2,19=2,28=1/1;
 99/9=1/99;
 ----
 blah
 ----
 Symbolic Z-matrix:
 Charge =  0 Multiplicity = 1
 C                    -3.06523  -1.85444   0.61681 
 C                    -2.16586  -1.37302  -0.50995 
 C                    -1.7962    0.0606   -0.07146 
 O                    -2.91189  -1.37028  -1.74236 
 H                    -1.30892  -2.03819  -0.65695 
 O                    -2.63933   0.42129   1.04383 
 H                    -2.02929   0.76933  -0.87673 
 N                    -0.38062   0.20257   0.24699 
 C                    -3.70402  -0.55467   1.08285 
 H                    -2.45877  -2.30093   1.41291 
 O                    -4.02075  -2.80544   0.16283 
 C                    -4.29119  -0.62807   2.48912 
 H                    -4.49433  -0.24199   0.38797 
 O                    -3.25474  -0.76925   3.46099 
 H                    -4.98595  -1.46699   2.5903 
 H                    -4.82833   0.29658   2.72509 
 H                    -4.13149  -2.62853  -0.79576 
 H                    -2.28957  -1.06558  -2.43444 
 H                    -2.72471   0.04527   3.38896 
 C                     0.08471   0.25901   1.54425 
 C                     1.38497   0.37828   1.82213 
 C                     2.34771   0.44972   0.71204 
 N                     1.81424   0.37058  -0.54123 
 C                     0.48632   0.22926  -0.84034 
 H                    -0.64363   0.20461   2.34624 
 H                     1.77531   0.42683   2.82995 
 H                     2.45918   0.40248  -1.31539 
 O                     3.54891   0.56383   0.92069 
 O                     0.10942   0.10798  -2.00519 
 

 GradGradGradGradGradGradGradGradGradGradGradGradGradGradGradGradGradGrad
 Berny optimization.
 Initialization pass.
                           ----------------------------
                           !    Initial Parameters    !
                           ! (Angstroms and Degrees)  !
 --------------------------                            --------------------------
 ! Name  Definition              Value          Derivative Info.                !
 --------------------------------------------------------------------------------
 ! R1    R(1,2)                  1.5199         estimate D2E/DX2                !
 ! R2    R(1,9)                  1.5214         estimate D2E/DX2                !
 ! R3    R(1,10)                 1.0959         estimate D2E/DX2                !
 ! R4    R(1,11)                 1.4225         estimate D2E/DX2                !
 ! R5    R(2,3)                  1.5441         estimate D2E/DX2                !
 ! R6    R(2,4)                  1.4406         estimate D2E/DX2                !
 ! R7    R(2,5)                  1.0947         estimate D2E/DX2                !
 ! R8    R(3,6)                  1.4439         estimate D2E/DX2                !
 ! R9    R(3,7)                  1.0978         estimate D2E/DX2                !
 ! R10   R(3,8)                  1.4579         estimate D2E/DX2                !
 ! R11   R(4,18)                 0.9793         estimate D2E/DX2                !
 ! R12   R(6,9)                  1.4449         estimate D2E/DX2                !
 ! R13   R(8,20)                 1.3793         estimate D2E/DX2                !
 ! R14   R(8,24)                 1.3909         estimate D2E/DX2                !
 ! R15   R(9,12)                 1.5257         estimate D2E/DX2                !
 ! R16   R(9,13)                 1.0978         estimate D2E/DX2                !
 ! R17   R(11,17)                0.981          estimate D2E/DX2                !
 ! R18   R(12,14)                1.4278         estimate D2E/DX2                !
 ! R19   R(12,15)                1.0939         estimate D2E/DX2                !
 ! R20   R(12,16)                1.0951         estimate D2E/DX2                !
 ! R21   R(14,19)                0.9745         estimate D2E/DX2                !
 ! R22   R(20,21)                1.335          estimate D2E/DX2                !
 ! R23   R(20,25)                1.0847         estimate D2E/DX2                !
 ! R24   R(21,22)                1.4711         estimate D2E/DX2                !
 ! R25   R(21,26)                1.0819         estimate D2E/DX2                !
 ! R26   R(22,23)                1.3644         estimate D2E/DX2                !
 ! R27   R(22,28)                1.2245         estimate D2E/DX2                !
 ! R28   R(23,24)                1.3685         estimate D2E/DX2                !
 ! R29   R(23,27)                1.0081         estimate D2E/DX2                !
 ! R30   R(24,29)                1.2303         estimate D2E/DX2                !
 ! A1    A(2,1,9)              101.8252         estimate D2E/DX2                !
 ! A2    A(2,1,10)             109.8842         estimate D2E/DX2                !
 ! A3    A(2,1,11)             111.8779         estimate D2E/DX2                !
 ! A4    A(9,1,10)             110.9718         estimate D2E/DX2                !
 ! A5    A(9,1,11)             112.7603         estimate D2E/DX2                !
 ! A6    A(10,1,11)            109.3416         estimate D2E/DX2                !
 ! A7    A(1,2,3)              103.0161         estimate D2E/DX2                !
 ! A8    A(1,2,4)              109.1689         estimate D2E/DX2                !
 ! A9    A(1,2,5)              111.7327         estimate D2E/DX2                !
 ! A10   A(3,2,4)              111.4169         estimate D2E/DX2                !
 ! A11   A(3,2,5)              114.5119         estimate D2E/DX2                !
 ! A12   A(4,2,5)              106.9564         estimate D2E/DX2                !
 ! A13   A(2,3,6)              108.149          estimate D2E/DX2                !
 ! A14   A(2,3,7)              109.894          estimate D2E/DX2                !
 ! A15   A(2,3,8)              112.6379         estimate D2E/DX2                !
 ! A16   A(6,3,7)              106.3404         estimate D2E/DX2                !
 ! A17   A(6,3,8)              111.9583         estimate D2E/DX2                !
 ! A18   A(7,3,8)              107.6699         estimate D2E/DX2                !
 ! A19   A(2,4,18)             106.0254         estimate D2E/DX2                !
 ! A20   A(3,6,9)              106.404          estimate D2E/DX2                !
 ! A21   A(3,8,20)             122.4786         estimate D2E/DX2                !
 ! A22   A(3,8,24)             115.8693         estimate D2E/DX2                !
 ! A23   A(20,8,24)            121.6121         estimate D2E/DX2                !
 ! A24   A(1,9,6)              105.0349         estimate D2E/DX2                !
 ! A25   A(1,9,12)             113.7554         estimate D2E/DX2                !
 ! A26   A(1,9,13)             110.5914         estimate D2E/DX2                !
 ! A27   A(6,9,12)             109.9367         estimate D2E/DX2                !
 ! A28   A(6,9,13)             108.723          estimate D2E/DX2                !
 ! A29   A(12,9,13)            108.6668         estimate D2E/DX2                !
 ! A30   A(1,11,17)            105.4922         estimate D2E/DX2                !
 ! A31   A(9,12,14)            110.6571         estimate D2E/DX2                !
 ! A32   A(9,12,15)            111.5038         estimate D2E/DX2                !
 ! A33   A(9,12,16)            110.2895         estimate D2E/DX2                !
 ! A34   A(14,12,15)           108.7978         estimate D2E/DX2                !
 ! A35   A(14,12,16)           107.0304         estimate D2E/DX2                !
 ! A36   A(15,12,16)           108.4263         estimate D2E/DX2                !
 ! A37   A(12,14,19)           105.1815         estimate D2E/DX2                !
 ! A38   A(8,20,21)            121.8713         estimate D2E/DX2                !
 ! A39   A(8,20,25)            117.8256         estimate D2E/DX2                !
 ! A40   A(21,20,25)           120.3031         estimate D2E/DX2                !
 ! A41   A(20,21,22)           118.9909         estimate D2E/DX2                !
 ! A42   A(20,21,26)           123.3224         estimate D2E/DX2                !
 ! A43   A(22,21,26)           117.6867         estimate D2E/DX2                !
 ! A44   A(21,22,23)           115.7492         estimate D2E/DX2                !
 ! A45   A(21,22,28)           121.1919         estimate D2E/DX2                !
 ! A46   A(23,22,28)           123.0571         estimate D2E/DX2                !
 ! A47   A(22,23,24)           125.8846         estimate D2E/DX2                !
 ! A48   A(22,23,27)           116.9628         estimate D2E/DX2                !
 ! A49   A(24,23,27)           117.1428         estimate D2E/DX2                !
 ! A50   A(8,24,23)            115.8449         estimate D2E/DX2                !
 ! A51   A(8,24,29)            123.1835         estimate D2E/DX2                !
 ! A52   A(23,24,29)           120.9559         estimate D2E/DX2                !
 ! D1    D(9,1,2,3)             30.0043         estimate D2E/DX2                !
 ! D2    D(9,1,2,4)            -88.4944         estimate D2E/DX2                !
 ! D3    D(9,1,2,5)            153.4091         estimate D2E/DX2                !
 ! D4    D(10,1,2,3)           -87.6785         estimate D2E/DX2                !
 ! D5    D(10,1,2,4)           153.8228         estimate D2E/DX2                !
 ! D6    D(10,1,2,5)            35.7263         estimate D2E/DX2                !
 ! D7    D(11,1,2,3)           150.6691         estimate D2E/DX2                !
 ! D8    D(11,1,2,4)            32.1704         estimate D2E/DX2                !
 ! D9    D(11,1,2,5)           -85.9261         estimate D2E/DX2                !
 ! D10   D(2,1,9,6)            -40.0908         estimate D2E/DX2                !
 ! D11   D(2,1,9,12)          -160.3537         estimate D2E/DX2                !
 ! D12   D(2,1,9,13)            77.0365         estimate D2E/DX2                !
 ! D13   D(10,1,9,6)            76.8068         estimate D2E/DX2                !
 ! D14   D(10,1,9,12)          -43.4561         estimate D2E/DX2                !
 ! D15   D(10,1,9,13)         -166.0658         estimate D2E/DX2                !
 ! D16   D(11,1,9,6)          -160.1371         estimate D2E/DX2                !
 ! D17   D(11,1,9,12)           79.6            estimate D2E/DX2                !
 ! D18   D(11,1,9,13)          -43.0097         estimate D2E/DX2                !
 ! D19   D(2,1,11,17)          -24.4293         estimate D2E/DX2                !
 ! D20   D(9,1,11,17)           89.6466         estimate D2E/DX2                !
 ! D21   D(10,1,11,17)        -146.3935         estimate D2E/DX2                !
 ! D22   D(1,2,3,6)            -10.893          estimate D2E/DX2                !
 ! D23   D(1,2,3,7)           -126.5819         estimate D2E/DX2                !
 ! D24   D(1,2,3,8)            113.3747         estimate D2E/DX2                !
 ! D25   D(4,2,3,6)            106.0228         estimate D2E/DX2                !
 ! D26   D(4,2,3,7)             -9.6661         estimate D2E/DX2                !
 ! D27   D(4,2,3,8)           -129.7095         estimate D2E/DX2                !
 ! D28   D(5,2,3,6)           -132.4329         estimate D2E/DX2                !
 ! D29   D(5,2,3,7)            111.8782         estimate D2E/DX2                !
 ! D30   D(5,2,3,8)             -8.1652         estimate D2E/DX2                !
 ! D31   D(1,2,4,18)          -179.3021         estimate D2E/DX2                !
 ! D32   D(3,2,4,18)            67.5888         estimate D2E/DX2                !
 ! D33   D(5,2,4,18)           -58.2497         estimate D2E/DX2                !
 ! D34   D(2,3,6,9)            -14.161          estimate D2E/DX2                !
 ! D35   D(7,3,6,9)            103.8262         estimate D2E/DX2                !
 ! D36   D(8,3,6,9)           -138.8347         estimate D2E/DX2                !
 ! D37   D(2,3,8,20)          -103.3022         estimate D2E/DX2                !
 ! D38   D(2,3,8,24)            74.4307         estimate D2E/DX2                !
 ! D39   D(6,3,8,20)            18.8404         estimate D2E/DX2                !
 ! D40   D(6,3,8,24)          -163.4267         estimate D2E/DX2                !
 ! D41   D(7,3,8,20)           135.3794         estimate D2E/DX2                !
 ! D42   D(7,3,8,24)           -46.8877         estimate D2E/DX2                !
 ! D43   D(3,6,9,1)             33.9567         estimate D2E/DX2                !
 ! D44   D(3,6,9,12)           156.7172         estimate D2E/DX2                !
 ! D45   D(3,6,9,13)           -84.4386         estimate D2E/DX2                !
 ! D46   D(3,8,20,21)          179.4462         estimate D2E/DX2                !
 ! D47   D(3,8,20,25)           -0.6384         estimate D2E/DX2                !
 ! D48   D(24,8,20,21)           1.8417         estimate D2E/DX2                !
 ! D49   D(24,8,20,25)        -178.2429         estimate D2E/DX2                !
 ! D50   D(3,8,24,23)          179.6238         estimate D2E/DX2                !
 ! D51   D(3,8,24,29)           -1.812          estimate D2E/DX2                !
 ! D52   D(20,8,24,23)          -2.6219         estimate D2E/DX2                !
 ! D53   D(20,8,24,29)         175.9423         estimate D2E/DX2                !
 ! D54   D(1,9,12,14)           67.8528         estimate D2E/DX2                !
 ! D55   D(1,9,12,15)          -53.3904         estimate D2E/DX2                !
 ! D56   D(1,9,12,16)         -173.9121         estimate D2E/DX2                !
 ! D57   D(6,9,12,14)          -49.6072         estimate D2E/DX2                !
 ! D58   D(6,9,12,15)         -170.8504         estimate D2E/DX2                !
 ! D59   D(6,9,12,16)           68.628          estimate D2E/DX2                !
 ! D60   D(13,9,12,14)        -168.4858         estimate D2E/DX2                !
 ! D61   D(13,9,12,15)          70.2709         estimate D2E/DX2                !
 ! D62   D(13,9,12,16)         -50.2507         estimate D2E/DX2                !
 ! D63   D(9,12,14,19)          62.9942         estimate D2E/DX2                !
 ! D64   D(15,12,14,19)       -174.1756         estimate D2E/DX2                !
 ! D65   D(16,12,14,19)        -57.209          estimate D2E/DX2                !
 ! D66   D(8,20,21,22)          -0.0782         estimate D2E/DX2                !
 ! D67   D(8,20,21,26)         179.8656         estimate D2E/DX2                !
 ! D68   D(25,20,21,22)       -179.9916         estimate D2E/DX2                !
 ! D69   D(25,20,21,26)         -0.0478         estimate D2E/DX2                !
 ! D70   D(20,21,22,23)         -0.7241         estimate D2E/DX2                !
 ! D71   D(20,21,22,28)        179.7526         estimate D2E/DX2                !
 ! D72   D(26,21,22,23)        179.3289         estimate D2E/DX2                !
 ! D73   D(26,21,22,28)         -0.1944         estimate D2E/DX2                !
 ! D74   D(21,22,23,24)         -0.2077         estimate D2E/DX2                !
 ! D75   D(21,22,23,27)       -179.0284         estimate D2E/DX2                !
 ! D76   D(28,22,23,24)        179.3057         estimate D2E/DX2                !
 ! D77   D(28,22,23,27)          0.485          estimate D2E/DX2                !
 ! D78   D(22,23,24,8)           1.8331         estimate D2E/DX2                !
 ! D79   D(22,23,24,29)       -176.7656         estimate D2E/DX2                !
 ! D80   D(27,23,24,8)        -179.3481         estimate D2E/DX2                !
 ! D81   D(27,23,24,29)          2.0532         estimate D2E/DX2                !
 --------------------------------------------------------------------------------
 Trust Radius=3.00D-01 FncErr=1.00D-07 GrdErr=1.00D-06 EigMax=2.50D+02 EigMin=1.00D-04
 Number of steps in this run=    173 maximum allowed number of steps=    174.
 GradGradGradGradGradGradGradGradGradGradGradGradGradGradGradGradGradGrad

                          Input orientation:                          
 ---------------------------------------------------------------------
 Center     Atomic      Atomic             Coordinates (Angstroms)
 Number     Number       Type             X           Y           Z
 ---------------------------------------------------------------------
      1          6           0       -3.065230   -1.854442    0.616812
      2          6           0       -2.165861   -1.373015   -0.509945
      3          6           0       -1.796198    0.060597   -0.071462
      4          8           0       -2.911893   -1.370283   -1.742359
      5          1           0       -1.308924   -2.038193   -0.656951
      6          8           0       -2.639328    0.421294    1.043829
      7          1           0       -2.029286    0.769327   -0.876727
      8          7           0       -0.380619    0.202567    0.246991
      9          6           0       -3.704023   -0.554672    1.082849
     10          1           0       -2.458765   -2.300926    1.412909
     11          8           0       -4.020746   -2.805440    0.162829
     12          6           0       -4.291192   -0.628071    2.489122
     13          1           0       -4.494331   -0.241991    0.387975
     14          8           0       -3.254739   -0.769247    3.460987
     15          1           0       -4.985948   -1.466992    2.590304
     16          1           0       -4.828335    0.296579    2.725086
     17          1           0       -4.131488   -2.628532   -0.795756
     18          1           0       -2.289570   -1.065575   -2.434439
     19          1           0       -2.724706    0.045268    3.388959
     20          6           0        0.084710    0.259007    1.544249
     21          6           0        1.384970    0.378281    1.822135
     22          6           0        2.347712    0.449721    0.712043
     23          7           0        1.814240    0.370582   -0.541233
     24          6           0        0.486324    0.229259   -0.840336
     25          1           0       -0.643632    0.204614    2.346245
     26          1           0        1.775310    0.426832    2.829952
     27          1           0        2.459182    0.402480   -1.315388
     28          8           0        3.548911    0.563833    0.920692
     29          8           0        0.109422    0.107984   -2.005191
 ---------------------------------------------------------------------
                    Distance matrix (angstroms):
                    1          2          3          4          5
     1  C    0.000000
     2  C    1.519940   0.000000
     3  C    2.398237   1.544074   0.000000
     4  O    2.413215   1.440630   2.466594   0.000000
     5  H    2.177349   1.094720   2.232746   2.047858   0.000000
     6  O    2.354296   2.420316   1.443900   3.323685   3.272874
     7  H    3.191865   2.177799   1.097760   2.471081   2.906783
     8  N    3.402234   2.498500   1.457886   3.583116   2.588410
     9  C    1.521397   2.360640   2.313177   3.045405   3.311229
    10  H    1.095864   2.155035   2.866905   3.320713   2.382327
    11  O    1.422501   2.438250   3.635612   2.630394   2.935079
    12  C    2.551963   3.750518   3.640859   4.512070   4.558524
    13  H    2.166724   2.739936   2.753646   2.883656   3.803292
    14  O    3.050065   4.161550   3.910778   5.249152   4.727984
    15  H    2.780997   4.192048   4.426402   4.804479   4.938769
    16  H    3.490022   4.510182   4.131613   5.138992   5.410692
    17  H    1.931701   2.349829   3.634501   1.991648   2.886977
    18  H    3.245627   1.952819   2.663708   0.979341   2.251026
    19  H    3.377818   4.186322   3.582859   5.326279   4.765988
    20  C    3.904988   3.456629   2.487510   4.736666   3.473417
    21  C    5.122708   4.595001   3.715704   5.850309   4.386602
    22  C    5.883721   5.018761   4.235243   6.082758   4.629778
    23  N    5.486440   4.345378   3.654044   5.177803   3.945851
    24  C    4.367908   3.116171   2.414440   3.862649   2.897910
    25  H    3.618672   3.600544   2.682248   4.933760   3.806834
    26  H    5.790771   5.470575   4.616059   6.790104   5.267574
    27  H    6.272657   5.019178   4.446627   5.672163   4.537515
    28  O    7.048919   6.201348   5.459652   7.250836   5.732195
    29  O    4.561187   3.099360   2.715316   3.373825   2.904398
                    6          7          8          9         10
     6  O    0.000000
     7  H    2.044948   0.000000
     8  N    2.405112   2.074141   0.000000
     9  C    1.444855   2.897871   3.509571   0.000000
    10  H    2.753053   3.854002   3.456232   2.170025   0.000000
    11  O    3.618879   4.222031   4.722893   2.452082   2.063255
    12  C    2.432836   4.289275   4.583634   1.525699   2.704528
    13  H    2.076325   2.949352   4.140065   1.097819   3.071356
    14  O    2.763833   4.762846   4.419815   2.429699   2.678478
    15  H    3.385828   5.075753   5.430249   2.179009   2.910044
    16  H    2.762956   4.585981   5.092345   2.164636   3.752826
    17  H    3.861612   3.996405   4.813675   2.830685   2.789897
    18  H    3.798876   2.420967   3.527371   3.825313   4.044355
    19  H    2.376620   4.382231   3.923195   2.576263   3.078982
    20  C    2.774372   3.254309   1.379346   3.902494   3.611062
    21  C    4.099096   4.369658   2.372605   5.226355   4.703181
    22  C    4.998146   4.667381   2.778695   6.145713   5.582069
    23  N    4.727501   3.878691   2.338147   5.826231   5.405016
    24  C    3.654676   2.573187   1.390892   4.676772   4.489153
    25  H    2.392914   3.553376   2.115667   3.396862   3.231649
    26  H    4.762279   5.322755   3.371945   5.834278   5.232214
    27  H    5.617924   4.524748   3.247377   6.682273   6.240049
    28  O    6.191105   5.864232   4.003197   7.340463   6.673926
    29  O    4.117076   2.506966   2.306818   4.951512   4.907325
                   11         12         13         14         15
    11  O    0.000000
    12  C    3.197768   0.000000
    13  H    2.616532   2.145960   0.000000
    14  O    3.951038   1.427826   3.355293   0.000000
    15  H    2.935250   1.093943   2.567600   2.059617   0.000000
    16  H    4.103643   1.095070   2.421509   2.038073   1.775723
    17  H    0.981042   3.849386   2.688578   4.727102   3.680309
    18  H    3.573500   5.332857   3.674953   5.981255   5.716610
    19  H    4.496018   1.927945   3.495711   0.974452   2.835136
    20  C    5.306028   4.563793   4.749272   3.985362   5.457552
    21  C    6.489310   5.803140   6.083398   5.052678   6.677103
    22  C    7.173212   6.956629   6.884550   6.358462   7.809239
    23  N    6.680560   6.888880   6.405993   6.558317   7.708810
    24  C    5.525343   5.885997   5.151480   5.787395   6.677747
    25  H    5.023209   3.744125   4.343059   3.001489   4.659349
    26  H    7.152300   6.166963   6.761581   5.208666   7.025568
    27  H    7.380064   7.816897   7.188055   7.538939   8.612741
    28  O    8.320221   8.083800   8.101042   7.383756   8.930603
    29  O    5.499694   6.332932   5.200410   6.478134   7.040022
                   16         17         18         19         20
    16  H    0.000000
    17  H    4.630140   0.000000
    18  H    5.909441   2.919037   0.000000
    19  H    2.220166   5.161403   5.944349   0.000000
    20  C    5.053097   5.620483   4.818888   3.367708   0.000000
    21  C    6.279104   6.806290   5.805634   4.410813   1.334961
    22  C    7.454625   7.330015   5.805244   5.749686   2.418701
    23  N    7.402575   6.664169   4.742155   6.012842   2.711634
    24  C    6.400184   5.430759   3.453020   5.313333   2.418352
    25  H    4.202822   5.483067   5.213198   2.333134   1.084729
    26  H    6.605762   7.574382   6.816476   4.550629   2.130569
    27  H    8.333339   7.272825   5.094910   7.009364   3.719708
    28  O    8.573535   8.492698   6.928184   6.761622   3.533049
    29  O    6.840507   5.190045   2.704931   6.093692   3.552738
                   21         22         23         24         25
    21  C    0.000000
    22  C    1.471149   0.000000
    23  N    2.402049   1.364389   0.000000
    24  C    2.813986   2.433773   1.368501   0.000000
    25  H    2.102398   3.417431   3.795551   3.381080   0.000000
    26  H    1.081859   2.194016   3.371879   3.895065   2.476820
    27  H    3.316408   2.031043   1.008109   2.036627   4.803557
    28  O    2.351525   1.224514   2.276764   3.548605   4.442821
    29  O    4.043329   3.536961   2.262419   1.230306   4.417174
                   26         27         28         29
    26  H    0.000000
    27  H    4.201442   0.000000
    28  O    2.609541   2.492709   0.000000
    29  O    5.124008   2.466563   4.538577   0.000000
 Stoichiometry    C9H12N2O6
 Framework group  C1[X(C9H12N2O6)]
 Deg. of freedom    81
 Full point group                 C1      NOp   1
 Largest Abelian subgroup         C1      NOp   1
 Largest concise Abelian subgroup C1      NOp   1
                         Standard orientation:                         
 ---------------------------------------------------------------------
 Center     Atomic      Atomic             Coordinates (Angstroms)
 Number     Number       Type             X           Y           Z
 ---------------------------------------------------------------------
      1          6           0       -2.199876   -0.328836    0.799542
      2          6           0       -1.057032   -1.256461    0.420544
      3          6           0       -0.357449   -0.495694   -0.726617
      4          8           0       -1.597755   -2.512074   -0.033843
      5          1           0       -0.413175   -1.477658    1.277826
      6          8           0       -1.205704    0.604733   -1.119515
      7          1           0       -0.268149   -1.146206   -1.606354
      8          7           0        0.983413   -0.049467   -0.368284
      9          6           0       -2.499208    0.354887   -0.526193
     10          1           0       -1.858940    0.396613    1.546807
     11          8           0       -3.316034   -1.045429    1.313541
     12          6           0       -3.267399    1.665204   -0.382284
     13          1           0       -3.066382   -0.314256   -1.186320
     14          8           0       -2.455236    2.659155    0.243128
     15          1           0       -4.179200    1.532791    0.207460
     16          1           0       -3.545924    2.052328   -1.368052
     17          1           0       -3.241252   -1.949682    0.940474
     18          1           0       -0.826883   -3.074700   -0.253650
     19          1           0       -1.710654    2.802454   -0.368935
     20          6           0        1.265805    1.260979   -0.043353
     21          6           0        2.496244    1.654232    0.293538
     22          6           0        3.580300    0.660052    0.320124
     23          7           0        3.220832   -0.617487    0.003527
     24          6           0        1.960738   -1.038179   -0.325071
     25          1           0        0.450697    1.976190   -0.070001
     26          1           0        2.744334    2.675452    0.550401
     27          1           0        3.946623   -1.316608    0.030720
     28          8           0        4.724610    0.977362    0.618964
     29          8           0        1.725925   -2.226890   -0.538333
 ---------------------------------------------------------------------
 Rotational constants (GHZ):           0.8321113           0.3066648           0.2452702
 Standard basis: Aug-CC-pVDZ (5D, 7F)
 There are   533 symmetry adapted cartesian basis functions of A   symmetry.
 There are   499 symmetry adapted basis functions of A   symmetry.
   499 basis functions,   863 primitive gaussians,   533 cartesian basis functions
    64 alpha electrons       64 beta electrons
       nuclear repulsion energy      1314.3586870739 Hartrees.
 NAtoms=   29 NActive=   29 NUniq=   29 SFac= 1.00D+00 NAtFMM=   60 NAOKFM=F Big=F
 Integral buffers will be    131072 words long.
 Raffenetti 2 integral format.
 Two-electron integral symmetry is turned on.
 Nuclear repulsion after empirical dispersion term =     1314.3386096141 Hartrees.
 One-electron integrals computed using PRISM.
 NBasis=   499 RedAO= T EigKep=  3.05D-06  NBF=   499
 NBsUse=   499 1.00D-06 EigRej= -1.00D+00 NBFU=   499
 ExpMin= 2.97D-02 ExpMax= 1.17D+04 ExpMxC= 4.01D+02 IAcc=3 IRadAn=         5 AccDes= 0.00D+00
 Harris functional with IExCor= 1009 and IRadAn=       5 diagonalized for initial guess.
 HarFok:  IExCor= 1009 AccDes= 0.00D+00 IRadAn=         5 IDoV= 1 UseB2=F ITyADJ=14
 ICtDFT=  3500011 ScaDFX=  1.000000  1.000000  1.000000  1.000000
 FoFCou: FMM=F IPFlag=           0 FMFlag=      100000 FMFlg1=           0
         NFxFlg=           0 DoJE=T BraDBF=F KetDBF=T FulRan=T
         wScrn=  0.000000 ICntrl=       500 IOpCl=  0 I1Cent=   200000004 NGrid=           0
         NMat0=    1 NMatS0=      1 NMatT0=    0 NMatD0=    1 NMtDS0=    0 NMtDT0=    0
 Petite list used in FoFCou.
 Requested convergence on RMS density matrix=1.00D-08 within 128 cycles.
 Requested convergence on MAX density matrix=1.00D-06.
 Requested convergence on             energy=1.00D-06.
 No special actions if energy rises.
 SCF Done:  E(RPBE1PBE) =  -910.207721474     A.U. after   14 cycles
            NFock= 14  Conv=0.45D-08     -V/T= 2.0056

 **********************************************************************

            Population analysis using the SCF Density.

 **********************************************************************

 Orbital symmetries:
       Occupied  (A) (A) (A) (A) (A) (A) (A) (A) (A) (A) (A) (A)
                 (A) (A) (A) (A) (A) (A) (A) (A) (A) (A) (A) (A)
                 (A) (A) (A) (A) (A) (A) (A) (A) (A) (A) (A) (A)
                 (A) (A) (A) (A) (A) (A) (A) (A) (A) (A) (A) (A)
                 (A) (A) (A) (A) (A) (A) (A) (A) (A) (A) (A) (A)
                 (A) (A) (A) (A)
       Virtual   (A) (A) (A) (A) (A) (A) (A) (A) (A) (A) (A) (A)
                 (A) (A) (A) (A) (A) (A) (A) (A) (A) (A) (A) (A)
                 (A) (A) (A) (A) (A) (A) (A) (A) (A) (A) (A) (A)
                 (A) (A) (A) (A) (A) (A) (A) (A) (A) (A) (A) (A)
                 (A) (A) (A) (A) (A) (A) (A) (A) (A) (A) (A) (A)
                 (A) (A) (A) (A) (A) (A) (A) (A) (A) (A) (A) (A)
                 (A) (A) (A) (A) (A) (A) (A) (A) (A) (A) (A) (A)
                 (A) (A) (A) (A) (A) (A) (A) (A) (A) (A) (A) (A)
                 (A) (A) (A) (A) (A) (A) (A) (A) (A) (A) (A) (A)
                 (A) (A) (A) (A) (A) (A) (A) (A) (A) (A) (A) (A)
                 (A) (A) (A) (A) (A) (A) (A) (A) (A) (A) (A) (A)
                 (A) (A) (A) (A) (A) (A) (A) (A) (A) (A) (A) (A)
                 (A) (A) (A) (A) (A) (A) (A) (A) (A) (A) (A) (A)
                 (A) (A) (A) (A) (A) (A) (A) (A) (A) (A) (A) (A)
                 (A) (A) (A) (A) (A) (A) (A) (A) (A) (A) (A) (A)
                 (A) (A) (A) (A) (A) (A) (A) (A) (A) (A) (A) (A)
                 (A) (A) (A) (A) (A) (A) (A) (A) (A) (A) (A) (A)
                 (A) (A) (A) (A) (A) (A) (A) (A) (A) (A) (A) (A)
                 (A) (A) (A) (A) (A) (A) (A) (A) (A) (A) (A) (A)
                 (A) (A) (A) (A) (A) (A) (A) (A) (A) (A) (A) (A)
                 (A) (A) (A) (A) (A) (A) (A) (A) (A) (A) (A) (A)
                 (A) (A) (A) (A) (A) (A) (A) (A) (A) (A) (A) (A)
                 (A) (A) (A) (A) (A) (A) (A) (A) (A) (A) (A) (A)
                 (A) (A) (A) (A) (A) (A) (A) (A) (A) (A) (A) (A)
                 (A) (A) (A) (A) (A) (A) (A) (A) (A) (A) (A) (A)
                 (A) (A) (A) (A) (A) (A) (A) (A) (A) (A) (A) (A)
                 (A) (A) (A) (A) (A) (A) (A) (A) (A) (A) (A) (A)
                 (A) (A) (A) (A) (A) (A) (A) (A) (A) (A) (A) (A)
                 (A) (A) (A) (A) (A) (A) (A) (A) (A) (A) (A) (A)
                 (A) (A) (A) (A) (A) (A) (A) (A) (A) (A) (A) (A)
                 (A) (A) (A) (A) (A) (A) (A) (A) (A) (A) (A) (A)
                 (A) (A) (A) (A) (A) (A) (A) (A) (A) (A) (A) (A)
                 (A) (A) (A) (A) (A) (A) (A) (A) (A) (A) (A) (A)
                 (A) (A) (A) (A) (A) (A) (A) (A) (A) (A) (A) (A)
                 (A) (A) (A) (A) (A) (A) (A) (A) (A) (A) (A) (A)
                 (A) (A) (A) (A) (A) (A) (A) (A) (A) (A) (A) (A)
                 (A) (A) (A)
 The electronic state is 1-A.
 Alpha  occ. eigenvalues --  -19.27962 -19.26483 -19.24355 -19.24184 -19.23231
 Alpha  occ. eigenvalues --  -19.20935 -14.49523 -14.47566 -10.40969 -10.36235
 Alpha  occ. eigenvalues --  -10.36198 -10.32224 -10.31877 -10.30731 -10.30656
 Alpha  occ. eigenvalues --  -10.29682 -10.26247  -1.14227  -1.12274  -1.09156
 Alpha  occ. eigenvalues --   -1.08966  -1.06868  -1.06091  -1.03269  -0.99048
 Alpha  occ. eigenvalues --   -0.85275  -0.82583  -0.80420  -0.73670  -0.73140
 Alpha  occ. eigenvalues --   -0.69181  -0.65884  -0.64196  -0.61602  -0.59799
 Alpha  occ. eigenvalues --   -0.58439  -0.56706  -0.55632  -0.52836  -0.52572
 Alpha  occ. eigenvalues --   -0.51319  -0.50577  -0.50016  -0.49209  -0.48784
 Alpha  occ. eigenvalues --   -0.45774  -0.45627  -0.44731  -0.44086  -0.43595
 Alpha  occ. eigenvalues --   -0.42747  -0.41613  -0.40349  -0.39682  -0.37398
 Alpha  occ. eigenvalues --   -0.35975  -0.33944  -0.33151  -0.32820  -0.32140
 Alpha  occ. eigenvalues --   -0.31287  -0.29620  -0.29054  -0.27241
 Alpha virt. eigenvalues --   -0.05232  -0.01728  -0.01512  -0.00836  -0.00119
 Alpha virt. eigenvalues --    0.00198   0.01509   0.01782   0.02250   0.03158
 Alpha virt. eigenvalues --    0.03677   0.03736   0.04641   0.05272   0.05823
 Alpha virt. eigenvalues --    0.06000   0.06272   0.06861   0.07553   0.07849
 Alpha virt. eigenvalues --    0.08087   0.08120   0.08575   0.09122   0.09304
 Alpha virt. eigenvalues --    0.09459   0.09737   0.10563   0.10653   0.11155
 Alpha virt. eigenvalues --    0.11268   0.11486   0.11858   0.11934   0.12178
 Alpha virt. eigenvalues --    0.12449   0.12717   0.12972   0.13279   0.13677
 Alpha virt. eigenvalues --    0.14306   0.14525   0.15090   0.15287   0.15717
 Alpha virt. eigenvalues --    0.16226   0.16701   0.16806   0.17797   0.17986
 Alpha virt. eigenvalues --    0.18082   0.18406   0.18770   0.19720   0.20107
 Alpha virt. eigenvalues --    0.20423   0.20760   0.21000   0.21069   0.21610
 Alpha virt. eigenvalues --    0.21935   0.22127   0.22354   0.22724   0.23062
 Alpha virt. eigenvalues --    0.23665   0.24216   0.24376   0.24562   0.24881
 Alpha virt. eigenvalues --    0.25492   0.25650   0.26111   0.26373   0.26804
 Alpha virt. eigenvalues --    0.27271   0.27287   0.27653   0.27884   0.28018
 Alpha virt. eigenvalues --    0.28396   0.28620   0.29153   0.29399   0.29717
 Alpha virt. eigenvalues --    0.29838   0.30357   0.31401   0.31621   0.31829
 Alpha virt. eigenvalues --    0.32559   0.33085   0.33219   0.33444   0.33989
 Alpha virt. eigenvalues --    0.34291   0.34434   0.34468   0.34991   0.35630
 Alpha virt. eigenvalues --    0.36147   0.36578   0.37067   0.37467   0.37771
 Alpha virt. eigenvalues --    0.38366   0.38956   0.39367   0.39818   0.40645
 Alpha virt. eigenvalues --    0.40861   0.41527   0.42228   0.42546   0.43204
 Alpha virt. eigenvalues --    0.43767   0.44238   0.44626   0.45095   0.45468
 Alpha virt. eigenvalues --    0.46257   0.46403   0.46859   0.47363   0.48209
 Alpha virt. eigenvalues --    0.48621   0.49039   0.49423   0.49803   0.51170
 Alpha virt. eigenvalues --    0.51329   0.51738   0.52147   0.52895   0.53486
 Alpha virt. eigenvalues --    0.53646   0.54153   0.54667   0.55276   0.55421
 Alpha virt. eigenvalues --    0.55669   0.57054   0.57683   0.58122   0.58629
 Alpha virt. eigenvalues --    0.59503   0.59834   0.60034   0.61253   0.61640
 Alpha virt. eigenvalues --    0.62316   0.62441   0.63111   0.63443   0.64438
 Alpha virt. eigenvalues --    0.64755   0.65151   0.65680   0.66556   0.66985
 Alpha virt. eigenvalues --    0.67129   0.67455   0.67959   0.68442   0.68928
 Alpha virt. eigenvalues --    0.69287   0.69679   0.69862   0.70763   0.71327
 Alpha virt. eigenvalues --    0.71927   0.72213   0.72647   0.73864   0.73947
 Alpha virt. eigenvalues --    0.74504   0.74889   0.75346   0.76661   0.77088
 Alpha virt. eigenvalues --    0.77501   0.78194   0.78669   0.78926   0.79844
 Alpha virt. eigenvalues --    0.80003   0.80379   0.81619   0.81795   0.82373
 Alpha virt. eigenvalues --    0.82847   0.83363   0.83969   0.85484   0.86017
 Alpha virt. eigenvalues --    0.86912   0.87761   0.88171   0.89686   0.90837
 Alpha virt. eigenvalues --    0.91073   0.92619   0.92987   0.93518   0.94265
 Alpha virt. eigenvalues --    0.95504   0.95796   0.96868   0.97251   0.97882
 Alpha virt. eigenvalues --    0.99080   1.00314   1.01368   1.02133   1.02701
 Alpha virt. eigenvalues --    1.03837   1.04367   1.05804   1.06110   1.06730
 Alpha virt. eigenvalues --    1.06887   1.07715   1.08572   1.09198   1.11265
 Alpha virt. eigenvalues --    1.11719   1.12593   1.13929   1.15081   1.15658
 Alpha virt. eigenvalues --    1.16009   1.17443   1.17773   1.18736   1.19589
 Alpha virt. eigenvalues --    1.20424   1.21353   1.22123   1.22400   1.22915
 Alpha virt. eigenvalues --    1.23137   1.24484   1.25521   1.26324   1.27872
 Alpha virt. eigenvalues --    1.30738   1.30806   1.31146   1.32370   1.33536
 Alpha virt. eigenvalues --    1.33901   1.36308   1.37389   1.37909   1.39732
 Alpha virt. eigenvalues --    1.40550   1.40954   1.41764   1.42725   1.44942
 Alpha virt. eigenvalues --    1.45516   1.46857   1.48062   1.48316   1.48596
 Alpha virt. eigenvalues --    1.49175   1.51075   1.51322   1.51939   1.53297
 Alpha virt. eigenvalues --    1.53922   1.54194   1.55335   1.56535   1.57071
 Alpha virt. eigenvalues --    1.57337   1.58037   1.59273   1.59778   1.60435
 Alpha virt. eigenvalues --    1.62502   1.62848   1.64766   1.65550   1.66347
 Alpha virt. eigenvalues --    1.67670   1.69436   1.70286   1.70933   1.71743
 Alpha virt. eigenvalues --    1.72017   1.73402   1.74288   1.74587   1.75561
 Alpha virt. eigenvalues --    1.76837   1.77163   1.77410   1.79253   1.80602
 Alpha virt. eigenvalues --    1.82401   1.82838   1.83377   1.83988   1.84322
 Alpha virt. eigenvalues --    1.85647   1.86469   1.86752   1.88751   1.89370
 Alpha virt. eigenvalues --    1.90580   1.91359   1.92429   1.93835   1.95157
 Alpha virt. eigenvalues --    1.96862   1.98100   1.98851   2.00475   2.00893
 Alpha virt. eigenvalues --    2.02283   2.03132   2.03518   2.04626   2.05188
 Alpha virt. eigenvalues --    2.05374   2.06682   2.07800   2.09459   2.11287
 Alpha virt. eigenvalues --    2.11772   2.12461   2.13180   2.14166   2.15649
 Alpha virt. eigenvalues --    2.17550   2.18100   2.20322   2.20595   2.21384
 Alpha virt. eigenvalues --    2.23064   2.24189   2.25480   2.26078   2.26831
 Alpha virt. eigenvalues --    2.28631   2.29449   2.29889   2.31839   2.32620
 Alpha virt. eigenvalues --    2.34911   2.35908   2.38185   2.39340   2.41092
 Alpha virt. eigenvalues --    2.42214   2.42649   2.44379   2.46549   2.47606
 Alpha virt. eigenvalues --    2.48505   2.49904   2.51420   2.52524   2.54222
 Alpha virt. eigenvalues --    2.55590   2.57375   2.58330   2.59557   2.60901
 Alpha virt. eigenvalues --    2.62119   2.62968   2.65546   2.66063   2.68317
 Alpha virt. eigenvalues --    2.69322   2.71303   2.73432   2.75999   2.76474
 Alpha virt. eigenvalues --    2.79586   2.80836   2.81190   2.84012   2.85596
 Alpha virt. eigenvalues --    2.87928   2.89464   2.94580   2.98908   2.99737
 Alpha virt. eigenvalues --    3.01648   3.10507   3.11923   3.15967   3.18601
 Alpha virt. eigenvalues --    3.23128   3.29800   3.31601   3.36306   3.38496
 Alpha virt. eigenvalues --    3.39263   3.40024   3.41897   3.43166   3.43951
 Alpha virt. eigenvalues --    3.44725   3.45067   3.46888   3.47859   3.49274
 Alpha virt. eigenvalues --    3.49992   3.53403   3.53720   3.54252   3.57640
 Alpha virt. eigenvalues --    3.58642   3.59201   3.61804   3.63611   3.64918
 Alpha virt. eigenvalues --    3.67415   3.69604   3.71990   3.73942   3.75721
 Alpha virt. eigenvalues --    3.76647   3.80901   3.83540   3.87473   3.97465
 Alpha virt. eigenvalues --    4.02115   4.04290   4.11176   4.17808   4.70120
          Condensed to atoms (all electrons):
               1          2          3          4          5          6
     1  C    8.989605  -2.778506   1.197786   0.112192   0.480424   0.060786
     2  C   -2.778506  11.020599  -3.827187  -0.710457  -1.597581  -0.077897
     3  C    1.197786  -3.827187  12.600578   0.313262   0.828512   0.003994
     4  O    0.112192  -0.710457   0.313262   8.683472   0.041075   0.011746
     5  H    0.480424  -1.597581   0.828512   0.041075   2.394799   0.046498
     6  O    0.060786  -0.077897   0.003994   0.011746   0.046498   9.498489
     7  H    0.013314   0.180553  -0.585985  -0.009133   0.103173  -0.315286
     8  N   -0.127022   0.952042  -1.491436  -0.037376  -0.393838  -0.150820
     9  C   -1.619182   0.613438  -2.081711   0.047953   0.018106   0.007189
    10  H   -0.875991   0.605079  -0.391542  -0.004392  -0.207304  -0.005620
    11  O   -0.292244   0.051635   0.091169  -0.030085   0.016116  -0.002500
    12  C    0.235442  -0.492181   0.283763   0.022119   0.028649  -0.149204
    13  H    0.225234   0.081919   0.158347  -0.021103  -0.007186  -0.052844
    14  O   -0.018792  -0.011300  -0.047421   0.000110  -0.001835  -0.057491
    15  H   -0.085877   0.117594   0.038451  -0.001192   0.006145   0.085673
    16  H   -0.006189  -0.054174  -0.024875   0.001003  -0.001264  -0.058349
    17  H   -0.162798   0.015577  -0.025393   0.028986  -0.002711   0.001096
    18  H   -0.040713   0.135728  -0.064195   0.307842  -0.081282   0.000357
    19  H    0.067585  -0.008874   0.046912  -0.001079   0.003136   0.052640
    20  C   -0.286637   0.719917  -1.866424  -0.037035  -0.135023   0.230748
    21  C    0.073276  -0.087116   0.171983   0.008093   0.017021  -0.003121
    22  C   -0.015116   0.021669  -0.161536  -0.003677  -0.005314   0.000365
    23  N   -0.021606   0.090410  -0.144199  -0.007118  -0.010570   0.001289
    24  C   -0.000971  -0.152815   0.132517   0.025375   0.008960  -0.109171
    25  H   -0.075185  -0.066507  -0.056567   0.003137  -0.018560  -0.196372
    26  H    0.002870  -0.003431   0.027438   0.000053   0.000219  -0.000499
    27  H    0.002081  -0.010684   0.003587   0.000500  -0.001011  -0.000313
    28  O   -0.000092   0.002375   0.000665  -0.000001   0.000829   0.000684
    29  O   -0.013513  -0.049976   0.168000   0.005016   0.021357  -0.000525
               7          8          9         10         11         12
     1  C    0.013314  -0.127022  -1.619182  -0.875991  -0.292244   0.235442
     2  C    0.180553   0.952042   0.613438   0.605079   0.051635  -0.492181
     3  C   -0.585985  -1.491436  -2.081711  -0.391542   0.091169   0.283763
     4  O   -0.009133  -0.037376   0.047953  -0.004392  -0.030085   0.022119
     5  H    0.103173  -0.393838   0.018106  -0.207304   0.016116   0.028649
     6  O   -0.315286  -0.150820   0.007189  -0.005620  -0.002500  -0.149204
     7  H    2.094161  -0.148810   0.139509  -0.024140   0.006900  -0.001561
     8  N   -0.148810   8.563055   0.203496   0.055347  -0.018486  -0.019457
     9  C    0.139509   0.203496   8.900936   0.210971   0.051466  -0.298506
    10  H   -0.024140   0.055347   0.210971   2.121212  -0.168244  -0.104501
    11  O    0.006900  -0.018486   0.051466  -0.168244   8.605373   0.033805
    12  C   -0.001561  -0.019457  -0.298506  -0.104501   0.033805   5.101032
    13  H   -0.016215  -0.021557  -1.056040   0.113393  -0.027345  -0.040923
    14  O    0.001062   0.011129   0.013760   0.020236   0.003124   0.172586
    15  H   -0.001375   0.001756  -0.052781  -0.035654   0.019903  -0.041388
    16  H    0.000691  -0.001872   0.280832   0.015740  -0.000783   0.115823
    17  H   -0.004728   0.003668   0.074683   0.025552   0.333653  -0.017695
    18  H   -0.010643   0.018585  -0.024877   0.006341   0.003089  -0.004585
    19  H    0.000420  -0.009621  -0.142598  -0.002363  -0.000088  -0.011366
    20  C   -0.068351   0.273948   0.361721   0.091313  -0.015976  -0.123061
    21  C   -0.022320  -0.264790  -0.054013  -0.012221   0.000786   0.023466
    22  C    0.004920  -0.169627  -0.002483   0.003587   0.000190  -0.008152
    23  N   -0.000283   0.016020   0.008199  -0.000210   0.000370  -0.002606
    24  C    0.142170  -0.330337  -0.210467  -0.007655   0.000862   0.002032
    25  H    0.031024   0.037963  -0.007768  -0.005807  -0.000634   0.037587
    26  H   -0.001108   0.032583  -0.009139   0.000582   0.000027  -0.001264
    27  H    0.002884   0.066440  -0.001934   0.000052   0.000007  -0.000105
    28  O   -0.000458  -0.002649   0.000641  -0.000185  -0.000003   0.000047
    29  O    0.045177  -0.183450   0.026948  -0.000046   0.000200   0.000062
              13         14         15         16         17         18
     1  C    0.225234  -0.018792  -0.085877  -0.006189  -0.162798  -0.040713
     2  C    0.081919  -0.011300   0.117594  -0.054174   0.015577   0.135728
     3  C    0.158347  -0.047421   0.038451  -0.024875  -0.025393  -0.064195
     4  O   -0.021103   0.000110  -0.001192   0.001003   0.028986   0.307842
     5  H   -0.007186  -0.001835   0.006145  -0.001264  -0.002711  -0.081282
     6  O   -0.052844  -0.057491   0.085673  -0.058349   0.001096   0.000357
     7  H   -0.016215   0.001062  -0.001375   0.000691  -0.004728  -0.010643
     8  N   -0.021557   0.011129   0.001756  -0.001872   0.003668   0.018585
     9  C   -1.056040   0.013760  -0.052781   0.280832   0.074683  -0.024877
    10  H    0.113393   0.020236  -0.035654   0.015740   0.025552   0.006341
    11  O   -0.027345   0.003124   0.019903  -0.000783   0.333653   0.003089
    12  C   -0.040923   0.172586  -0.041388   0.115823  -0.017695  -0.004585
    13  H    2.290084   0.018125  -0.032501  -0.085793  -0.001683   0.004550
    14  O    0.018125   8.336371  -0.160421  -0.031674  -0.000394   0.000008
    15  H   -0.032501  -0.160421   1.757654  -0.354839  -0.000045  -0.000118
    16  H   -0.085793  -0.031674  -0.354839   1.495174  -0.001377  -0.000537
    17  H   -0.001683  -0.000394  -0.000045  -0.001377   0.583084  -0.001663
    18  H    0.004550   0.000008  -0.000118  -0.000537  -0.001663   0.566395
    19  H    0.017861   0.275037   0.036100  -0.056049  -0.000841   0.000228
    20  C    0.006111   0.002561  -0.007777   0.008096   0.002367   0.005795
    21  C   -0.006068  -0.002122   0.000337   0.004120   0.000320   0.000487
    22  C    0.001375   0.002287  -0.000458  -0.000147  -0.000373   0.000807
    23  N    0.000860  -0.000062  -0.000073  -0.000223   0.000135   0.003105
    24  C    0.002716   0.002079   0.001852  -0.001647  -0.004498  -0.000092
    25  H   -0.018181   0.016684   0.004219   0.007807   0.003170  -0.001855
    26  H    0.000423   0.001068  -0.000150  -0.000133  -0.000080   0.000004
    27  H   -0.000014   0.000087  -0.000000  -0.000006  -0.000050  -0.000170
    28  O    0.000017  -0.000025   0.000006  -0.000004  -0.000002   0.000041
    29  O    0.000435  -0.000068   0.000048   0.000057   0.000058   0.006307
              19         20         21         22         23         24
     1  C    0.067585  -0.286637   0.073276  -0.015116  -0.021606  -0.000971
     2  C   -0.008874   0.719917  -0.087116   0.021669   0.090410  -0.152815
     3  C    0.046912  -1.866424   0.171983  -0.161536  -0.144199   0.132517
     4  O   -0.001079  -0.037035   0.008093  -0.003677  -0.007118   0.025375
     5  H    0.003136  -0.135023   0.017021  -0.005314  -0.010570   0.008960
     6  O    0.052640   0.230748  -0.003121   0.000365   0.001289  -0.109171
     7  H    0.000420  -0.068351  -0.022320   0.004920  -0.000283   0.142170
     8  N   -0.009621   0.273948  -0.264790  -0.169627   0.016020  -0.330337
     9  C   -0.142598   0.361721  -0.054013  -0.002483   0.008199  -0.210467
    10  H   -0.002363   0.091313  -0.012221   0.003587  -0.000210  -0.007655
    11  O   -0.000088  -0.015976   0.000786   0.000190   0.000370   0.000862
    12  C   -0.011366  -0.123061   0.023466  -0.008152  -0.002606   0.002032
    13  H    0.017861   0.006111  -0.006068   0.001375   0.000860   0.002716
    14  O    0.275037   0.002561  -0.002122   0.002287  -0.000062   0.002079
    15  H    0.036100  -0.007777   0.000337  -0.000458  -0.000073   0.001852
    16  H   -0.056049   0.008096   0.004120  -0.000147  -0.000223  -0.001647
    17  H   -0.000841   0.002367   0.000320  -0.000373   0.000135  -0.004498
    18  H    0.000228   0.005795   0.000487   0.000807   0.003105  -0.000092
    19  H    0.558941   0.006390   0.005434   0.000590  -0.000682  -0.001109
    20  C    0.006390   9.687591  -2.157563   0.191313   0.156879  -1.236957
    21  C    0.005434  -2.157563   9.268897  -1.682345  -0.022774   0.449548
    22  C    0.000590   0.191313  -1.682345   7.668779   0.202692  -0.357974
    23  N   -0.000682   0.156879  -0.022774   0.202692   7.088352  -0.203760
    24  C   -0.001109  -1.236957   0.449548  -0.357974  -0.203760   7.159185
    25  H   -0.035253  -0.966364   0.000347  -0.207819   0.029782   0.018794
    26  H    0.000031   0.532194  -0.855044   0.198813  -0.062898  -0.033844
    27  H   -0.000047  -0.028440   0.022331  -0.160588   0.423620  -0.284053
    28  O   -0.000057   0.084833  -0.122686   0.150468  -0.113821   0.040424
    29  O   -0.000207  -0.062421   0.026359  -0.027002  -0.269433   0.323706
              25         26         27         28         29
     1  C   -0.075185   0.002870   0.002081  -0.000092  -0.013513
     2  C   -0.066507  -0.003431  -0.010684   0.002375  -0.049976
     3  C   -0.056567   0.027438   0.003587   0.000665   0.168000
     4  O    0.003137   0.000053   0.000500  -0.000001   0.005016
     5  H   -0.018560   0.000219  -0.001011   0.000829   0.021357
     6  O   -0.196372  -0.000499  -0.000313   0.000684  -0.000525
     7  H    0.031024  -0.001108   0.002884  -0.000458   0.045177
     8  N    0.037963   0.032583   0.066440  -0.002649  -0.183450
     9  C   -0.007768  -0.009139  -0.001934   0.000641   0.026948
    10  H   -0.005807   0.000582   0.000052  -0.000185  -0.000046
    11  O   -0.000634   0.000027   0.000007  -0.000003   0.000200
    12  C    0.037587  -0.001264  -0.000105   0.000047   0.000062
    13  H   -0.018181   0.000423  -0.000014   0.000017   0.000435
    14  O    0.016684   0.001068   0.000087  -0.000025  -0.000068
    15  H    0.004219  -0.000150  -0.000000   0.000006   0.000048
    16  H    0.007807  -0.000133  -0.000006  -0.000004   0.000057
    17  H    0.003170  -0.000080  -0.000050  -0.000002   0.000058
    18  H   -0.001855   0.000004  -0.000170   0.000041   0.006307
    19  H   -0.035253   0.000031  -0.000047  -0.000057  -0.000207
    20  C   -0.966364   0.532194  -0.028440   0.084833  -0.062421
    21  C    0.000347  -0.855044   0.022331  -0.122686   0.026359
    22  C   -0.207819   0.198813  -0.160588   0.150468  -0.027002
    23  N    0.029782  -0.062898   0.423620  -0.113821  -0.269433
    24  C    0.018794  -0.033844  -0.284053   0.040424   0.323706
    25  H    3.451555  -0.253291  -0.000662   0.006517   0.000269
    26  H   -0.253291   2.050431   0.010974  -0.027262   0.000903
    27  H   -0.000662   0.010974   1.111328  -0.051193  -0.000631
    28  O    0.006517  -0.027262  -0.051193   8.692762  -0.001714
    29  O    0.000269   0.000903  -0.000631  -0.001714   8.652985
 Mulliken charges:
               1
     1  C    0.959838
     2  C    1.320147
     3  C    0.701506
     4  O   -0.749285
     5  H   -0.551539
     6  O   -0.821541
     7  H   -0.555563
     8  N    0.135116
     9  C    0.601650
    10  H   -0.423530
    11  O   -0.662288
    12  C    1.260141
    13  H   -0.533995
    14  O   -0.544710
    15  H   -0.295089
    16  H   -0.249410
    17  H    0.151977
    18  H    0.171062
    19  H    0.198930
    20  C    0.630253
    21  C    1.219379
    22  C    0.354759
    23  N   -0.161394
    24  C    0.625131
    25  H   -0.738029
    26  H   -0.610470
    27  H   -0.103991
    28  O   -0.660157
    29  O   -0.668901
 Sum of Mulliken charges =  -0.00000
 Mulliken charges with hydrogens summed into heavy atoms:
               1
     1  C    0.536308
     2  C    0.768609
     3  C    0.145943
     4  O   -0.578223
     6  O   -0.821541
     8  N    0.135116
     9  C    0.067655
    11  O   -0.510311
    12  C    0.715642
    14  O   -0.345781
    20  C   -0.107776
    21  C    0.608910
    22  C    0.354759
    23  N   -0.265385
    24  C    0.625131
    28  O   -0.660157
    29  O   -0.668901
 Electronic spatial extent (au):  <R**2>=           4336.0225
 Charge=             -0.0000 electrons
 Dipole moment (field-independent basis, Debye):
    X=             -1.8477    Y=             -0.4992    Z=             -1.9205  Tot=              2.7114
 Quadrupole moment (field-independent basis, Debye-Ang):
   XX=           -121.4824   YY=           -100.2140   ZZ=           -101.4140
   XY=             -4.2636   XZ=              3.5040   YZ=             -3.6668
 Traceless Quadrupole moment (field-independent basis, Debye-Ang):
   XX=            -13.7789   YY=              7.4894   ZZ=              6.2895
   XY=             -4.2636   XZ=              3.5040   YZ=             -3.6668
 Octapole moment (field-independent basis, Debye-Ang**2):
  XXX=           -118.7582  YYY=            -10.6451  ZZZ=             -4.0979  XYY=              2.1341
  XXY=            -44.8696  XXZ=            -45.9937  XZZ=              0.0216  YZZ=             -3.8245
  YYZ=             -5.1338  XYZ=             -2.5632
 Hexadecapole moment (field-independent basis, Debye-Ang**3):
 XXXX=          -4465.9762 YYYY=          -1286.8442 ZZZZ=           -343.8925 XXXY=           -282.2131
 XXXZ=            -44.0730 YYYX=             98.7795 YYYZ=            -34.5295 ZZZX=              8.4004
 ZZZY=              5.7508 XXYY=           -895.0907 XXZZ=           -738.2065 YYZZ=           -277.8858
 XXYZ=            -37.1922 YYXZ=             28.5776 ZZXY=            -15.2004
 N-N= 1.314338609614D+03 E-N=-4.759403547948D+03  KE= 9.051672303446D+02
 Calling FoFJK, ICntrl=      2127 FMM=F ISym2X=0 I1Cent= 0 IOpClX= 0 NMat=1 NMatS=1 NMatT=0.
 ***** Axes restored to original set *****
 -------------------------------------------------------------------
 Center     Atomic                   Forces (Hartrees/Bohr)
 Number     Number              X              Y              Z
 -------------------------------------------------------------------
      1        6          -0.016468221   -0.005809009   -0.018296844
      2        6          -0.000036909   -0.000471010   -0.015478886
      3        6          -0.013791551    0.006344228    0.000633092
      4        8           0.012482066    0.008042553    0.005822375
      5        1           0.006205097    0.003897534    0.003759336
      6        8           0.012667985   -0.015993140   -0.008735414
      7        1           0.003538911   -0.002611479   -0.003273626
      8        7           0.001450860    0.003311862    0.005271047
      9        6          -0.004288290    0.000341870    0.011998658
     10        1          -0.001450109    0.000177057    0.002435376
     11        8           0.007184193    0.007555621   -0.003677008
     12        6           0.016847671    0.013584241    0.005492876
     13        1          -0.001832060   -0.002536267   -0.003963581
     14        8           0.002608249    0.004037251   -0.003997879
     15        1           0.001857998   -0.002974231   -0.002492091
     16        1          -0.006872588    0.002928379   -0.003650278
     17        1           0.000384262   -0.002540771    0.012576111
     18        1          -0.009192821   -0.004918586    0.009359905
     19        1          -0.005945185   -0.010627269    0.002125603
     20        6          -0.006790844   -0.000933632    0.001534744
     21        6           0.013254497    0.000961657   -0.016638317
     22        6           0.015978472    0.002267940    0.045255433
     23        7          -0.007116097    0.000687381   -0.002747944
     24        6          -0.008233567   -0.004272312   -0.014757967
     25        1          -0.006248464   -0.000774667   -0.004411514
     26        1           0.000399758    0.000069014    0.001866547
     27        1           0.000878369   -0.000445540   -0.005160249
     28        8          -0.002005064   -0.000253443   -0.012454470
     29        8          -0.005466619    0.000954767    0.011604965
 -------------------------------------------------------------------
 Cartesian Forces:  Max     0.045255433 RMS     0.008997007

 GradGradGradGradGradGradGradGradGradGradGradGradGradGradGradGradGradGrad
 Berny optimization.
 FormGI is forming the generalized inverse of G from B-inverse, IUseBI=4.
 Internal  Forces:  Max     0.021540926 RMS     0.005029131
 Search for a local minimum.
 Step number   1 out of a maximum of  173
 All quantities printed in internal units (Hartrees-Bohrs-Radians)
 Mixed Optimization -- RFO/linear search
 Second derivative matrix not updated -- first step.
 ITU=  0
     Eigenvalues ---    0.00426   0.00478   0.00916   0.00926   0.01154
     Eigenvalues ---    0.01324   0.01394   0.01495   0.01588   0.01786
     Eigenvalues ---    0.01955   0.01987   0.02089   0.02137   0.02347
     Eigenvalues ---    0.02544   0.03106   0.03702   0.04362   0.04839
     Eigenvalues ---    0.05028   0.05028   0.05426   0.05625   0.05699
     Eigenvalues ---    0.05964   0.06321   0.06587   0.07922   0.08194
     Eigenvalues ---    0.09949   0.11578   0.13208   0.13835   0.15730
     Eigenvalues ---    0.15997   0.16000   0.16000   0.16000   0.16000
     Eigenvalues ---    0.16000   0.17042   0.19149   0.19582   0.22028
     Eigenvalues ---    0.22357   0.23435   0.24600   0.24979   0.24992
     Eigenvalues ---    0.24999   0.26340   0.28875   0.29286   0.29824
     Eigenvalues ---    0.33924   0.33931   0.34144   0.34233   0.34273
     Eigenvalues ---    0.34361   0.34761   0.35429   0.35771   0.36945
     Eigenvalues ---    0.37230   0.37416   0.39499   0.41303   0.42086
     Eigenvalues ---    0.45324   0.46251   0.46291   0.49867   0.51183
     Eigenvalues ---    0.51415   0.51513   0.52477   0.56935   0.90959
     Eigenvalues ---    0.93411
 RFO step:  Lambda=-1.59010721D-02 EMin= 4.25993288D-03
 Linear search not attempted -- first point.
 Iteration  1 RMS(Cart)=  0.04069604 RMS(Int)=  0.00104017
 Iteration  2 RMS(Cart)=  0.00131077 RMS(Int)=  0.00029891
 Iteration  3 RMS(Cart)=  0.00000155 RMS(Int)=  0.00029890
 Iteration  4 RMS(Cart)=  0.00000000 RMS(Int)=  0.00029890
 Variable       Old X    -DE/DX   Delta X   Delta X   Delta X     New X
                                 (Linear)    (Quad)   (Total)
    R1        2.87227   0.00432   0.00000   0.01802   0.01797   2.89024
    R2        2.87502  -0.00097   0.00000  -0.00027  -0.00027   2.87475
    R3        2.07088   0.00089   0.00000   0.00250   0.00250   2.07338
    R4        2.68814  -0.01128   0.00000  -0.02582  -0.02582   2.66232
    R5        2.91788  -0.00460   0.00000  -0.01502  -0.01504   2.90283
    R6        2.72240  -0.01468   0.00000  -0.03574  -0.03574   2.68666
    R7        2.06872   0.00198   0.00000   0.00553   0.00553   2.07425
    R8        2.72857  -0.01636   0.00000  -0.04383  -0.04381   2.68477
    R9        2.07447  -0.00004   0.00000  -0.00010  -0.00010   2.07437
   R10        2.75501  -0.00159   0.00000  -0.00409  -0.00409   2.75092
   R11        1.85069  -0.01399   0.00000  -0.02634  -0.02634   1.82435
   R12        2.73038  -0.00453   0.00000  -0.01395  -0.01391   2.71647
   R13        2.60659  -0.00212   0.00000  -0.00534  -0.00535   2.60124
   R14        2.62840  -0.01170   0.00000  -0.02539  -0.02544   2.60296
   R15        2.88315  -0.00593   0.00000  -0.01887  -0.01887   2.86429
   R16        2.07458   0.00311   0.00000   0.00874   0.00874   2.08332
   R17        1.85390  -0.01279   0.00000  -0.02423  -0.02423   1.82967
   R18        2.69820  -0.00304   0.00000  -0.00710  -0.00710   2.69110
   R19        2.06725   0.00087   0.00000   0.00242   0.00242   2.06968
   R20        2.06938   0.00506   0.00000   0.01411   0.01411   2.08350
   R21        1.84145  -0.01228   0.00000  -0.02270  -0.02270   1.81874
   R22        2.52271   0.01634   0.00000   0.02733   0.02738   2.55009
   R23        2.04984   0.00097   0.00000   0.00263   0.00263   2.05247
   R24        2.78007  -0.00853   0.00000  -0.02118  -0.02112   2.75895
   R25        2.04442   0.00189   0.00000   0.00505   0.00505   2.04947
   R26        2.57832   0.02154   0.00000   0.04121   0.04122   2.61954
   R27        2.31400  -0.00411   0.00000  -0.00433  -0.00433   2.30967
   R28        2.58609   0.00701   0.00000   0.01321   0.01316   2.59925
   R29        1.90505   0.00451   0.00000   0.00942   0.00942   1.91447
   R30        2.32494  -0.00941   0.00000  -0.01016  -0.01016   2.31478
    A1        1.77718  -0.00258   0.00000   0.00577   0.00523   1.78241
    A2        1.91784  -0.00120   0.00000  -0.00718  -0.00726   1.91058
    A3        1.95264   0.00645   0.00000   0.04649   0.04615   1.99879
    A4        1.93682  -0.00187   0.00000  -0.03409  -0.03420   1.90263
    A5        1.96804   0.00166   0.00000   0.01407   0.01302   1.98106
    A6        1.90837  -0.00241   0.00000  -0.02326  -0.02316   1.88521
    A7        1.79797   0.00007   0.00000   0.00093   0.00067   1.79864
    A8        1.90536  -0.00173   0.00000  -0.02547  -0.02545   1.87991
    A9        1.95010   0.00118   0.00000   0.02112   0.02098   1.97108
   A10        1.94459  -0.00073   0.00000  -0.01278  -0.01295   1.93164
   A11        1.99861  -0.00291   0.00000  -0.03565  -0.03546   1.96315
   A12        1.86674   0.00388   0.00000   0.04863   0.04865   1.91539
   A13        1.88756   0.00011   0.00000  -0.00176  -0.00214   1.88542
   A14        1.91801  -0.00168   0.00000  -0.00536  -0.00546   1.91255
   A15        1.96590   0.00294   0.00000   0.00358   0.00316   1.96907
   A16        1.85599   0.00342   0.00000   0.05055   0.05050   1.90649
   A17        1.95404  -0.00442   0.00000  -0.04137  -0.04122   1.91283
   A18        1.87919  -0.00034   0.00000  -0.00256  -0.00223   1.87696
   A19        1.85049   0.00117   0.00000   0.00663   0.00663   1.85712
   A20        1.85710   0.00617   0.00000   0.02596   0.02587   1.88297
   A21        2.13765   0.00629   0.00000   0.02634   0.02635   2.16401
   A22        2.02230  -0.00956   0.00000  -0.03329  -0.03325   1.98905
   A23        2.12253   0.00325   0.00000   0.00661   0.00651   2.12904
   A24        1.83320  -0.00215   0.00000  -0.01541  -0.01519   1.81801
   A25        1.98541   0.00399   0.00000   0.02074   0.02043   2.00584
   A26        1.93018  -0.00225   0.00000  -0.01933  -0.01941   1.91077
   A27        1.91876  -0.00178   0.00000  -0.01900  -0.01876   1.90000
   A28        1.89757   0.00149   0.00000   0.01634   0.01611   1.91369
   A29        1.89659   0.00056   0.00000   0.01562   0.01577   1.91236
   A30        1.84119   0.00162   0.00000   0.00922   0.00922   1.85040
   A31        1.93133   0.00539   0.00000   0.02601   0.02491   1.95624
   A32        1.94611  -0.00554   0.00000  -0.05532  -0.05577   1.89033
   A33        1.92491  -0.00252   0.00000   0.00047  -0.00138   1.92353
   A34        1.89888  -0.00306   0.00000  -0.03509  -0.03511   1.86377
   A35        1.86803   0.00440   0.00000   0.06835   0.06742   1.93545
   A36        1.89240   0.00166   0.00000  -0.00033  -0.00048   1.89192
   A37        1.83576   0.00267   0.00000   0.01516   0.01516   1.85092
   A38        2.12705   0.00097   0.00000   0.00101   0.00105   2.12810
   A39        2.05644  -0.00830   0.00000  -0.04493  -0.04495   2.01150
   A40        2.09968   0.00733   0.00000   0.04391   0.04390   2.14358
   A41        2.07678   0.00263   0.00000   0.01324   0.01334   2.09013
   A42        2.15238  -0.00162   0.00000  -0.00837  -0.00843   2.14395
   A43        2.05402  -0.00101   0.00000  -0.00487  -0.00492   2.04910
   A44        2.02020  -0.00991   0.00000  -0.03319  -0.03312   1.98709
   A45        2.11520   0.01875   0.00000   0.06849   0.06846   2.18365
   A46        2.14775  -0.00885   0.00000  -0.03530  -0.03534   2.11241
   A47        2.19710   0.00554   0.00000   0.02473   0.02469   2.22179
   A48        2.04139  -0.00023   0.00000   0.00206   0.00208   2.04346
   A49        2.04453  -0.00531   0.00000  -0.02686  -0.02685   2.01768
   A50        2.02187  -0.00250   0.00000  -0.01293  -0.01309   2.00878
   A51        2.14996  -0.00891   0.00000  -0.03158  -0.03158   2.11838
   A52        2.11108   0.01143   0.00000   0.04491   0.04492   2.15600
    D1        0.52367  -0.00275   0.00000  -0.03675  -0.03688   0.48679
    D2       -1.54452  -0.00116   0.00000  -0.01102  -0.01131  -1.55583
    D3        2.67749  -0.00557   0.00000  -0.06770  -0.06800   2.60949
    D4       -1.53028   0.00124   0.00000   0.00238   0.00250  -1.52778
    D5        2.68471   0.00283   0.00000   0.02811   0.02807   2.71278
    D6        0.62354  -0.00158   0.00000  -0.02857  -0.02862   0.59492
    D7        2.62967   0.00079   0.00000   0.00565   0.00599   2.63566
    D8        0.56148   0.00238   0.00000   0.03138   0.03156   0.59304
    D9       -1.49969  -0.00203   0.00000  -0.02530  -0.02514  -1.52483
   D10       -0.69972   0.00421   0.00000   0.02864   0.02873  -0.67099
   D11       -2.79870   0.00556   0.00000   0.05053   0.05059  -2.74811
   D12        1.34454   0.00364   0.00000   0.02969   0.02997   1.37451
   D13        1.34053   0.00064   0.00000   0.00882   0.00885   1.34938
   D14       -0.75845   0.00199   0.00000   0.03071   0.03071  -0.72774
   D15       -2.89840   0.00007   0.00000   0.00986   0.01009  -2.88831
   D16       -2.79492  -0.00270   0.00000  -0.03689  -0.03688  -2.83180
   D17        1.38928  -0.00135   0.00000  -0.01500  -0.01502   1.37427
   D18       -0.75066  -0.00327   0.00000  -0.03584  -0.03564  -0.78630
   D19       -0.42637  -0.00066   0.00000  -0.02626  -0.02685  -0.45322
   D20        1.56463   0.00127   0.00000   0.01949   0.01991   1.58454
   D21       -2.55505  -0.00177   0.00000  -0.03195  -0.03178  -2.58683
   D22       -0.19012   0.00184   0.00000   0.04335   0.04306  -0.14706
   D23       -2.20927  -0.00138   0.00000  -0.01302  -0.01318  -2.22245
   D24        1.97876  -0.00173   0.00000  -0.00843  -0.00866   1.97011
   D25        1.85045  -0.00048   0.00000   0.00827   0.00814   1.85859
   D26       -0.16871  -0.00371   0.00000  -0.04810  -0.04809  -0.21679
   D27       -2.26386  -0.00405   0.00000  -0.04351  -0.04357  -2.30743
   D28       -2.31139   0.00194   0.00000   0.03640   0.03627  -2.27512
   D29        1.95264  -0.00129   0.00000  -0.01997  -0.01996   1.93268
   D30       -0.14251  -0.00163   0.00000  -0.01538  -0.01544  -0.15795
   D31       -3.12941  -0.00103   0.00000  -0.00839  -0.00821  -3.13762
   D32        1.17965   0.00029   0.00000   0.01209   0.01186   1.19151
   D33       -1.01665   0.00170   0.00000   0.03122   0.03128  -0.98537
   D34       -0.24716  -0.00153   0.00000  -0.03475  -0.03493  -0.28209
   D35        1.81211  -0.00164   0.00000  -0.01527  -0.01496   1.79715
   D36       -2.42312  -0.00236   0.00000  -0.01002  -0.01067  -2.43379
   D37       -1.80296   0.00016   0.00000   0.00785   0.00772  -1.79524
   D38        1.29906  -0.00009   0.00000  -0.00192  -0.00209   1.29697
   D39        0.32883  -0.00083   0.00000  -0.02268  -0.02253   0.30629
   D40       -2.85233  -0.00107   0.00000  -0.03245  -0.03234  -2.88467
   D41        2.36282   0.00065   0.00000   0.01406   0.01410   2.37691
   D42       -0.81834   0.00041   0.00000   0.00429   0.00429  -0.81405
   D43        0.59266   0.00052   0.00000   0.00878   0.00887   0.60153
   D44        2.73523   0.00303   0.00000   0.01382   0.01414   2.74937
   D45       -1.47373   0.00356   0.00000   0.03146   0.03178  -1.44195
   D46        3.13193  -0.00002   0.00000   0.00028   0.00007   3.13200
   D47       -0.01114  -0.00007   0.00000  -0.00134  -0.00142  -0.01256
   D48        0.03214   0.00052   0.00000   0.01145   0.01146   0.04361
   D49       -3.11093   0.00047   0.00000   0.00983   0.00997  -3.10096
   D50        3.13503  -0.00032   0.00000  -0.00545  -0.00541   3.12961
   D51       -0.03163   0.00050   0.00000   0.01340   0.01299  -0.01864
   D52       -0.04576  -0.00048   0.00000  -0.01463  -0.01448  -0.06024
   D53        3.07077   0.00034   0.00000   0.00422   0.00392   3.07469
   D54        1.18425  -0.00463   0.00000  -0.07928  -0.07940   1.10486
   D55       -0.93184  -0.00068   0.00000  -0.01497  -0.01495  -0.94679
   D56       -3.03534   0.00259   0.00000   0.02172   0.02157  -3.01377
   D57       -0.86581  -0.00324   0.00000  -0.06000  -0.06010  -0.92591
   D58       -2.98190   0.00071   0.00000   0.00431   0.00435  -2.97756
   D59        1.19778   0.00398   0.00000   0.04100   0.04086   1.23864
   D60       -2.94063  -0.00434   0.00000  -0.07809  -0.07797  -3.01860
   D61        1.22646  -0.00039   0.00000  -0.01377  -0.01352   1.21294
   D62       -0.87704   0.00288   0.00000   0.02291   0.02300  -0.85404
   D63        1.09946   0.00289   0.00000   0.04942   0.05044   1.14989
   D64       -3.03994  -0.00259   0.00000  -0.02632  -0.02591  -3.06585
   D65       -0.99849   0.00014   0.00000  -0.00808  -0.00951  -1.00799
   D66       -0.00137   0.00001   0.00000  -0.00114  -0.00106  -0.00243
   D67        3.13925  -0.00004   0.00000  -0.00238  -0.00231   3.13693
   D68       -3.14145   0.00007   0.00000   0.00060   0.00063  -3.14082
   D69       -0.00083   0.00003   0.00000  -0.00064  -0.00063  -0.00146
   D70       -0.01264  -0.00007   0.00000  -0.00362  -0.00353  -0.01617
   D71        3.13727  -0.00001   0.00000  -0.00364  -0.00367   3.13361
   D72        3.12988  -0.00003   0.00000  -0.00244  -0.00234   3.12754
   D73       -0.00339   0.00003   0.00000  -0.00247  -0.00248  -0.00587
   D74       -0.00363  -0.00002   0.00000  -0.00094  -0.00104  -0.00467
   D75       -3.12464   0.00017   0.00000   0.00385   0.00370  -3.12094
   D76        3.12948   0.00007   0.00000  -0.00037  -0.00037   3.12911
   D77        0.00847   0.00026   0.00000   0.00442   0.00438   0.01284
   D78        0.03199   0.00032   0.00000   0.00985   0.00985   0.04185
   D79       -3.08514  -0.00017   0.00000  -0.00738  -0.00778  -3.09292
   D80       -3.13021   0.00019   0.00000   0.00536   0.00546  -3.12475
   D81        0.03583  -0.00030   0.00000  -0.01187  -0.01217   0.02366
         Item               Value     Threshold  Converged?
 Maximum Force            0.021541     0.000450     NO 
 RMS     Force            0.005029     0.000300     NO 
 Maximum Displacement     0.189956     0.001800     NO 
 RMS     Displacement     0.040600     0.001200     NO 
 Predicted change in Energy=-8.864733D-03
 GradGradGradGradGradGradGradGradGradGradGradGradGradGradGradGradGradGrad

                          Input orientation:                          
 ---------------------------------------------------------------------
 Center     Atomic      Atomic             Coordinates (Angstroms)
 Number     Number       Type             X           Y           Z
 ---------------------------------------------------------------------
      1          6           0       -3.082795   -1.852956    0.584792
      2          6           0       -2.154673   -1.374450   -0.532725
      3          6           0       -1.798069    0.055414   -0.099175
      4          8           0       -2.903885   -1.360514   -1.740934
      5          1           0       -1.267836   -2.009845   -0.653655
      6          8           0       -2.612711    0.393164    1.014703
      7          1           0       -2.004328    0.751675   -0.922362
      8          7           0       -0.394971    0.203273    0.259409
      9          6           0       -3.697217   -0.548726    1.070264
     10          1           0       -2.485114   -2.289743    1.394617
     11          8           0       -4.037051   -2.808512    0.183379
     12          6           0       -4.241526   -0.586431    2.484370
     13          1           0       -4.494715   -0.237125    0.375794
     14          8           0       -3.218547   -0.826190    3.445622
     15          1           0       -4.947550   -1.420373    2.559138
     16          1           0       -4.781578    0.348008    2.709669
     17          1           0       -4.180402   -2.661813   -0.762866
     18          1           0       -2.300770   -1.060063   -2.432299
     19          1           0       -2.642991   -0.055252    3.419604
     20          6           0        0.065490    0.267744    1.555022
     21          6           0        1.378317    0.394372    1.840437
     22          6           0        2.352399    0.463475    0.755121
     23          7           0        1.791232    0.366879   -0.508726
     24          6           0        0.460331    0.213382   -0.820249
     25          1           0       -0.701087    0.212411    2.322456
     26          1           0        1.756791    0.450788    2.855219
     27          1           0        2.425743    0.390674   -1.298149
     28          8           0        3.559740    0.585711    0.900783
     29          8           0        0.043737    0.085869   -1.965079
 ---------------------------------------------------------------------
                    Distance matrix (angstroms):
                    1          2          3          4          5
     1  C    0.000000
     2  C    1.529451   0.000000
     3  C    2.400043   1.536113   0.000000
     4  O    2.384011   1.421718   2.433732   0.000000
     5  H    2.202826   1.097648   2.203154   2.068928   0.000000
     6  O    2.334706   2.393489   1.420718   3.279283   3.219714
     7  H    3.196671   2.166756   1.097707   2.437336   2.870648
     8  N    3.399757   2.492637   1.455723   3.569517   2.548229
     9  C    1.521254   2.372938   2.310699   3.031701   3.317930
    10  H    1.097188   2.159073   2.864123   3.297046   2.399068
    11  O    1.408838   2.472384   3.646224   2.661530   3.001175
    12  C    2.560301   3.752172   3.613468   4.499076   4.551500
    13  H    2.155947   2.755851   2.753738   2.876331   3.822964
    14  O    3.042536   4.154474   3.919256   5.223492   4.691523
    15  H    2.749997   4.166760   4.377648   4.761383   4.920347
    16  H    3.499316   4.514489   4.108107   5.123733   5.405350
    17  H    1.917074   2.411192   3.674142   2.068693   2.986642
    18  H    3.216066   1.930950   2.634477   0.965404   2.265527
    19  H    3.385458   4.195192   3.620489   5.329439   4.722597
    20  C    3.917960   3.461880   2.500860   4.725646   3.441427
    21  C    5.150596   4.608975   3.737167   5.851760   4.359229
    22  C    5.910685   5.034900   4.257079   6.098012   4.605221
    23  N    5.466223   4.313116   3.625993   5.152315   3.876560
    24  C    4.335623   3.072804   2.375978   3.826586   2.820824
    25  H    3.599687   3.575346   2.663140   4.882371   3.757241
    26  H    5.820968   5.487186   4.639159   6.791711   5.245501
    27  H    6.238856   4.968073   4.403467   5.627402   4.452009
    28  O    7.083094   6.209001   5.476061   7.248786   5.697251
    29  O    4.476168   3.002861   2.621979   3.291009   2.798583
                    6          7          8          9         10
     6  O    0.000000
     7  H    2.061766   0.000000
     8  N    2.350510   2.070593   0.000000
     9  C    1.437496   2.920184   3.482501   0.000000
    10  H    2.712674   3.853540   3.445653   2.146052   0.000000
[...]
 0.00312347,-0.00265473,-0.00075005,-0.00028544,0.00028397,0.00007485,-
 0.00001388,-0.00001617,0.00022204,0.00030193,0.00073293,-0.00064035,-0
 .00053822,0.00039046,-0.00052592,0.01115025,0.00900650,0.00010676,-0.0
 0001830,0.00000856,-0.00002545,-0.00001174,-0.00000941,-0.00011138,0.0
 0002431,0.00014796,0.00001304,0.00002797,-0.00011884,0.00004693,0.0000
 1753,-0.00001275,0.00000996,0.00001218,0.00017074,0.00001146,-0.000005
 47,-0.00000271,-0.00001291,0.00001692,0.00004100,0.00020482,0.00005917
 ,-0.00009742,0.00086777,0.00068921,0.00008441,-0.00003606,-0.00004043,
 -0.00007796,-0.00488841,-0.00204411,-0.00602342,0.00406232,0.00819592,
 -0.01010792,-0.01511985,-0.06229748,-0.03417511,0.08083981,0.10456076,
 -0.00000360,-0.00010155,-0.00051738,-0.00042253,-0.00006470,-0.0020186
 9,-0.00179565,-0.00199955,-0.00787551,-0.00241448,-0.00115897,0.002604
 50,0.00004408,0.00031317,0.00002003,0.00314006,0.00109246,0.00137355,0
 .00051638,-0.00045648,0.00038676,0.03605436,0.00712693,0.02173427,-0.0
 0043709,-0.00083324,-0.00037021,-0.00008841,-0.00004659,0.00004892,-0.
 00034898,0.00003174,0.00062053,0.00010861,0.00027718,-0.00017547,0.000
 19140,0.00003797,0.00005644,0.00014235,-0.00001627,0.00031939,0.000063
 55,-0.00000026,-0.00008235,-0.00003011,0.00001122,0.00009623,0.0005528
 8,0.00018470,-0.00023825,0.00400374,0.00201231,0.00036106,-0.00017660,
 -0.00005650,-0.00006983,-0.00775924,-0.00335469,-0.01136325,0.00111895
 ,-0.01107515,-0.04279900,-0.02016744,-0.03930703,-0.22671775,-0.095099
 76,0.13148865,0.74622721,-0.00045815,-0.00036523,0.00080176,-0.0012083
 3,-0.00093530,0.00080037,-0.03182690,0.00190474,0.03270896,0.00077665,
 0.00072845,0.00001039,0.00019401,-0.00136348,0.00034907,-0.00397946,-0
 .00189400,-0.00425580,-0.00106822,0.00108993,0.00056735,-0.19666939,-0
 .00796019,0.04165998,-0.00104008,0.00081592,0.00095463,0.00016416,0.00
 005165,-0.00005216,0.00141632,0.00063818,-0.00018294,-0.00033695,-0.00
 035937,0.00040230,-0.00006408,-0.00004415,0.00004242,0.00004503,0.0001
 0282,-0.00081856,-0.00002829,0.00005851,0.00007878,0.00001718,-0.00006
 208,-0.00018435,-0.00073036,-0.00026425,0.00003579,-0.00170695,-0.0007
 4304,-0.00222867,0.00003865,-0.00004217,0.00048004,0.05280522,0.014542
 63,0.03160455,-0.03310120,-0.00220934,0.01132579,-0.01443976,-0.019074
 53,-0.08827266,-0.29940995,-0.03040085,0.02287048,0.71866798,-0.000107
 59,-0.00029031,0.00049031,-0.00316959,0.00128789,0.00056316,0.00296335
 ,0.00131754,0.00834081,0.00131880,-0.00011039,-0.00127934,-0.00027196,
 -0.00136305,0.00052996,-0.00255582,-0.00114170,-0.00117129,-0.00054378
 ,0.00144305,-0.00053643,-0.00473637,-0.07388642,-0.01712774,0.00037706
 ,0.00127097,0.00000491,0.00006699,0.00001332,-0.00002104,0.00045781,-0
 .00015321,-0.00045902,-0.00010776,-0.00020304,0.00004722,-0.00023090,-
 0.00014893,-0.00001291,-0.00004730,-0.00007742,-0.00018849,-0.00005120
 ,-0.00000479,0.00008984,0.00004982,-0.00002284,-0.00013312,-0.00049334
 ,-0.00008636,0.00016712,-0.00234068,-0.00135406,-0.00087306,0.00009183
 ,0.00008886,0.00001788,0.00642480,-0.00207089,-0.00899229,-0.00036409,
 0.00076139,0.00117932,-0.00691402,-0.01547013,-0.00310071,-0.03989896,
 -0.06678869,-0.01522282,0.09846319,0.26064442,0.00059671,-0.00026105,0
 .00107000,-0.00220634,0.00152021,0.01033339,0.02777791,0.00546606,0.01
 928532,0.00706449,0.00271558,-0.01168289,-0.00025206,-0.00052550,0.000
 50784,-0.01103679,-0.00362852,-0.00384764,-0.00736565,0.00132504,-0.00
 151483,0.06371942,-0.01680177,-0.18668286,0.00262123,0.00313970,0.0010
 5113,0.00011324,0.00010750,-0.00014567,-0.00028018,-0.00104226,-0.0022
 0584,-0.00040917,-0.00084196,-0.00016855,-0.00068411,-0.00009463,-0.00
 014111,-0.00041305,-0.00005715,-0.00007014,-0.00024085,-0.00006863,0.0
 0037435,0.00011204,0.00003661,-0.00020348,-0.00144875,-0.00043501,0.00
 098849,-0.01428151,-0.00620511,-0.00159070,0.00043875,0.00010591,-0.00
 033353,-0.00605357,-0.01308132,-0.06094022,0.02057403,0.00239340,-0.00
 150051,-0.03162513,0.00524693,0.03302709,-0.02217109,-0.02266895,-0.14
 748799,0.11913288,0.15957046,0.87603386,0.00005060,-0.00025555,-0.0001
 5361,0.00006443,-0.00014947,0.00000146,0.00058386,0.00014424,-0.000761
 39,-0.00012841,0.00015577,0.00037738,-0.00004030,0.00011371,0.00004949
 ,-0.00402825,-0.00007335,-0.00222953,-0.00006111,0.00003564,0.00035314
 ,0.01327377,-0.00127642,-0.01128697,-0.00151971,-0.00089147,0.00008922
 ,-0.00000156,-0.00000755,-0.00000211,0.00009119,0.00025381,0.00025989,
 -0.00009702,0.00008477,0.00001341,0.00027621,0.00008254,0.00010874,0.0
 0010070,0.00019897,-0.00020925,0.00004129,0.00003322,-0.00004572,-0.00
 007285,0.00000436,0.00004360,0.00002789,-0.00000480,-0.00007168,0.0002
 1871,0.00004981,-0.00004146,-0.00005443,-0.00046011,0.00053640,-0.1925
 5379,0.01420203,0.15465351,-0.01060756,0.00184255,0.02051817,-0.003477
 05,-0.00261298,-0.00224140,-0.00002004,0.00001557,-0.00034727,-0.00131
 224,-0.00104059,-0.00142920,0.19955397,-0.00008990,-0.00007390,-0.0002
 3759,-0.00037481,0.00013898,-0.00009821,0.00061917,-0.00149143,-0.0002
 2383,-0.00005278,-0.00007798,0.00011785,0.00002809,-0.00000847,-0.0000
 5418,-0.00013218,-0.00024095,0.00029552,0.00028924,0.00012860,0.000124
 88,0.00597828,0.00260818,-0.00781600,-0.00018020,-0.00031278,0.0000938
 5,-0.00003373,-0.00008279,0.00003693,0.00003667,0.00001081,0.00014598,
 -0.00028415,0.00028774,-0.00019648,0.00013636,0.00006169,0.00004632,0.
 00041195,-0.00018883,0.00000945,0.00005364,-0.00003764,0.00002618,0.00
 006073,-0.00008316,0.00001939,0.00003305,0.00000582,-0.00002897,0.0000
 8210,0.00005977,-0.00000971,-0.00057050,0.00016878,0.00035817,0.012658
 96,-0.04475284,-0.01814905,-0.00407100,0.00835672,0.00326742,-0.002550
 85,0.01115446,-0.00299924,0.00027720,-0.00074866,0.00028620,-0.0021235
 2,0.00329361,-0.00085392,-0.01143826,0.03019067,0.00013306,-0.00009145
 ,-0.00009820,-0.00001599,-0.00003358,-0.00029416,0.00285680,0.00033862
 ,-0.00183182,-0.00010906,-0.00002407,0.00026673,0.00000259,0.00007426,
 0.00000071,0.00140944,0.00080527,0.00107838,-0.00025393,-0.00011166,0.
 00003054,0.01971981,-0.00357875,-0.02526436,-0.00089413,-0.00047723,0.
 00067846,-0.00003473,0.00000856,0.00002081,0.00006440,0.00021735,0.000
 18548,0.00010343,-0.00012587,0.00036200,0.00032050,0.00014673,0.000033
 34,-0.00012861,0.00003488,-0.00040755,-0.00000298,0.00002665,-0.000079
 98,0.00000351,0.00001045,-0.00000991,0.00003334,0.00000566,-0.00006099
 ,0.00023172,0.00008563,-0.00001506,0.00018979,0.00020901,0.00030783,0.
 14527313,-0.01880780,-0.21620552,-0.00505580,-0.00049431,0.00930265,-0
 .00139567,-0.00294199,0.00005584,0.00047609,0.00042015,0.00075943,-0.0
 0593290,-0.00174388,0.00019145,-0.15735399,0.02433034,0.23259103,0.000
 03994,-0.00003865,-0.00006577,-0.00026156,0.00022665,0.00013473,0.0008
 8487,-0.00051338,-0.00123029,-0.00001499,-0.00010747,-0.00016066,0.000
 00758,-0.00000209,-0.00000304,-0.00002102,0.00000266,0.00029874,-0.000
 19774,-0.00006417,-0.00001054,-0.00545196,-0.00170033,0.00054214,0.000
 09288,0.00005247,0.00001753,-0.00001034,-0.00001019,0.00000494,-0.0000
 6492,-0.00002817,0.00001266,-0.00004239,0.00001127,-0.00008891,-0.0000
 0292,-0.00000260,-0.00000254,0.00004646,-0.00000285,0.00009326,0.00000
 310,-0.00000129,0.00001669,-0.00000544,-0.00000018,0.00001059,0.000021
 66,0.00000442,0.00000079,-0.00007090,-0.00000477,0.00003483,-0.0000457
 3,-0.00002313,-0.00005809,-0.00574602,-0.00680972,-0.02781806,-0.09181
 962,-0.03064641,-0.09749783,0.01188851,0.00548718,0.01796533,-0.002639
 04,0.00012894,0.00430384,-0.00201601,-0.00009795,0.00073108,0.00070827
 ,0.00088742,-0.00004059,0.09308212,-0.00002552,0.00007613,0.00003251,0
 .00041180,0.00002559,-0.00008904,-0.00020664,0.00199734,-0.00070671,0.
 00003993,-0.00002685,0.00009778,-0.00000133,-0.00004450,0.00000347,-0.
 00001217,-0.00010502,0.00008718,-0.00052256,-0.00007798,-0.00006241,-0
 .00169915,0.00741056,-0.00072918,0.00004389,0.00009991,0.00000631,0.00
 000584,-0.00000438,-0.00000444,0.00005158,-0.00000392,0.00000581,-0.00
 003263,0.00002627,-0.00003964,0.00000335,-0.00001063,-0.00000464,0.000
 04732,-0.00004409,0.00004463,0.00000114,-0.00000257,0.00000609,0.00000
 890,-0.00001141,-0.00000262,-0.00000795,0.00000873,-0.00000443,0.00001
 012,0.00001781,-0.00000710,-0.00002515,0.00003705,-0.00003416,-0.00018
 286,-0.00184053,-0.00344028,-0.03070762,-0.04771202,-0.07435340,-0.001
 64656,0.00089269,-0.00069484,-0.00007183,0.00260293,-0.00068633,0.0002
 9587,-0.00022540,-0.00002865,0.00075645,-0.00516664,0.00132133,0.03306
 356,0.04410240,-0.00000522,-0.00001049,-0.00001487,-0.00008062,0.00001
 267,-0.00002379,0.00012976,-0.00037451,0.00031936,-0.00001303,-0.00000
 173,0.00003381,0.00000834,0.00000772,0.00000390,0.00007249,0.00002870,
 -0.00002811,0.00014944,-0.00000168,0.00004253,0.00095050,-0.00082064,0
 .00348572,-0.00004039,-0.00002503,-0.00000437,-0.00000476,-0.00000081,
 0.00000387,0.00000625,0.00000875,0.00001002,0.00000747,-0.00000413,0.0
 0001484,0.,-0.00000056,0.00000307,-0.00000114,0.00000511,-0.00003094,0
 .00000147,0.00000173,-0.00000340,-0.00000242,0.00000082,0.00000114,0.0
 0000068,-0.00000210,-0.00000230,0.00003601,0.00000946,-0.00000916,-0.0
 0000477,0.00000274,0.00002837,0.00249326,0.00080074,0.00093570,-0.0983
 7435,-0.07428774,-0.30195277,-0.01417334,-0.00540908,-0.01418747,0.003
 31657,-0.00082275,-0.00322360,0.00228660,0.00029508,-0.00052267,-0.000
 38062,0.00120963,0.00028079,0.10445592,0.07850945,0.31257518,-0.000027
 71,-0.00001234,0.00003751,-0.00002704,0.00005510,0.00023001,0.00050378
 ,0.00013528,0.00156763,0.00028690,0.00013266,-0.00026004,-0.00000295,-
 0.00005825,-0.00000356,-0.00045658,-0.00016534,-0.00014126,-0.00008085
 ,0.00005144,-0.00001958,-0.00558811,-0.00203825,-0.00317848,-0.0000108
 1,0.00012937,0.00010840,0.00000766,-0.00000213,-0.00000299,0.00007070,
 0.00001936,-0.00004336,-0.00005617,-0.00003075,-0.00001889,-0.00001495
 ,-0.00000648,0.00000343,0.00002505,-0.00000273,-0.00002154,-0.00000363
 ,0.00000184,0.00001960,0.00000101,-0.00000298,-0.00001041,-0.00007254,
 -0.00003004,0.00002240,-0.00045080,-0.00023912,-0.00006510,-0.00001916
 ,-0.00000268,0.00001624,-0.00020517,-0.00009858,-0.00092633,-0.0015649
 6,-0.00149782,-0.00335885,0.02047611,0.00037532,-0.01084914,-0.2009311
 7,0.01189554,0.17764447,-0.01621722,0.00482859,0.03280842,-0.00004562,
 0.00006792,0.00005943,0.00071314,-0.00008994,-0.00074174,0.20242310,0.
 00000686,0.00001117,-0.00002381,-0.00003840,0.00009226,0.00006359,0.00
 008166,0.00099364,0.00017061,0.00001371,-0.00007888,-0.00000406,0.0000
 1390,-0.00002788,0.00001802,-0.00024600,-0.00012193,0.00000357,-0.0000
 6902,-0.00003104,-0.00004742,-0.00234842,0.00413633,-0.00131302,0.0000
 7328,0.00007699,0.00006748,0.00000022,-0.00000135,0.00001360,0.0000015
 4,-0.00004180,-0.00001581,-0.00003780,-0.00001058,-0.00002714,0.000007
 44,-0.00000130,-0.00000218,0.00002109,-0.00002474,0.00001634,-0.000003
 99,-0.00000024,0.00001144,0.00000756,-0.00000568,-0.00000728,-0.000012
 81,0.00001673,0.00000822,0.00001511,0.00005478,0.00003230,-0.00000681,
 0.00001496,-0.00000648,-0.00012985,-0.00077347,-0.00003657,-0.00163140
 ,0.00325604,-0.00193090,0.00732697,0.00108572,-0.00606737,0.01311127,-
 0.02423791,-0.03830636,-0.00237863,0.00019504,0.00783753,0.00005549,-0
 .00038426,0.00010443,0.00027134,0.00020143,-0.00027335,-0.01505373,0.0
 2295285,0.00006501,0.00005178,0.00000332,0.00004706,0.00007991,0.00017
 280,0.00035017,-0.00008474,0.00063322,-0.00011557,-0.00007639,-0.00019
 297,-0.00001428,0.00004444,-0.00000754,-0.00059757,-0.00014740,0.00009
 693,-0.00002257,0.00001414,0.00000908,-0.00379022,-0.00111947,0.001774
 28,0.00015029,0.00011632,0.00007108,-0.00000169,0.00000245,-0.00000678
 ,-0.00011635,-0.00007732,-0.00005057,-0.00002280,-0.00002417,-0.000048
 58,-0.00003452,-0.00000559,-0.00001096,-0.00002245,-0.00000058,0.00005
 498,-0.00000887,-0.00000873,0.00001852,-0.00000034,0.00000619,0.000009
 45,0.00003564,0.00001615,0.00002242,0.00007738,0.00006107,0.00013063,0
 .00001687,0.00000056,-0.00004705,-0.00128698,-0.00016663,-0.00060245,-
 0.00408444,-0.00206923,-0.00315566,0.02136955,-0.00160646,-0.02025453,
 0.18328092,-0.03730169,-0.31435244,-0.00107207,0.00277167,0.01271118,0
 .00004370,0.00009405,-0.00001206,0.00099225,-0.00003456,-0.00059057,-0
 .19394650,0.03762617,0.32205270,0.00053923,0.00025063,-0.00030163,-0.0
 0046832,0.00101464,0.00107868,0.00431547,0.00019330,-0.00126952,-0.001
 13351,-0.00092324,-0.00071520,-0.00000406,0.00027267,-0.00002997,-0.00
 296643,-0.00085863,0.00088821,-0.00101650,-0.00024388,0.00002934,-0.00
 560858,-0.00284671,-0.00702083,0.00164740,0.00083035,0.00011414,-0.000
 06835,0.00000579,0.00001510,-0.00107795,-0.00068649,-0.00021076,-0.000
 03009,-0.00007956,-0.00045562,-0.00023413,-0.00007292,-0.00011573,-0.0
 0017248,-0.00007723,0.00064081,-0.00005570,-0.00006455,0.00009476,0.00
 003837,0.00007365,0.00006741,0.00044483,0.00018355,0.00007233,0.000937
 89,0.00073933,0.00057841,0.00021137,0.00008341,-0.00051690,0.01104855,
 0.00390789,0.01283629,-0.06268958,-0.00824442,0.01802318,-0.68222932,-
 0.08487404,0.00531582,-0.06485898,-0.02154638,-0.04606952,0.01180935,0
 .00094372,0.00045329,-0.00095997,0.00007882,-0.00052487,0.00031650,0.0
 0046626,0.00038379,-0.00297525,-0.00000744,-0.00044301,0.80172799,0.00
 007457,0.00001476,-0.00006995,-0.00009456,0.00001933,0.00004139,0.0006
 7070,-0.00023081,-0.00004798,-0.00026279,-0.00008958,0.00008101,-0.000
 01705,0.00008554,-0.00000485,-0.00036495,-0.00005644,0.00022404,-0.000
 05738,-0.00003015,-0.00007298,-0.00160595,-0.00002263,0.00154922,0.000
 15454,0.00007683,0.00004657,-0.00000383,0.00000127,-0.00000674,-0.0001
 7346,-0.00006032,0.00001484,0.00000383,-0.00002257,-0.00006858,-0.0000
 2496,-0.00000232,-0.00002110,-0.00003519,0.00002625,0.00009377,-0.0000
 0398,-0.00000728,0.00001091,-0.00000668,0.00002024,0.00001975,0.000088
 76,0.00002164,0.00000363,0.00035562,0.00011186,0.00008386,0.00002698,-
 0.00002873,-0.00007172,0.00054942,0.00330576,-0.00193423,-0.00362302,0
 .02225208,0.00083510,-0.08572650,-0.08833644,-0.00485763,-0.02709207,0
 .01295382,-0.01035772,0.00466526,0.00697592,-0.00354252,0.00046864,-0.
 00251751,0.00064315,-0.00021650,-0.00183117,0.00106688,0.00081049,-0.0
 0357197,0.00180676,0.11352557,0.05295283,-0.00005589,-0.00001031,-0.00
 010171,0.00014543,-0.00005148,-0.00048600,-0.00022850,0.00011327,0.000
 05591,-0.00034570,-0.00011108,0.00061839,0.00000332,0.00003066,-0.0000
 2480,0.00027122,0.00022272,0.00055759,0.00023612,-0.00008261,0.0001363
 2,-0.00376892,0.00205080,0.01190756,-0.00031423,-0.00015473,0.00011857
 ,-0.00001746,-0.00002910,0.00000459,0.00003041,0.00008390,0.00019480,-
 0.00009879,0.00006846,-0.00013500,0.00007514,0.00001682,0.00003602,0.0
 0013865,-0.00001769,0.00011463,0.00002541,0.00000385,0.00000630,-0.000
 01331,-0.00000789,0.00002846,0.00009058,0.00002116,-0.00007621,0.00069
 135,0.00028834,-0.00003668,-0.00014512,-0.00004406,0.00001215,-0.00249
 702,-0.00423519,-0.01430511,0.03991438,0.00403582,0.01482426,0.0012304
 7,-0.00545910,-0.10191222,-0.07189382,-0.01400194,0.00121442,0.0186503
 1,-0.00086912,-0.01025829,0.00108056,0.00086888,0.00051591,-0.00251501
 ,0.00064627,0.00258790,0.00303147,0.00229268,0.00468471,0.02266017,0.0
 1530277,0.09097382,0.00014194,0.00030303,-0.00088330,-0.00136946,0.000
 33720,-0.00539983,-0.00318310,0.00069246,-0.00408372,-0.00886224,-0.00
 576853,0.00456370,0.00014782,0.00026053,0.00036173,0.00107849,0.000427
 03,0.00404163,0.00170828,-0.00113620,0.00129947,0.02836732,0.00565912,
 0.01813790,0.00036977,-0.00051366,0.00003317,-0.00011939,-0.00007869,0
 .00012221,-0.00096833,-0.00028808,0.00097786,-0.00006737,0.00020537,-0
 .00050621,0.00012083,-0.00001168,-0.00005950,0.00013474,-0.00007237,0.
 00065124,0.00004757,-0.00003092,-0.00000069,-0.00001187,0.00004716,0.0
 0015288,0.00124283,0.00047106,-0.00034665,0.00193811,0.00279007,0.0043
 8022,-0.00016914,-0.00000761,-0.00029532,-0.00985130,-0.00300756,-0.00
 410470,0.00608507,-0.00002835,-0.00477092,0.00215317,0.00450204,0.0242
 4266,-0.04249027,-0.02475484,-0.07559446,-0.18032100,-0.05301408,-0.17
 624607,-0.00001098,0.00020226,0.00086621,0.00060556,0.00002590,-0.0004
 7613,0.00424325,0.00095684,-0.00084865,-0.00648777,-0.00208552,-0.0063
 8123,0.20552749,-0.00010879,0.00063519,-0.00064357,-0.00046865,-0.0023
 9687,-0.00263852,-0.00290403,-0.00502955,-0.00037491,-0.00612241,-0.00
 076921,0.00370228,-0.00062009,0.00088540,-0.00016541,0.00149595,0.0015
 6876,-0.00024099,0.00047174,-0.00003558,-0.00016719,0.00263372,0.01657
 857,-0.02042918,-0.00103815,-0.00128424,0.00003931,-0.00005492,-0.0000
 3520,-0.00001446,-0.00067551,0.00003816,0.00072735,0.00004452,0.000293
 96,-0.00016205,0.00009249,0.00004980,0.00006633,0.00011089,0.00007570,
 0.00023083,0.00006551,-0.00000039,-0.00008227,-0.00005642,0.00003221,0
 .00016202,0.00080308,0.00018322,-0.00018913,0.00461264,-0.00109274,0.0
 0219185,-0.00011627,-0.00009358,-0.00000641,0.00013904,0.00423736,-0.0
 0056498,0.00036242,-0.00119089,-0.00118012,0.00066651,0.00809620,0.003
 45640,-0.01874531,0.01311785,-0.01981831,-0.05313704,-0.11389439,-0.11
 932798,-0.00028701,-0.00029799,-0.00035186,0.00013392,-0.00039175,0.00
 007511,0.00082827,-0.00377494,0.00003130,-0.00204411,-0.00201023,-0.00
 097210,0.07391802,0.08650517,-0.00047484,-0.00030507,-0.00030268,0.000
 45633,-0.00076562,-0.00687582,-0.01338320,-0.00117356,-0.00409450,-0.0
 0582251,-0.00233174,0.00817047,0.00071863,0.00025126,-0.00031563,0.002
 82939,0.00150371,0.00185455,0.00321035,-0.00066947,0.00044199,0.004238
 50,-0.02049310,-0.08711122,-0.00164839,-0.00125635,-0.00006264,-0.0001
 2647,-0.00009823,0.00011925,0.00046071,0.00067060,0.00154938,-0.000017
 12,0.00037856,-0.00017405,0.00038687,0.00001459,0.00009168,0.00037523,
 0.00000545,0.00024665,0.00012367,0.00002715,-0.00012852,-0.00006779,-0
 .00002046,0.00011919,0.00101773,0.00039226,-0.00082904,0.01009489,0.00
 465314,-0.00151574,-0.00036143,-0.00012285,0.00014117,0.00989422,0.001
 02505,0.00365600,-0.00284990,-0.00081339,-0.00280807,0.00608589,0.0006
 3327,0.00556329,-0.04430705,-0.01434131,-0.01853104,-0.18176234,-0.122
 33647,-0.52627717,-0.00157446,-0.00066386,-0.00238176,-0.00012401,0.00
 016164,0.00026783,-0.00196123,-0.00020420,-0.00311314,-0.00557817,-0.0
 0076764,-0.00125629,0.22016651,0.15664665,0.63355583\\0.00001069,-0.00
 000265,0.00001236,-0.00000054,-0.00000353,-0.00000759,-0.00001498,0.00
 000130,0.00000619,-0.00000374,0.00000035,0.00000029,-0.00000015,-0.000
 00012,0.00000179,-0.00000311,-0.00000206,0.00000081,0.00000133,-0.0000
 0087,0.00000016,0.00001265,0.00000720,0.00000414,0.00001608,0.00001153
 ,-0.00000737,-0.00000071,-0.00000069,-0.00000271,-0.00000504,-0.000002
 68,-0.00000527,-0.00000261,-0.00000288,0.00000034,-0.00000288,-0.00000
 166,0.00000178,0.00000405,-0.00000541,-0.00000634,0.00000036,0.0000015
 2,0.00000363,0.00000119,0.00000082,-0.00000109,0.00000002,-0.00000067,
 -0.00000134,0.00000307,0.00000060,0.00000095,-0.00000254,0.00000151,0.
 00000307,-0.00000999,-0.00000553,-0.00001372,-0.00000018,0.00000109,0.
 00001005,-0.00000600,-0.00000109,-0.00001302,0.00000384,-0.00000859,0.
 00000529,-0.00000321,0.00000314,0.00001296,0.00000262,0.00000251,0.000
 00280,0.00000118,-0.00000007,-0.00000121,0.00000062,0.00000258,0.00000
 035,0.00000140,0.00000519,0.00000050,-0.00000339,-0.00000081,-0.000007
 81\\\@
 The archive entry for this job was punched.


 THE UNDERLYING PHYSICAL LAWS NECESSARY FOR THE 
 MATHEMATICAL THEORY OF A LARGE PART OF PHYSICS AND THE
 WHOLE OF CHEMISTRY ARE THUS COMPLETELY KNOWN, AND THE
 DIFFICULTY IS ONLY THAT THE EXACT APPLICATION OF THESE
 LAWS LEADS TO EQUATIONS MUCH TOO COMPLICATED 
 TO BE SOLUBLE.

                                        -- P. A. M. DIRAC, 1929
 Job cpu time:       0 days 10 hours 22 minutes 22.7 seconds.
 Elapsed time:       0 days  0 hours 15 minutes 41.1 seconds.
 File lengths (MBytes):  RWF=    632 Int=      0 D2E=      0 Chk=     21 Scr=      1
 Normal termination of Gaussian 16 at Thu Oct 17 10:15:26 2024.
