 Entering Gaussian System, Link 0=g16
 Input=UridineMNsllgPBE0aVDZ.gjf
 Output=UridineMNsllgPBE0aVDZ.log
 Initial command:
 /sw/contrib/chem-src/g16/c01/g16/l1.exe "/scr/Gau-71937.inp" -scrdir="/scr/"
 Entering Link 1 = /sw/contrib/chem-src/g16/c01/g16/l1.exe PID=     71938.
  
 Copyright (c) 1988-2019, Gaussian, Inc.  All Rights Reserved.
  
 This is part of the Gaussian(R) 16 program.  It is based on
 the Gaussian(R) 09 system (copyright 2009, Gaussian, Inc.),
 the Gaussian(R) 03 system (copyright 2003, Gaussian, Inc.),
 the Gaussian(R) 98 system (copyright 1998, Gaussian, Inc.),
 the Gaussian(R) 94 system (copyright 1995, Gaussian, Inc.),
 the Gaussian 92(TM) system (copyright 1992, Gaussian, Inc.),
 the Gaussian 90(TM) system (copyright 1990, Gaussian, Inc.),
 the Gaussian 88(TM) system (copyright 1988, Gaussian, Inc.),
 the Gaussian 86(TM) system (copyright 1986, Carnegie Mellon
 University), and the Gaussian 82(TM) system (copyright 1983,
 Carnegie Mellon University). Gaussian is a federally registered
 trademark of Gaussian, Inc.
  
 This software contains proprietary and confidential information,
 including trade secrets, belonging to Gaussian, Inc.
  
 This software is provided under written license and may be
 used, copied, transmitted, or stored only in accord with that
 written license.
  
 The following legend is applicable only to US Government
 contracts under FAR:
  
                    RESTRICTED RIGHTS LEGEND
  
 Use, reproduction and disclosure by the US Government is
 subject to restrictions as set forth in subparagraphs (a)
 and (c) of the Commercial Computer Software - Restricted
 Rights clause in FAR 52.227-19.
  
 Gaussian, Inc.
 340 Quinnipiac St., Bldg. 40, Wallingford CT 06492
  
  
 ---------------------------------------------------------------
 Warning -- This program may not be used in any manner that
 competes with the business of Gaussian, Inc. or will provide
 assistance to any competitor of Gaussian, Inc.  The licensee
 of this program is prohibited from giving any competitor of
 Gaussian, Inc. access to this program.  By using this program,
 the user acknowledges that Gaussian, Inc. is engaged in the
 business of creating and licensing software in the field of
 computational chemistry and represents and warrants to the
 licensee that it is not a competitor of Gaussian, Inc. and that
 it will not use this program in any manner prohibited above.
 ---------------------------------------------------------------
  

 Cite this work as:
 Gaussian 16, Revision C.01,
 M. J. Frisch, G. W. Trucks, H. B. Schlegel, G. E. Scuseria, 
 M. A. Robb, J. R. Cheeseman, G. Scalmani, V. Barone, 
 G. A. Petersson, H. Nakatsuji, X. Li, M. Caricato, A. V. Marenich, 
 J. Bloino, B. G. Janesko, R. Gomperts, B. Mennucci, H. P. Hratchian, 
 J. V. Ortiz, A. F. Izmaylov, J. L. Sonnenberg, D. Williams-Young, 
 F. Ding, F. Lipparini, F. Egidi, J. Goings, B. Peng, A. Petrone, 
 T. Henderson, D. Ranasinghe, V. G. Zakrzewski, J. Gao, N. Rega, 
 G. Zheng, W. Liang, M. Hada, M. Ehara, K. Toyota, R. Fukuda, 
 J. Hasegawa, M. Ishida, T. Nakajima, Y. Honda, O. Kitao, H. Nakai, 
 T. Vreven, K. Throssell, J. A. Montgomery, Jr., J. E. Peralta, 
 F. Ogliaro, M. J. Bearpark, J. J. Heyd, E. N. Brothers, K. N. Kudin, 
 V. N. Staroverov, T. A. Keith, R. Kobayashi, J. Normand, 
 K. Raghavachari, A. P. Rendell, J. C. Burant, S. S. Iyengar, 
 J. Tomasi, M. Cossi, J. M. Millam, M. Klene, C. Adamo, R. Cammi, 
 J. W. Ochterski, R. L. Martin, K. Morokuma, O. Farkas, 
 J. B. Foresman, and D. J. Fox, Gaussian, Inc., Wallingford CT, 2019.
 
 ******************************************
 Gaussian 16:  EM64L-G16RevC.01  3-Jul-2019
                24-Oct-2024 
 ******************************************
 %nprocshared=40
 Will use up to   40 processors via shared memory.
 %mem=50gb
 ------------------------------------------------------
 # PBE1PBE/aug-cc-pVDZ opt freq EmpiricalDispersion=GD3
 ------------------------------------------------------
 1/18=20,19=15,26=3,38=1/1,3;
 2/9=110,12=2,17=6,18=5,40=1/2;
 3/5=16,7=10,11=2,25=1,30=1,71=1,74=-13,124=31/1,2,3;
 4//1;
 5/5=2,38=5/2;
 6/7=2,8=2,9=2,10=2,28=1/1;
 7//1,2,3,16;
 1/18=20,19=15,26=3/3(2);
 2/9=110/2;
 99//99;
 2/9=110/2;
 3/5=16,7=10,11=2,25=1,30=1,71=1,74=-13,124=31/1,2,3;
 4/5=5,16=3,69=1/1;
 5/5=2,38=5/2;
 7//1,2,3,16;
 1/18=20,19=15,26=3/3(-5);
 2/9=110/2;
 6/7=2,8=2,9=2,10=2,19=2,28=1/1;
 99/9=1/99;
 ----
 blah
 ----
 Symbolic Z-matrix:
 Charge = -1 Multiplicity = 1
 C                    -2.06019  -0.19892   0.80898 
 C                    -1.15747  -1.35494   0.38107 
 C                    -0.41591  -0.74392  -0.81642 
 O                    -2.01229  -2.40654  -0.02088 
 H                    -0.46345  -1.68095   1.16565 
 O                    -1.21237   0.29111  -1.32269 
 H                    -0.23302  -1.50225  -1.58756 
 N                     0.89851  -0.20909  -0.42226 
 C                    -2.39958   0.44481  -0.53658 
 H                    -1.46591   0.50555   1.40821 
 O                    -3.17274  -0.5701    1.5715 
 C                    -2.78638   1.90769  -0.49167 
 H                    -3.22407  -0.12056  -1.00467 
 O                    -1.82432   2.71857   0.16406 
 H                    -3.7785    1.9903   -0.02149 
 H                    -2.86781   2.28318  -1.5202 
 H                    -3.47247  -1.42319   1.23004 
 H                    -1.47863  -3.19226  -0.17549 
 H                    -2.03934   2.76584   1.09913 
 C                     1.13182   1.12973  -0.23367 
 C                     2.34524   1.60546   0.12699 
 C                     3.45641   0.69639   0.32396 
 N                     3.11222  -0.64934   0.11301 
 C                     1.88708  -1.16076  -0.23062 
 H                     0.26654   1.77158  -0.39363 
 H                     2.51407   2.66839   0.26971 
 O                     4.59503   0.99011   0.64327 
 O                     1.66589  -2.35795  -0.35402 
 

 GradGradGradGradGradGradGradGradGradGradGradGradGradGradGradGradGradGrad
 Berny optimization.
 Initialization pass.
                           ----------------------------
                           !    Initial Parameters    !
                           ! (Angstroms and Degrees)  !
 --------------------------                            --------------------------
 ! Name  Definition              Value          Derivative Info.                !
 --------------------------------------------------------------------------------
 ! R1    R(1,2)                  1.5279         estimate D2E/DX2                !
 ! R2    R(1,9)                  1.5297         estimate D2E/DX2                !
 ! R3    R(1,10)                 1.0993         estimate D2E/DX2                !
 ! R4    R(1,11)                 1.3989         estimate D2E/DX2                !
 ! R5    R(2,3)                  1.5353         estimate D2E/DX2                !
 ! R6    R(2,4)                  1.4136         estimate D2E/DX2                !
 ! R7    R(2,5)                  1.097          estimate D2E/DX2                !
 ! R8    R(3,6)                  1.4007         estimate D2E/DX2                !
 ! R9    R(3,7)                  1.0969         estimate D2E/DX2                !
 ! R10   R(3,8)                  1.4728         estimate D2E/DX2                !
 ! R11   R(4,18)                 0.9623         estimate D2E/DX2                !
 ! R12   R(6,9)                  1.4321         estimate D2E/DX2                !
 ! R13   R(8,20)                 1.372          estimate D2E/DX2                !
 ! R14   R(8,24)                 1.3855         estimate D2E/DX2                !
 ! R15   R(9,12)                 1.5138         estimate D2E/DX2                !
 ! R16   R(9,13)                 1.1039         estimate D2E/DX2                !
 ! R17   R(11,17)                0.9665         estimate D2E/DX2                !
 ! R18   R(12,14)                1.4188         estimate D2E/DX2                !
 ! R19   R(12,15)                1.101          estimate D2E/DX2                !
 ! R20   R(12,16)                1.0979         estimate D2E/DX2                !
 ! R21   R(14,19)                0.9606         estimate D2E/DX2                !
 ! R22   R(20,21)                1.3523         estimate D2E/DX2                !
 ! R23   R(20,25)                1.0892         estimate D2E/DX2                !
 ! R24   R(21,22)                1.4491         estimate D2E/DX2                !
 ! R25   R(21,26)                1.0857         estimate D2E/DX2                !
 ! R26   R(22,23)                1.405          estimate D2E/DX2                !
 ! R27   R(22,27)                1.2185         estimate D2E/DX2                !
 ! R28   R(23,24)                1.3714         estimate D2E/DX2                !
 ! R29   R(24,28)                1.2237         estimate D2E/DX2                !
 ! A1    A(2,1,9)              101.7198         estimate D2E/DX2                !
 ! A2    A(2,1,10)             108.5496         estimate D2E/DX2                !
 ! A3    A(2,1,11)             114.9476         estimate D2E/DX2                !
 ! A4    A(9,1,10)             109.2526         estimate D2E/DX2                !
 ! A5    A(9,1,11)             114.498          estimate D2E/DX2                !
 ! A6    A(10,1,11)            107.628          estimate D2E/DX2                !
 ! A7    A(1,2,3)              101.695          estimate D2E/DX2                !
 ! A8    A(1,2,4)              106.5724         estimate D2E/DX2                !
 ! A9    A(1,2,5)              113.4732         estimate D2E/DX2                !
 ! A10   A(3,2,4)              111.4918         estimate D2E/DX2                !
 ! A11   A(3,2,5)              111.7473         estimate D2E/DX2                !
 ! A12   A(4,2,5)              111.3984         estimate D2E/DX2                !
 ! A13   A(2,3,6)              107.5381         estimate D2E/DX2                !
 ! A14   A(2,3,7)              110.7153         estimate D2E/DX2                !
 ! A15   A(2,3,8)              111.521          estimate D2E/DX2                !
 ! A16   A(6,3,7)              110.5834         estimate D2E/DX2                !
 ! A17   A(6,3,8)              109.6254         estimate D2E/DX2                !
 ! A18   A(7,3,8)              106.8819         estimate D2E/DX2                !
 ! A19   A(2,4,18)             108.5267         estimate D2E/DX2                !
 ! A20   A(3,6,9)              110.6268         estimate D2E/DX2                !
 ! A21   A(3,8,20)             122.8813         estimate D2E/DX2                !
 ! A22   A(3,8,24)             115.1104         estimate D2E/DX2                !
 ! A23   A(20,8,24)            121.9994         estimate D2E/DX2                !
 ! A24   A(1,9,6)              104.6987         estimate D2E/DX2                !
 ! A25   A(1,9,12)             115.9281         estimate D2E/DX2                !
 ! A26   A(1,9,13)             108.8552         estimate D2E/DX2                !
 ! A27   A(6,9,12)             109.3784         estimate D2E/DX2                !
 ! A28   A(6,9,13)             109.3559         estimate D2E/DX2                !
 ! A29   A(12,9,13)            108.4616         estimate D2E/DX2                !
 ! A30   A(1,11,17)            106.7528         estimate D2E/DX2                !
 ! A31   A(9,12,14)            113.1252         estimate D2E/DX2                !
 ! A32   A(9,12,15)            108.3861         estimate D2E/DX2                !
 ! A33   A(9,12,16)            108.7628         estimate D2E/DX2                !
 ! A34   A(14,12,15)           111.7629         estimate D2E/DX2                !
 ! A35   A(14,12,16)           106.725          estimate D2E/DX2                !
 ! A36   A(15,12,16)           107.9113         estimate D2E/DX2                !
 ! A37   A(12,14,19)           109.0394         estimate D2E/DX2                !
 ! A38   A(8,20,21)            122.1753         estimate D2E/DX2                !
 ! A39   A(8,20,25)            114.8201         estimate D2E/DX2                !
 ! A40   A(21,20,25)           123.0044         estimate D2E/DX2                !
 ! A41   A(20,21,22)           120.2383         estimate D2E/DX2                !
 ! A42   A(20,21,26)           121.2657         estimate D2E/DX2                !
 ! A43   A(22,21,26)           118.495          estimate D2E/DX2                !
 ! A44   A(21,22,23)           113.1179         estimate D2E/DX2                !
 ! A45   A(21,22,27)           126.9373         estimate D2E/DX2                !
 ! A46   A(23,22,27)           119.9443         estimate D2E/DX2                !
 ! A47   A(22,23,24)           127.857          estimate D2E/DX2                !
 ! A48   A(8,24,23)            114.5776         estimate D2E/DX2                !
 ! A49   A(8,24,28)            121.9433         estimate D2E/DX2                !
 ! A50   A(23,24,28)           123.4777         estimate D2E/DX2                !
 ! D1    D(9,1,2,3)             34.7796         estimate D2E/DX2                !
 ! D2    D(9,1,2,4)            -82.0893         estimate D2E/DX2                !
 ! D3    D(9,1,2,5)            154.9382         estimate D2E/DX2                !
 ! D4    D(10,1,2,3)           -80.3596         estimate D2E/DX2                !
 ! D5    D(10,1,2,4)           162.7715         estimate D2E/DX2                !
 ! D6    D(10,1,2,5)            39.7991         estimate D2E/DX2                !
 ! D7    D(11,1,2,3)           159.0829         estimate D2E/DX2                !
 ! D8    D(11,1,2,4)            42.214          estimate D2E/DX2                !
 ! D9    D(11,1,2,5)           -80.7584         estimate D2E/DX2                !
 ! D10   D(2,1,9,6)            -34.9546         estimate D2E/DX2                !
 ! D11   D(2,1,9,12)          -155.5491         estimate D2E/DX2                !
 ! D12   D(2,1,9,13)            81.8958         estimate D2E/DX2                !
 ! D13   D(10,1,9,6)            79.6656         estimate D2E/DX2                !
 ! D14   D(10,1,9,12)          -40.929          estimate D2E/DX2                !
 ! D15   D(10,1,9,13)         -163.484          estimate D2E/DX2                !
 ! D16   D(11,1,9,6)          -159.5597         estimate D2E/DX2                !
 ! D17   D(11,1,9,12)           79.8457         estimate D2E/DX2                !
 ! D18   D(11,1,9,13)          -42.7093         estimate D2E/DX2                !
 ! D19   D(2,1,11,17)          -35.6933         estimate D2E/DX2                !
 ! D20   D(9,1,11,17)           81.576          estimate D2E/DX2                !
 ! D21   D(10,1,11,17)        -156.7556         estimate D2E/DX2                !
 ! D22   D(1,2,3,6)            -23.7096         estimate D2E/DX2                !
 ! D23   D(1,2,3,7)           -144.6208         estimate D2E/DX2                !
 ! D24   D(1,2,3,8)             96.5065         estimate D2E/DX2                !
 ! D25   D(4,2,3,6)             89.528          estimate D2E/DX2                !
 ! D26   D(4,2,3,7)            -31.3832         estimate D2E/DX2                !
 ! D27   D(4,2,3,8)           -150.256          estimate D2E/DX2                !
 ! D28   D(5,2,3,6)           -145.0758         estimate D2E/DX2                !
 ! D29   D(5,2,3,7)             94.013          estimate D2E/DX2                !
 ! D30   D(5,2,3,8)            -24.8598         estimate D2E/DX2                !
 ! D31   D(1,2,4,18)          -171.9308         estimate D2E/DX2                !
 ! D32   D(3,2,4,18)            77.92           estimate D2E/DX2                !
 ! D33   D(5,2,4,18)           -47.6697         estimate D2E/DX2                !
 ! D34   D(2,3,6,9)              1.7932         estimate D2E/DX2                !
 ! D35   D(7,3,6,9)            122.7873         estimate D2E/DX2                !
 ! D36   D(8,3,6,9)           -119.6159         estimate D2E/DX2                !
 ! D37   D(2,3,8,20)          -102.1257         estimate D2E/DX2                !
 ! D38   D(2,3,8,24)            76.8045         estimate D2E/DX2                !
 ! D39   D(6,3,8,20)            16.8549         estimate D2E/DX2                !
 ! D40   D(6,3,8,24)          -164.2148         estimate D2E/DX2                !
 ! D41   D(7,3,8,20)           136.7411         estimate D2E/DX2                !
 ! D42   D(7,3,8,24)           -44.3287         estimate D2E/DX2                !
 ! D43   D(3,6,9,1)             21.1275         estimate D2E/DX2                !
 ! D44   D(3,6,9,12)           145.9789         estimate D2E/DX2                !
 ! D45   D(3,6,9,13)           -95.3777         estimate D2E/DX2                !
 ! D46   D(3,8,20,21)         -179.9277         estimate D2E/DX2                !
 ! D47   D(3,8,20,25)            0.2641         estimate D2E/DX2                !
 ! D48   D(24,8,20,21)           1.2145         estimate D2E/DX2                !
 ! D49   D(24,8,20,25)        -178.5937         estimate D2E/DX2                !
 ! D50   D(3,8,24,23)          178.9045         estimate D2E/DX2                !
 ! D51   D(3,8,24,28)           -1.5217         estimate D2E/DX2                !
 ! D52   D(20,8,24,23)          -2.1549         estimate D2E/DX2                !
 ! D53   D(20,8,24,28)         177.4189         estimate D2E/DX2                !
 ! D54   D(1,9,12,14)           53.8255         estimate D2E/DX2                !
 ! D55   D(1,9,12,15)          -70.7016         estimate D2E/DX2                !
 ! D56   D(1,9,12,16)          172.2212         estimate D2E/DX2                !
 ! D57   D(6,9,12,14)          -64.2142         estimate D2E/DX2                !
 ! D58   D(6,9,12,15)          171.2587         estimate D2E/DX2                !
 ! D59   D(6,9,12,16)           54.1815         estimate D2E/DX2                !
 ! D60   D(13,9,12,14)         176.5879         estimate D2E/DX2                !
 ! D61   D(13,9,12,15)          52.0608         estimate D2E/DX2                !
 ! D62   D(13,9,12,16)         -65.0164         estimate D2E/DX2                !
 ! D63   D(9,12,14,19)         -90.3625         estimate D2E/DX2                !
 ! D64   D(15,12,14,19)         32.3067         estimate D2E/DX2                !
 ! D65   D(16,12,14,19)        150.0646         estimate D2E/DX2                !
 ! D66   D(8,20,21,22)           0.2092         estimate D2E/DX2                !
 ! D67   D(8,20,21,26)         179.8368         estimate D2E/DX2                !
 ! D68   D(25,20,21,22)       -179.9983         estimate D2E/DX2                !
 ! D69   D(25,20,21,26)         -0.3708         estimate D2E/DX2                !
 ! D70   D(20,21,22,23)         -0.4861         estimate D2E/DX2                !
 ! D71   D(20,21,22,27)        179.7742         estimate D2E/DX2                !
 ! D72   D(26,21,22,23)        179.8761         estimate D2E/DX2                !
 ! D73   D(26,21,22,27)          0.1364         estimate D2E/DX2                !
 ! D74   D(21,22,23,24)         -0.665          estimate D2E/DX2                !
 ! D75   D(27,22,23,24)        179.095          estimate D2E/DX2                !
 ! D76   D(22,23,24,8)           1.9468         estimate D2E/DX2                !
 ! D77   D(22,23,24,28)       -177.6196         estimate D2E/DX2                !
 --------------------------------------------------------------------------------
 Trust Radius=3.00D-01 FncErr=1.00D-07 GrdErr=1.00D-06 EigMax=2.50D+02 EigMin=1.00D-04
 Number of steps in this run=    166 maximum allowed number of steps=    168.
 GradGradGradGradGradGradGradGradGradGradGradGradGradGradGradGradGradGrad

                          Input orientation:                          
 ---------------------------------------------------------------------
 Center     Atomic      Atomic             Coordinates (Angstroms)
 Number     Number       Type             X           Y           Z
 ---------------------------------------------------------------------
      1          6           0       -2.060190   -0.198915    0.808978
      2          6           0       -1.157472   -1.354936    0.381066
      3          6           0       -0.415910   -0.743922   -0.816421
      4          8           0       -2.012290   -2.406540   -0.020882
      5          1           0       -0.463454   -1.680945    1.165649
      6          8           0       -1.212374    0.291109   -1.322688
      7          1           0       -0.233022   -1.502250   -1.587558
      8          7           0        0.898514   -0.209092   -0.422259
      9          6           0       -2.399579    0.444811   -0.536581
     10          1           0       -1.465914    0.505552    1.408206
     11          8           0       -3.172745   -0.570095    1.571502
     12          6           0       -2.786376    1.907687   -0.491673
     13          1           0       -3.224069   -0.120555   -1.004675
     14          8           0       -1.824320    2.718567    0.164056
     15          1           0       -3.778503    1.990297   -0.021494
     16          1           0       -2.867814    2.283181   -1.520195
     17          1           0       -3.472470   -1.423194    1.230040
     18          1           0       -1.478630   -3.192260   -0.175489
     19          1           0       -2.039338    2.765840    1.099132
     20          6           0        1.131820    1.129731   -0.233672
     21          6           0        2.345241    1.605461    0.126986
     22          6           0        3.456408    0.696388    0.323958
     23          7           0        3.112220   -0.649336    0.113013
     24          6           0        1.887080   -1.160764   -0.230619
     25          1           0        0.266540    1.771582   -0.393632
     26          1           0        2.514069    2.668391    0.269708
     27          8           0        4.595028    0.990106    0.643266
     28          8           0        1.665894   -2.357952   -0.354023
 ---------------------------------------------------------------------
                    Distance matrix (angstroms):
                    1          2          3          4          5
     1  C    0.000000
     2  C    1.527872   0.000000
     3  C    2.375418   1.535326   0.000000
     4  O    2.358934   1.413558   2.438362   0.000000
     5  H    2.207531   1.097048   2.192915   2.081643   0.000000
     6  O    2.345829   2.369653   1.400696   3.100302   3.262162
     7  H    3.283384   2.179860   1.096887   2.537323   2.768606
     8  N    3.204681   2.487040   1.472792   3.669150   2.557882
     9  C    1.529738   2.371496   2.329450   2.923378   3.341408
    10  H    1.099323   2.147456   2.759105   3.289544   2.417546
    11  O    1.398927   2.468692   3.651374   2.693487   2.956174
    12  C    2.580080   3.749628   3.571498   4.408334   4.584862
    13  H    2.156407   2.777552   2.882669   2.768029   3.842671
    14  O    2.997209   4.133425   3.864425   5.131886   4.712839
    15  H    2.904296   4.268775   4.406234   4.738321   5.086932
    16  H    3.498300   4.447017   3.958596   4.997334   5.358078
    17  H    1.915904   2.466705   3.740584   2.159607   3.020722
    18  H    3.204294   1.946447   2.744909   0.962316   2.261262
    19  H    2.978993   4.274822   4.315471   5.292323   4.718234
    20  C    3.611281   3.433996   2.499128   4.736657   3.521775
    21  C    4.809232   4.593202   3.746141   5.925040   4.446128
    22  C    5.609783   5.049661   4.286001   6.297121   4.661059
    23  N    5.238423   4.335896   3.649725   5.419068   3.867519
    24  C    4.193669   3.111456   2.412609   4.098906   2.783013
    25  H    3.277621   3.521801   2.640502   4.773752   3.858004
    26  H    5.425505   5.447915   4.626914   6.806416   5.346501
    27  O    6.762630   6.217654   5.499731   7.458884   5.744183
    28  O    4.460685   3.085092   2.674474   3.693559   2.702196
                    6          7          8          9         10
     6  O    0.000000
     7  H    2.060442   0.000000
     8  N    2.348792   2.076187   0.000000
     9  C    1.432147   3.096703   3.364235   0.000000
    10  H    2.751009   3.811285   3.074384   2.158151   0.000000
    11  O    3.600148   4.414810   4.547588   2.464109   2.024093
    12  C    2.404453   4.398665   4.250175   1.513815   2.705391
    13  H    2.077863   3.345922   4.164461   1.103872   3.050428
    14  O    2.911604   4.838975   4.040888   2.447812   2.563942
    15  H    3.341461   5.217363   5.183861   2.134309   3.097834
    16  H    2.597661   4.612608   4.647808   2.136901   3.701462
    17  H    3.816188   4.294081   4.828005   2.785945   2.788919
    18  H    3.677066   2.530141   3.822434   3.769194   4.022694
    19  H    3.559968   5.357021   4.449250   2.862255   2.352285
    20  C    2.717441   3.259314   1.372022   3.609937   3.135855
    21  C    4.060259   4.386909   2.384804   4.929579   4.168480
    22  C    4.967214   4.701042   2.814170   5.924222   5.043934
    23  N    4.652718   3.848383   2.319661   5.656771   4.895978
    24  C    3.592654   2.540222   1.385521   4.587693   4.087166
    25  H    2.289570   3.520369   2.079250   2.981434   2.801937
    26  H    4.698252   5.328245   3.371757   5.453288   4.670580
    27  O    6.170858   5.873541   4.029595   7.114346   6.128209
    28  O    4.029921   2.420685   2.282789   4.941344   4.594924
                   11         12         13         14         15
    11  O    0.000000
    12  C    3.247364   0.000000
    13  H    2.615609   2.137408   0.000000
    14  O    3.822885   1.418823   3.374292   0.000000
    15  H    3.075742   1.101003   2.393687   2.093714   0.000000
    16  H    4.218146   1.097946   2.484074   2.028581   1.777988
    17  H    0.966545   3.811796   2.598562   4.583329   3.648550
    18  H    3.577395   5.274432   3.628978   5.930655   5.672039
    19  H    3.554744   1.955800   3.763093   0.960643   2.209517
    20  C    4.967629   4.003004   4.596893   3.379549   4.989676
    21  C    6.104739   5.177603   5.939445   4.315741   6.137621
    22  C    6.863382   6.411307   6.860134   5.656931   7.357817
    23  N    6.452461   6.457356   6.455803   5.976186   7.380232
    24  C    5.403551   5.596850   5.273049   5.383258   6.486274
    25  H    4.601509   3.057521   4.017201   2.362095   4.068009
    26  H    6.672504   5.408612   6.506036   4.339965   6.335698
    27  O    7.977101   7.524305   8.067686   6.665227   8.459214
    28  O    5.506043   6.167441   5.416736   6.182317   6.975622
                   16         17         18         19         20
    16  H    0.000000
    17  H    4.654741   0.000000
    18  H    5.806765   3.013388   0.000000
    19  H    2.789302   4.429335   6.118661   0.000000
    20  C    4.356910   5.464372   5.049499   3.809129   0.000000
    21  C    5.508943   6.650958   6.142606   4.638543   1.352325
    22  C    6.776031   7.302257   6.302827   5.923407   2.429495
    23  N    6.857684   6.723448   5.256006   6.258946   2.684633
    24  C    6.011055   5.561220   3.931669   5.709923   2.411803
    25  H    3.369726   5.179102   5.266207   2.921295   1.089160
    26  H    5.684787   7.314503   7.105426   4.629358   2.128727
    27  O    7.876968   8.441140   7.419695   6.883012   3.575238
    28  O    6.592009   5.457638   3.258217   6.487962   3.530390
                   21         22         23         24         25
    21  C    0.000000
    22  C    1.449104   0.000000
    23  N    2.381714   1.404968   0.000000
    24  C    2.826622   2.493864   1.371353   0.000000
    25  H    2.149334   3.441836   3.770335   3.354307   0.000000
    26  H    1.085676   2.186262   3.374856   3.912272   2.509118
    27  O    2.388880   1.218476   2.273248   3.566917   4.519034
    28  O    4.049880   3.604801   2.286777   1.223687   4.360368
                   26         27         28
    26  H    0.000000
    27  O    2.699366   0.000000
    28  O    5.135423   4.558937   0.000000
 Stoichiometry    C9H11N2O6(1-)
 Framework group  C1[X(C9H11N2O6)]
 Deg. of freedom    78
 Full point group                 C1      NOp   1
 Largest Abelian subgroup         C1      NOp   1
 Largest concise Abelian subgroup C1      NOp   1
                         Standard orientation:                         
 ---------------------------------------------------------------------
 Center     Atomic      Atomic             Coordinates (Angstroms)
 Number     Number       Type             X           Y           Z
 ---------------------------------------------------------------------
      1          6           0       -2.033385   -0.184502    0.808263
      2          6           0       -1.143517   -1.351618    0.383568
      3          6           0       -0.393139   -0.751205   -0.813789
      4          8           0       -2.009890   -2.393883   -0.017966
      5          1           0       -0.454493   -1.684383    1.169715
      6          8           0       -1.176782    0.292176   -1.322917
      7          1           0       -0.217926   -1.512859   -1.583428
      8          7           0        0.926821   -0.231026   -0.418519
      9          6           0       -2.363285    0.460928   -0.538839
     10          1           0       -1.431858    0.513995    1.407245
     11          8           0       -3.151302   -0.541500    1.569715
     12          6           0       -2.733138    1.928266   -0.496869
     13          1           0       -3.193590   -0.095591   -1.007257
     14          8           0       -1.762705    2.728992    0.158994
     15          1           0       -3.724934    2.023153   -0.028311
     16          1           0       -2.808689    2.303005   -1.526115
     17          1           0       -3.460405   -1.391618    1.229179
     18          1           0       -1.485160   -3.185995   -0.170506
     19          1           0       -1.978543    2.780280    1.093670
     20          6           0        1.175375    1.105304   -0.231740
     21          6           0        2.393702    1.567504    0.129969
     22          6           0        3.493948    0.645916    0.330072
     23          7           0        3.134472   -0.696064    0.120780
     24          6           0        1.903987   -1.193796   -0.223864
     25          1           0        0.317843    1.756894   -0.394032
     26          1           0        2.574648    2.628633    0.271231
     27          8           0        4.635427    0.926917    0.650613
     28          8           0        1.669099   -2.388535   -0.345670
 ---------------------------------------------------------------------
 Rotational constants (GHZ):           0.7959483           0.3349067           0.2649263
 Standard basis: Aug-CC-pVDZ (5D, 7F)
 There are   524 symmetry adapted cartesian basis functions of A   symmetry.
 There are   490 symmetry adapted basis functions of A   symmetry.
   490 basis functions,   852 primitive gaussians,   524 cartesian basis functions
    64 alpha electrons       64 beta electrons
       nuclear repulsion energy      1308.6805490983 Hartrees.
 NAtoms=   28 NActive=   28 NUniq=   28 SFac= 1.00D+00 NAtFMM=   60 NAOKFM=F Big=F
 Integral buffers will be    131072 words long.
 Raffenetti 2 integral format.
 Two-electron integral symmetry is turned on.
 Nuclear repulsion after empirical dispersion term =     1308.6605768097 Hartrees.
 One-electron integrals computed using PRISM.
 NBasis=   490 RedAO= T EigKep=  3.54D-06  NBF=   490
 NBsUse=   490 1.00D-06 EigRej= -1.00D+00 NBFU=   490
 ExpMin= 2.97D-02 ExpMax= 1.17D+04 ExpMxC= 4.01D+02 IAcc=3 IRadAn=         5 AccDes= 0.00D+00
 Harris functional with IExCor= 1009 and IRadAn=       5 diagonalized for initial guess.
 HarFok:  IExCor= 1009 AccDes= 0.00D+00 IRadAn=         5 IDoV= 1 UseB2=F ITyADJ=14
 ICtDFT=  3500011 ScaDFX=  1.000000  1.000000  1.000000  1.000000
 FoFCou: FMM=F IPFlag=           0 FMFlag=      100000 FMFlg1=           0
         NFxFlg=           0 DoJE=T BraDBF=F KetDBF=T FulRan=T
         wScrn=  0.000000 ICntrl=       500 IOpCl=  0 I1Cent=   200000004 NGrid=           0
         NMat0=    1 NMatS0=      1 NMatT0=    0 NMatD0=    1 NMtDS0=    0 NMtDT0=    0
 Petite list used in FoFCou.
 Requested convergence on RMS density matrix=1.00D-08 within 128 cycles.
 Requested convergence on MAX density matrix=1.00D-06.
 Requested convergence on             energy=1.00D-06.
 No special actions if energy rises.
 EnCoef did     3 forward-backward iterations
 SCF Done:  E(RPBE1PBE) =  -909.646345173     A.U. after   17 cycles
            NFock= 17  Conv=0.27D-08     -V/T= 2.0053

 **********************************************************************

            Population analysis using the SCF Density.

 **********************************************************************

 Orbital symmetries:
       Occupied  (A) (A) (A) (A) (A) (A) (A) (A) (A) (A) (A) (A)
                 (A) (A) (A) (A) (A) (A) (A) (A) (A) (A) (A) (A)
                 (A) (A) (A) (A) (A) (A) (A) (A) (A) (A) (A) (A)
                 (A) (A) (A) (A) (A) (A) (A) (A) (A) (A) (A) (A)
                 (A) (A) (A) (A) (A) (A) (A) (A) (A) (A) (A) (A)
                 (A) (A) (A) (A)
       Virtual   (A) (A) (A) (A) (A) (A) (A) (A) (A) (A) (A) (A)
                 (A) (A) (A) (A) (A) (A) (A) (A) (A) (A) (A) (A)
                 (A) (A) (A) (A) (A) (A) (A) (A) (A) (A) (A) (A)
                 (A) (A) (A) (A) (A) (A) (A) (A) (A) (A) (A) (A)
                 (A) (A) (A) (A) (A) (A) (A) (A) (A) (A) (A) (A)
                 (A) (A) (A) (A) (A) (A) (A) (A) (A) (A) (A) (A)
                 (A) (A) (A) (A) (A) (A) (A) (A) (A) (A) (A) (A)
                 (A) (A) (A) (A) (A) (A) (A) (A) (A) (A) (A) (A)
                 (A) (A) (A) (A) (A) (A) (A) (A) (A) (A) (A) (A)
                 (A) (A) (A) (A) (A) (A) (A) (A) (A) (A) (A) (A)
                 (A) (A) (A) (A) (A) (A) (A) (A) (A) (A) (A) (A)
                 (A) (A) (A) (A) (A) (A) (A) (A) (A) (A) (A) (A)
                 (A) (A) (A) (A) (A) (A) (A) (A) (A) (A) (A) (A)
                 (A) (A) (A) (A) (A) (A) (A) (A) (A) (A) (A) (A)
                 (A) (A) (A) (A) (A) (A) (A) (A) (A) (A) (A) (A)
                 (A) (A) (A) (A) (A) (A) (A) (A) (A) (A) (A) (A)
                 (A) (A) (A) (A) (A) (A) (A) (A) (A) (A) (A) (A)
                 (A) (A) (A) (A) (A) (A) (A) (A) (A) (A) (A) (A)
                 (A) (A) (A) (A) (A) (A) (A) (A) (A) (A) (A) (A)
                 (A) (A) (A) (A) (A) (A) (A) (A) (A) (A) (A) (A)
                 (A) (A) (A) (A) (A) (A) (A) (A) (A) (A) (A) (A)
                 (A) (A) (A) (A) (A) (A) (A) (A) (A) (A) (A) (A)
                 (A) (A) (A) (A) (A) (A) (A) (A) (A) (A) (A) (A)
                 (A) (A) (A) (A) (A) (A) (A) (A) (A) (A) (A) (A)
                 (A) (A) (A) (A) (A) (A) (A) (A) (A) (A) (A) (A)
                 (A) (A) (A) (A) (A) (A) (A) (A) (A) (A) (A) (A)
                 (A) (A) (A) (A) (A) (A) (A) (A) (A) (A) (A) (A)
                 (A) (A) (A) (A) (A) (A) (A) (A) (A) (A) (A) (A)
                 (A) (A) (A) (A) (A) (A) (A) (A) (A) (A) (A) (A)
                 (A) (A) (A) (A) (A) (A) (A) (A) (A) (A) (A) (A)
                 (A) (A) (A) (A) (A) (A) (A) (A) (A) (A) (A) (A)
                 (A) (A) (A) (A) (A) (A) (A) (A) (A) (A) (A) (A)
                 (A) (A) (A) (A) (A) (A) (A) (A) (A) (A) (A) (A)
                 (A) (A) (A) (A) (A) (A) (A) (A) (A) (A) (A) (A)
                 (A) (A) (A) (A) (A) (A) (A) (A) (A) (A) (A) (A)
                 (A) (A) (A) (A) (A) (A)
 The electronic state is 1-A.
 Alpha  occ. eigenvalues --  -19.15733 -19.15683 -19.15365 -19.14754 -19.02447
 Alpha  occ. eigenvalues --  -19.00592 -14.30579 -14.18306 -10.21408 -10.20752
 Alpha  occ. eigenvalues --  -10.20319 -10.20162 -10.19574 -10.18300 -10.14771
 Alpha  occ. eigenvalues --  -10.14146 -10.08231  -1.01824  -0.99274  -0.98424
 Alpha  occ. eigenvalues --   -0.97484  -0.92510  -0.88145  -0.84269  -0.72818
 Alpha  occ. eigenvalues --   -0.71813  -0.68812  -0.65128  -0.60568  -0.55269
 Alpha  occ. eigenvalues --   -0.53973  -0.51552  -0.48392  -0.46751  -0.46348
 Alpha  occ. eigenvalues --   -0.44835  -0.42724  -0.41056  -0.39344  -0.39051
 Alpha  occ. eigenvalues --   -0.37756  -0.35564  -0.34089  -0.33795  -0.32299
 Alpha  occ. eigenvalues --   -0.31190  -0.30159  -0.29432  -0.29110  -0.28244
 Alpha  occ. eigenvalues --   -0.27329  -0.26165  -0.25537  -0.23869  -0.23135
 Alpha  occ. eigenvalues --   -0.22102  -0.20318  -0.19822  -0.19105  -0.13274
 Alpha  occ. eigenvalues --   -0.09457  -0.09343  -0.07640  -0.07459
 Alpha virt. eigenvalues --    0.06213   0.07513   0.07936   0.09303   0.10616
 Alpha virt. eigenvalues --    0.10742   0.11571   0.12026   0.12192   0.13363
 Alpha virt. eigenvalues --    0.13853   0.14150   0.14912   0.15461   0.15841
 Alpha virt. eigenvalues --    0.16286   0.16376   0.16893   0.17436   0.17651
 Alpha virt. eigenvalues --    0.18446   0.18991   0.19098   0.19537   0.19712
 Alpha virt. eigenvalues --    0.19837   0.20249   0.20409   0.20904   0.21159
 Alpha virt. eigenvalues --    0.21833   0.22085   0.22191   0.22811   0.22925
 Alpha virt. eigenvalues --    0.23263   0.23797   0.24387   0.24749   0.25103
 Alpha virt. eigenvalues --    0.25706   0.26199   0.26498   0.26817   0.27423
 Alpha virt. eigenvalues --    0.27739   0.28457   0.28823   0.29035   0.29523
 Alpha virt. eigenvalues --    0.29788   0.30416   0.30643   0.31064   0.31197
 Alpha virt. eigenvalues --    0.32037   0.32521   0.32858   0.33192   0.33700
 Alpha virt. eigenvalues --    0.33901   0.34154   0.34641   0.35201   0.35381
 Alpha virt. eigenvalues --    0.36133   0.36261   0.36339   0.37021   0.37332
 Alpha virt. eigenvalues --    0.37477   0.37992   0.38421   0.38892   0.39080
 Alpha virt. eigenvalues --    0.39431   0.39776   0.39993   0.40715   0.40817
 Alpha virt. eigenvalues --    0.41303   0.41567   0.41763   0.42126   0.42766
 Alpha virt. eigenvalues --    0.43334   0.43459   0.43945   0.44397   0.44542
 Alpha virt. eigenvalues --    0.44909   0.45328   0.45798   0.45930   0.46303
 Alpha virt. eigenvalues --    0.47006   0.47485   0.48104   0.48292   0.48533
 Alpha virt. eigenvalues --    0.48922   0.49727   0.49861   0.50175   0.51598
 Alpha virt. eigenvalues --    0.51991   0.52258   0.52826   0.53574   0.53925
 Alpha virt. eigenvalues --    0.54368   0.55028   0.55414   0.55897   0.56289
 Alpha virt. eigenvalues --    0.56736   0.58250   0.58333   0.59228   0.59301
 Alpha virt. eigenvalues --    0.59953   0.60664   0.61058   0.61338   0.61702
 Alpha virt. eigenvalues --    0.62761   0.63271   0.63950   0.64794   0.65157
 Alpha virt. eigenvalues --    0.65549   0.66699   0.67043   0.67346   0.67621
 Alpha virt. eigenvalues --    0.68355   0.69026   0.69352   0.69783   0.70007
 Alpha virt. eigenvalues --    0.71000   0.72363   0.72681   0.73173   0.73457
 Alpha virt. eigenvalues --    0.73783   0.74071   0.74687   0.75204   0.76018
 Alpha virt. eigenvalues --    0.76445   0.76823   0.77725   0.78047   0.78403
 Alpha virt. eigenvalues --    0.79136   0.79547   0.79680   0.80636   0.81461
 Alpha virt. eigenvalues --    0.81806   0.82542   0.82867   0.83863   0.84362
 Alpha virt. eigenvalues --    0.84567   0.85451   0.85915   0.86117   0.86622
 Alpha virt. eigenvalues --    0.87082   0.87939   0.88445   0.89004   0.90137
 Alpha virt. eigenvalues --    0.90429   0.91031   0.91550   0.92007   0.92431
 Alpha virt. eigenvalues --    0.93035   0.94118   0.94553   0.94796   0.95984
 Alpha virt. eigenvalues --    0.96209   0.97990   0.98131   0.98650   0.99941
 Alpha virt. eigenvalues --    1.01001   1.01046   1.01512   1.02658   1.03224
 Alpha virt. eigenvalues --    1.03982   1.04721   1.05430   1.06603   1.07583
 Alpha virt. eigenvalues --    1.08101   1.09241   1.10330   1.11186   1.11706
 Alpha virt. eigenvalues --    1.12547   1.13951   1.14357   1.15949   1.17428
 Alpha virt. eigenvalues --    1.18201   1.18883   1.19450   1.19950   1.20862
 Alpha virt. eigenvalues --    1.21599   1.22169   1.22890   1.23898   1.24109
 Alpha virt. eigenvalues --    1.24905   1.27188   1.27357   1.28049   1.28681
 Alpha virt. eigenvalues --    1.29997   1.30243   1.31488   1.32078   1.33092
 Alpha virt. eigenvalues --    1.33458   1.34606   1.35440   1.36849   1.38663
 Alpha virt. eigenvalues --    1.39163   1.40865   1.41178   1.43026   1.43925
 Alpha virt. eigenvalues --    1.44812   1.44921   1.45937   1.47264   1.47637
 Alpha virt. eigenvalues --    1.48158   1.50163   1.51911   1.52783   1.53325
 Alpha virt. eigenvalues --    1.53807   1.54888   1.55938   1.56537   1.57390
 Alpha virt. eigenvalues --    1.59398   1.60248   1.61001   1.61827   1.62135
 Alpha virt. eigenvalues --    1.63859   1.64058   1.65148   1.66312   1.66793
 Alpha virt. eigenvalues --    1.68022   1.69447   1.71043   1.71505   1.71892
 Alpha virt. eigenvalues --    1.72426   1.73198   1.74558   1.75233   1.75890
 Alpha virt. eigenvalues --    1.76704   1.77679   1.78476   1.80135   1.81070
 Alpha virt. eigenvalues --    1.82571   1.83066   1.84761   1.85403   1.86542
 Alpha virt. eigenvalues --    1.88382   1.89409   1.89930   1.90744   1.91384
 Alpha virt. eigenvalues --    1.92155   1.93242   1.93441   1.94516   1.95952
 Alpha virt. eigenvalues --    1.96657   1.97480   1.98266   1.98298   1.99032
 Alpha virt. eigenvalues --    2.00827   2.01840   2.02534   2.03582   2.04859
 Alpha virt. eigenvalues --    2.05428   2.06590   2.07952   2.09287   2.10061
 Alpha virt. eigenvalues --    2.10827   2.13395   2.13542   2.14608   2.14892
 Alpha virt. eigenvalues --    2.17012   2.17147   2.18812   2.20451   2.21192
 Alpha virt. eigenvalues --    2.22839   2.23953   2.24966   2.25651   2.26918
 Alpha virt. eigenvalues --    2.28154   2.28725   2.29773   2.30767   2.32257
 Alpha virt. eigenvalues --    2.34025   2.34890   2.36021   2.36558   2.39178
 Alpha virt. eigenvalues --    2.39227   2.40795   2.42122   2.42399   2.44098
 Alpha virt. eigenvalues --    2.45817   2.46748   2.47156   2.48145   2.51011
 Alpha virt. eigenvalues --    2.52141   2.54016   2.55701   2.56352   2.57963
 Alpha virt. eigenvalues --    2.61533   2.61967   2.63659   2.64501   2.66211
 Alpha virt. eigenvalues --    2.67356   2.68348   2.68833   2.70511   2.72068
 Alpha virt. eigenvalues --    2.74106   2.75393   2.77228   2.78748   2.79963
 Alpha virt. eigenvalues --    2.81667   2.83318   2.85851   2.86209   2.86938
 Alpha virt. eigenvalues --    2.89357   2.91456   2.93728   2.94787   2.97978
 Alpha virt. eigenvalues --    2.98364   2.99542   3.05404   3.07682   3.09459
 Alpha virt. eigenvalues --    3.09717   3.16785   3.21883   3.24063   3.30430
 Alpha virt. eigenvalues --    3.32284   3.32773   3.40910   3.42416   3.49260
 Alpha virt. eigenvalues --    3.51183   3.53174   3.55227   3.56992   3.58778
 Alpha virt. eigenvalues --    3.59766   3.60575   3.61094   3.61432   3.62571
 Alpha virt. eigenvalues --    3.63020   3.64029   3.64449   3.65034   3.67575
 Alpha virt. eigenvalues --    3.69256   3.70881   3.72059   3.73378   3.75482
 Alpha virt. eigenvalues --    3.77723   3.79691   3.81811   3.82926   3.86082
 Alpha virt. eigenvalues --    3.90637   3.91705   3.98655   4.00153   4.04227
 Alpha virt. eigenvalues --    4.10119   4.13834   4.17953   4.24572   4.37126
 Alpha virt. eigenvalues --    4.70028
          Condensed to atoms (all electrons):
               1          2          3          4          5          6
     1  C    8.559711  -2.053599   1.125374   0.124760   0.310635   0.172418
     2  C   -2.053599   9.944156  -3.087220  -0.631477  -1.212637  -0.133148
     3  C    1.125374  -3.087220  11.265867   0.082106   0.540780  -0.118757
     4  O    0.124760  -0.631477   0.082106   8.725848   0.005485   0.007348
     5  H    0.310635  -1.212637   0.540780   0.005485   2.165971   0.024155
     6  O    0.172418  -0.133148  -0.118757   0.007348   0.024155   9.582250
     7  H   -0.077976   0.285132  -0.748368   0.018653   0.070114  -0.335255
     8  N   -0.007553   0.497414  -0.776483   0.006434  -0.193187  -0.125286
     9  C   -1.835487   0.557588  -1.687053   0.117231   0.002896  -0.173934
    10  H   -0.513570   0.132244  -0.204520   0.022693  -0.175013   0.039279
    11  O   -0.284632   0.024876   0.007438  -0.018467   0.021106  -0.021029
    12  C   -0.219656  -0.126361   0.039336   0.013058   0.031761  -0.101655
    13  H    0.310293  -0.064797   0.206103  -0.013593  -0.005450  -0.084506
    14  O   -0.053266   0.034387  -0.004993  -0.001237  -0.002899   0.003960
    15  H    0.058384   0.049703   0.015410  -0.001918   0.001675   0.093125
    16  H   -0.002482  -0.043561  -0.070573   0.001296  -0.000055  -0.093310
    17  H   -0.145890   0.003423   0.003642   0.020184  -0.002482   0.003217
    18  H   -0.043495   0.129383  -0.067114   0.322974  -0.094714   0.004653
    19  H   -0.061366   0.007554  -0.019395  -0.000512  -0.000456  -0.013785
    20  C   -0.229425   0.577205  -1.576234  -0.016588  -0.114372   0.294514
    21  C    0.022949  -0.072930   0.079220   0.003863   0.033146  -0.031524
    22  C   -0.000183   0.023145  -0.201766  -0.000101  -0.023897   0.012321
    23  N   -0.023489   0.048972  -0.035146  -0.002429  -0.001111   0.004087
    24  C    0.078734  -0.159452   0.069055   0.006131   0.019278  -0.069349
    25  H    0.026564  -0.087587   0.238116  -0.003107  -0.003959  -0.211546
    26  H   -0.002375   0.005536   0.017969   0.000111   0.000196   0.000997
    27  O    0.000268   0.001234  -0.001136  -0.000011   0.000740   0.000464
    28  O   -0.024842   0.018857   0.104344   0.000508   0.022057   0.003316
               7          8          9         10         11         12
     1  C   -0.077976  -0.007553  -1.835487  -0.513570  -0.284632  -0.219656
     2  C    0.285132   0.497414   0.557588   0.132244   0.024876  -0.126361
     3  C   -0.748368  -0.776483  -1.687053  -0.204520   0.007438   0.039336
     4  O    0.018653   0.006434   0.117231   0.022693  -0.018467   0.013058
     5  H    0.070114  -0.193187   0.002896  -0.175013   0.021106   0.031761
     6  O   -0.335255  -0.125286  -0.173934   0.039279  -0.021029  -0.101655
     7  H    2.176842  -0.054940   0.134239  -0.026751   0.008685   0.014977
     8  N   -0.054940   7.982245   0.117330   0.041551  -0.009691   0.042435
     9  C    0.134239   0.117330   9.183864  -0.190310   0.199446  -0.133906
    10  H   -0.026751   0.041551  -0.190310   2.361966  -0.187970  -0.082932
    11  O    0.008685  -0.009691   0.199446  -0.187970   8.536838   0.024791
    12  C    0.014977   0.042435  -0.133906  -0.082932   0.024791   5.167750
    13  H   -0.000839  -0.015648  -1.233145   0.114540  -0.023645   0.004143
    14  O   -0.000922   0.007883  -0.072605   0.000264   0.010540   0.163219
    15  H   -0.000770   0.001270  -0.032458  -0.035491   0.005741   0.008872
    16  H    0.000725  -0.003123   0.343866   0.036167  -0.002851   0.052040
    17  H    0.001347   0.000124   0.007044   0.033386   0.352863  -0.011708
    18  H   -0.022983   0.009414  -0.023072   0.004048   0.001526  -0.004064
    19  H    0.000500   0.000891   0.060008   0.011951   0.000099   0.018407
    20  C    0.006635   0.215288   0.240390   0.108547  -0.016897  -0.084138
    21  C   -0.014272  -0.542256   0.040914  -0.026333   0.004175  -0.019430
    22  C    0.000196   0.003363   0.023582   0.019410  -0.000728  -0.011189
    23  N   -0.000183   0.035954   0.008182  -0.001725   0.000224  -0.001047
    24  C    0.083091  -0.164744  -0.104990  -0.001071   0.000228   0.011992
    25  H    0.027728  -0.004660  -0.155972  -0.028413  -0.002599   0.036405
    26  H   -0.002185   0.060527   0.003797   0.000500   0.000088  -0.001862
    27  O   -0.000087  -0.017390  -0.000063  -0.000695  -0.000009   0.000173
    28  O    0.010031  -0.150951   0.014668  -0.002809   0.000163   0.000924
              13         14         15         16         17         18
     1  C    0.310293  -0.053266   0.058384  -0.002482  -0.145890  -0.043495
     2  C   -0.064797   0.034387   0.049703  -0.043561   0.003423   0.129383
     3  C    0.206103  -0.004993   0.015410  -0.070573   0.003642  -0.067114
     4  O   -0.013593  -0.001237  -0.001918   0.001296   0.020184   0.322974
     5  H   -0.005450  -0.002899   0.001675  -0.000055  -0.002482  -0.094714
     6  O   -0.084506   0.003960   0.093125  -0.093310   0.003217   0.004653
     7  H   -0.000839  -0.000922  -0.000770   0.000725   0.001347  -0.022983
     8  N   -0.015648   0.007883   0.001270  -0.003123   0.000124   0.009414
     9  C   -1.233145  -0.072605  -0.032458   0.343866   0.007044  -0.023072
    10  H    0.114540   0.000264  -0.035491   0.036167   0.033386   0.004048
    11  O   -0.023645   0.010540   0.005741  -0.002851   0.352863   0.001526
    12  C    0.004143   0.163219   0.008872   0.052040  -0.011708  -0.004064
    13  H    2.450567   0.026884  -0.106470  -0.021680   0.003106   0.002767
    14  O    0.026884   8.367806  -0.033620  -0.177381   0.001447   0.000159
    15  H   -0.106470  -0.033620   1.652262  -0.394407   0.002217   0.000322
    16  H   -0.021680  -0.177381  -0.394407   1.564206  -0.002226  -0.000807
    17  H    0.003106   0.001447   0.002217  -0.002226   0.646830  -0.002037
    18  H    0.002767   0.000159   0.000322  -0.000807  -0.002037   0.622500
    19  H    0.005262   0.317551  -0.078648   0.033563  -0.000390  -0.000018
    20  C   -0.008263  -0.019811  -0.015813   0.039045  -0.000663   0.009153
    21  C   -0.010409  -0.013578  -0.002855   0.012664   0.000780  -0.002116
    22  C    0.001386   0.002565  -0.000362   0.000626  -0.000328   0.000645
    23  N   -0.000006   0.000383   0.000030  -0.000428   0.000178   0.002080
    24  C    0.006479  -0.001820   0.000465  -0.000269  -0.001901  -0.003258
    25  H    0.013673  -0.002465   0.001604  -0.014044   0.002615  -0.000641
    26  H    0.000129   0.002243  -0.000270   0.000092  -0.000070  -0.000036
    27  O   -0.000021   0.000016   0.000010  -0.000003  -0.000001   0.000036
    28  O   -0.000150  -0.000011   0.000068  -0.000016   0.000149   0.006945
              19         20         21         22         23         24
     1  C   -0.061366  -0.229425   0.022949  -0.000183  -0.023489   0.078734
     2  C    0.007554   0.577205  -0.072930   0.023145   0.048972  -0.159452
     3  C   -0.019395  -1.576234   0.079220  -0.201766  -0.035146   0.069055
     4  O   -0.000512  -0.016588   0.003863  -0.000101  -0.002429   0.006131
     5  H   -0.000456  -0.114372   0.033146  -0.023897  -0.001111   0.019278
     6  O   -0.013785   0.294514  -0.031524   0.012321   0.004087  -0.069349
     7  H    0.000500   0.006635  -0.014272   0.000196  -0.000183   0.083091
     8  N    0.000891   0.215288  -0.542256   0.003363   0.035954  -0.164744
     9  C    0.060008   0.240390   0.040914   0.023582   0.008182  -0.104990
    10  H    0.011951   0.108547  -0.026333   0.019410  -0.001725  -0.001071
    11  O    0.000099  -0.016897   0.004175  -0.000728   0.000224   0.000228
    12  C    0.018407  -0.084138  -0.019430  -0.011189  -0.001047   0.011992
    13  H    0.005262  -0.008263  -0.010409   0.001386  -0.000006   0.006479
    14  O    0.317551  -0.019811  -0.013578   0.002565   0.000383  -0.001820
    15  H   -0.078648  -0.015813  -0.002855  -0.000362   0.000030   0.000465
    16  H    0.033563   0.039045   0.012664   0.000626  -0.000428  -0.000269
    17  H   -0.000390  -0.000663   0.000780  -0.000328   0.000178  -0.001901
    18  H   -0.000018   0.009153  -0.002116   0.000645   0.002080  -0.003258
    19  H    0.535294   0.010700   0.000312  -0.000663  -0.000030  -0.000398
    20  C    0.010700   9.424064  -2.019491   0.026844  -0.014161  -1.072332
    21  C    0.000312  -2.019491   9.982285  -2.442708   0.452357   0.627709
    22  C   -0.000663   0.026844  -2.442708   9.160094  -0.455523  -0.542373
    23  N   -0.000030  -0.014161   0.452357  -0.455523   8.141768  -0.183960
    24  C   -0.000398  -1.072332   0.627709  -0.542373  -0.183960   6.812736
    25  H   -0.005933  -1.100318  -0.045760  -0.297553   0.077445   0.078686
    26  H   -0.000719   0.545291  -0.907372   0.151944  -0.073622  -0.094696
    27  O    0.000015   0.102812  -0.104391   0.063324  -0.117663   0.040822
    28  O    0.000037  -0.032286   0.003802   0.022866  -0.199209   0.146357
              25         26         27         28
     1  C    0.026564  -0.002375   0.000268  -0.024842
     2  C   -0.087587   0.005536   0.001234   0.018857
     3  C    0.238116   0.017969  -0.001136   0.104344
     4  O   -0.003107   0.000111  -0.000011   0.000508
     5  H   -0.003959   0.000196   0.000740   0.022057
     6  O   -0.211546   0.000997   0.000464   0.003316
     7  H    0.027728  -0.002185  -0.000087   0.010031
     8  N   -0.004660   0.060527  -0.017390  -0.150951
     9  C   -0.155972   0.003797  -0.000063   0.014668
    10  H   -0.028413   0.000500  -0.000695  -0.002809
    11  O   -0.002599   0.000088  -0.000009   0.000163
    12  C    0.036405  -0.001862   0.000173   0.000924
    13  H    0.013673   0.000129  -0.000021  -0.000150
    14  O   -0.002465   0.002243   0.000016  -0.000011
    15  H    0.001604  -0.000270   0.000010   0.000068
    16  H   -0.014044   0.000092  -0.000003  -0.000016
    17  H    0.002615  -0.000070  -0.000001   0.000149
    18  H   -0.000641  -0.000036   0.000036   0.006945
    19  H   -0.005933  -0.000719   0.000015   0.000037
    20  C   -1.100318   0.545291   0.102812  -0.032286
    21  C   -0.045760  -0.907372  -0.104391   0.003802
    22  C   -0.297553   0.151944   0.063324   0.022866
    23  N    0.077445  -0.073622  -0.117663  -0.199209
    24  C    0.078686  -0.094696   0.040822   0.146357
    25  H    3.492416  -0.241189   0.005396  -0.001567
    26  H   -0.241189   2.174888  -0.017595   0.002578
    27  O    0.005396  -0.017595   8.826732  -0.006103
    28  O   -0.001567   0.002578  -0.006103   8.805130
 Mulliken charges:
               1
     1  C    0.789195
     2  C    1.331960
     3  C    0.803998
     4  O   -0.789241
     5  H   -0.419762
     6  O   -0.733019
     7  H   -0.553364
     8  N    0.043791
     9  C    0.587949
    10  H   -0.448945
    11  O   -0.630306
    12  C    1.167664
    13  H   -0.556710
    14  O   -0.554697
    15  H   -0.188077
    16  H   -0.257074
    17  H    0.085144
    18  H    0.147749
    19  H    0.180167
    20  C    0.720302
    21  C    0.991250
    22  C    0.465064
    23  N   -0.661929
    24  C    0.418850
    25  H   -0.793336
    26  H   -0.624897
    27  O   -0.776875
    28  O   -0.744853
 Sum of Mulliken charges =  -1.00000
 Mulliken charges with hydrogens summed into heavy atoms:
               1
     1  C    0.340251
     2  C    0.912198
     3  C    0.250634
     4  O   -0.641491
     6  O   -0.733019
     8  N    0.043791
     9  C    0.031239
    11  O   -0.545163
    12  C    0.722514
    14  O   -0.374530
    20  C   -0.073033
    21  C    0.366353
    22  C    0.465064
    23  N   -0.661929
    24  C    0.418850
    27  O   -0.776875
    28  O   -0.744853
 Electronic spatial extent (au):  <R**2>=           4116.9613
 Charge=             -1.0000 electrons
 Dipole moment (field-independent basis, Debye):
    X=            -16.4044    Y=              1.8766    Z=             -0.6402  Tot=             16.5238
 Quadrupole moment (field-independent basis, Debye-Ang):
   XX=           -174.0717   YY=           -113.8913   ZZ=           -104.9031
   XY=              2.5940   XZ=             -4.8179   YZ=              0.8802
 Traceless Quadrupole moment (field-independent basis, Debye-Ang):
   XX=            -43.1164   YY=             17.0641   ZZ=             26.0523
   XY=              2.5940   XZ=             -4.8179   YZ=              0.8802
 Octapole moment (field-independent basis, Debye-Ang**2):
  XXX=           -335.0189  YYY=             -7.7159  ZZZ=             -2.1385  XYY=            -58.6798
  XXY=             -3.9368  XXZ=            -49.7020  XZZ=             -8.3063  YZZ=              1.9748
  YYZ=             11.6269  XYZ=            -12.2803
 Hexadecapole moment (field-independent basis, Debye-Ang**3):
 XXXX=          -5005.8832 YYYY=          -1427.1062 ZZZZ=           -414.1344 XXXY=           -143.6316
 XXXZ=           -146.5626 YYYX=             98.2955 YYYZ=             18.1139 ZZZX=              2.9963
 ZZZY=             12.6925 XXYY=           -929.6430 XXZZ=           -723.3621 YYZZ=           -276.7386
 XXYZ=            -34.0708 YYXZ=            -25.0337 ZZXY=            -24.0039
 N-N= 1.308660576810D+03 E-N=-4.766579725831D+03  KE= 9.048926988707D+02
 Calling FoFJK, ICntrl=      2127 FMM=F ISym2X=0 I1Cent= 0 IOpClX= 0 NMat=1 NMatS=1 NMatT=0.
 ***** Axes restored to original set *****
 -------------------------------------------------------------------
 Center     Atomic                   Forces (Hartrees/Bohr)
 Number     Number              X              Y              Z
 -------------------------------------------------------------------
      1        6           0.004083753    0.000311051   -0.002192433
      2        6           0.003499840    0.004386047   -0.000872324
      3        6           0.017898144    0.003878838    0.007164570
      4        8          -0.006738372   -0.005114097    0.000358132
      5        1           0.000565033    0.000277760   -0.001741113
      6        8          -0.015621806    0.005910388   -0.000913852
      7        1          -0.000638595   -0.001233039    0.000515863
      8        7          -0.031556660    0.001448138   -0.007897234
      9        6           0.007443805   -0.000597626   -0.003641381
     10        1           0.000295007   -0.000697549   -0.000680830
     11        8          -0.006183427   -0.000858668    0.003200382
     12        6           0.001330914   -0.000697141    0.000837587
     13        1          -0.001914292   -0.000540768    0.000101995
     14        8          -0.003675561    0.002953081   -0.000221268
     15        1          -0.000957861    0.000259557    0.000491938
     16        1           0.000325176    0.000137354   -0.000455522
     17        1           0.001906607    0.000103261   -0.000680792
     18        1           0.002380370    0.002050810   -0.000092613
     19        1           0.001134950   -0.001561763   -0.000418381
     20        6          -0.004056960    0.000145656   -0.000503251
     21        6          -0.000788286    0.010124737    0.001190144
     22        6          -0.037992366   -0.057940149   -0.014909263
     23        7           0.000548728   -0.007668363    0.000306001
     24        6           0.069506128    0.048684853    0.020744360
     25        1           0.001868182   -0.000305235   -0.000092989
     26        1          -0.003279267    0.004916766   -0.000408892
     27        8           0.023417792    0.020440828    0.007589401
     28        8          -0.022800979   -0.028814723   -0.006778236
 -------------------------------------------------------------------
 Cartesian Forces:  Max     0.069506128 RMS     0.014359087

 GradGradGradGradGradGradGradGradGradGradGradGradGradGradGradGradGradGrad
 Berny optimization.
 FormGI is forming the generalized inverse of G from B-inverse, IUseBI=4.
 Internal  Forces:  Max     0.032995759 RMS     0.007053712
 Search for a local minimum.
 Step number   1 out of a maximum of  166
 All quantities printed in internal units (Hartrees-Bohrs-Radians)
 Mixed Optimization -- RFO/linear search
 Second derivative matrix not updated -- first step.
 ITU=  0
     Eigenvalues ---    0.00545   0.00583   0.00729   0.00914   0.01443
     Eigenvalues ---    0.01467   0.01493   0.01512   0.01706   0.01735
     Eigenvalues ---    0.01945   0.01953   0.02080   0.02255   0.02458
     Eigenvalues ---    0.03071   0.03731   0.04316   0.04907   0.04919
     Eigenvalues ---    0.05033   0.05549   0.05706   0.05943   0.06098
     Eigenvalues ---    0.06127   0.07099   0.07993   0.08200   0.09826
     Eigenvalues ---    0.11638   0.13194   0.14011   0.16000   0.16000
     Eigenvalues ---    0.16000   0.16000   0.16000   0.16008   0.16790
     Eigenvalues ---    0.18732   0.19925   0.22082   0.22446   0.24481
     Eigenvalues ---    0.24991   0.24998   0.24999   0.25000   0.26396
     Eigenvalues ---    0.28533   0.28718   0.30970   0.33257   0.33571
     Eigenvalues ---    0.33757   0.33910   0.34011   0.34029   0.34910
     Eigenvalues ---    0.35317   0.35408   0.37291   0.38693   0.42638
     Eigenvalues ---    0.43030   0.43207   0.43445   0.45799   0.46546
     Eigenvalues ---    0.48439   0.50226   0.53557   0.54089   0.54978
     Eigenvalues ---    0.55335   0.93768   0.96062
 RFO step:  Lambda=-2.17422646D-02 EMin= 5.45208632D-03
 Linear search not attempted -- first point.
 Iteration  1 RMS(Cart)=  0.10699684 RMS(Int)=  0.00309438
 Iteration  2 RMS(Cart)=  0.00473399 RMS(Int)=  0.00012744
 Iteration  3 RMS(Cart)=  0.00001300 RMS(Int)=  0.00012717
 Iteration  4 RMS(Cart)=  0.00000000 RMS(Int)=  0.00012717
 Variable       Old X    -DE/DX   Delta X   Delta X   Delta X     New X
                                 (Linear)    (Quad)   (Total)
    R1        2.88726  -0.00135   0.00000  -0.00472  -0.00469   2.88257
    R2        2.89079   0.00101   0.00000  -0.00003  -0.00004   2.89075
    R3        2.07742  -0.00066   0.00000  -0.00183  -0.00183   2.07559
    R4        2.64359   0.00498   0.00000   0.01037   0.01037   2.65396
    R5        2.90135  -0.00311   0.00000  -0.00849  -0.00850   2.89285
    R6        2.67124   0.00484   0.00000   0.01061   0.01061   2.68184
    R7        2.07312  -0.00097   0.00000  -0.00268  -0.00268   2.07044
    R8        2.64693   0.01224   0.00000   0.02725   0.02724   2.67417
    R9        2.07282   0.00038   0.00000   0.00106   0.00106   2.07388
   R10        2.78317  -0.00804   0.00000  -0.02140  -0.02140   2.76178
   R11        1.81851  -0.00034   0.00000  -0.00059  -0.00059   1.81792
   R12        2.70637  -0.00422   0.00000  -0.00985  -0.00985   2.69651
   R13        2.59275  -0.00954   0.00000  -0.01649  -0.01648   2.57627
   R14        2.61826   0.02408   0.00000   0.04834   0.04842   2.66668
   R15        2.86070   0.00153   0.00000   0.00462   0.00462   2.86532
   R16        2.08602   0.00166   0.00000   0.00470   0.00470   2.09071
   R17        1.82651  -0.00044   0.00000  -0.00079  -0.00079   1.82572
   R18        2.68119  -0.00122   0.00000  -0.00273  -0.00273   2.67846
   R19        2.08060   0.00109   0.00000   0.00306   0.00306   2.08365
   R20        2.07482   0.00045   0.00000   0.00125   0.00125   2.07607
   R21        1.81535  -0.00074   0.00000  -0.00129  -0.00129   1.81407
   R22        2.55552  -0.00505   0.00000  -0.00772  -0.00779   2.54774
   R23        2.05821  -0.00165   0.00000  -0.00445  -0.00445   2.05376
   R24        2.73841   0.01628   0.00000   0.03977   0.03969   2.77810
   R25        2.05163   0.00425   0.00000   0.01134   0.01134   2.06297
   R26        2.65501  -0.01813   0.00000  -0.04041  -0.04042   2.61459
   R27        2.30259   0.02880   0.00000   0.02932   0.02932   2.33190
   R28        2.59148  -0.02375   0.00000  -0.04620  -0.04613   2.54535
   R29        2.31243   0.03300   0.00000   0.03439   0.03439   2.34683
    A1        1.77534   0.00058   0.00000  -0.00501  -0.00498   1.77036
    A2        1.89455   0.00060   0.00000   0.00554   0.00552   1.90007
    A3        2.00621  -0.00123   0.00000  -0.00652  -0.00656   1.99965
    A4        1.90682   0.00037   0.00000   0.00355   0.00355   1.91036
    A5        1.99837  -0.00078   0.00000  -0.00363  -0.00371   1.99465
    A6        1.87846   0.00056   0.00000   0.00636   0.00640   1.88486
    A7        1.77491   0.00203   0.00000   0.00793   0.00792   1.78283
    A8        1.86004  -0.00249   0.00000  -0.00548  -0.00546   1.85458
    A9        1.98048   0.00167   0.00000   0.01159   0.01160   1.99208
   A10        1.94590   0.00142   0.00000   0.00751   0.00751   1.95341
   A11        1.95036  -0.00251   0.00000  -0.01487  -0.01489   1.93546
   A12        1.94427   0.00008   0.00000  -0.00480  -0.00480   1.93947
   A13        1.87689  -0.00341   0.00000  -0.01007  -0.01008   1.86681
   A14        1.93235   0.00046   0.00000  -0.01775  -0.01816   1.91419
   A15        1.94641  -0.00410   0.00000  -0.01794  -0.01829   1.92811
   A16        1.93004  -0.00033   0.00000  -0.00216  -0.00243   1.92761
   A17        1.91332   0.00893   0.00000   0.06445   0.06456   1.97788
   A18        1.86544  -0.00136   0.00000  -0.01527  -0.01592   1.84952
   A19        1.89415  -0.00543   0.00000  -0.02988  -0.02988   1.86427
   A20        1.93080   0.00008   0.00000  -0.00239  -0.00241   1.92839
   A21        2.14468   0.00597   0.00000   0.01954   0.01945   2.16413
   A22        2.00906  -0.00174   0.00000  -0.00888  -0.00897   2.00009
   A23        2.12929  -0.00423   0.00000  -0.01092  -0.01085   2.11844
   A24        1.82734  -0.00005   0.00000   0.00098   0.00089   1.82823
   A25        2.02333   0.00014   0.00000   0.00335   0.00322   2.02655
   A26        1.89988  -0.00016   0.00000  -0.00670  -0.00676   1.89312
   A27        1.90901   0.00138   0.00000   0.01779   0.01778   1.92679
   A28        1.90862   0.00015   0.00000   0.00146   0.00152   1.91015
   A29        1.89301  -0.00139   0.00000  -0.01607  -0.01607   1.87694
   A30        1.86319  -0.00341   0.00000  -0.01876  -0.01876   1.84443
   A31        1.97441   0.00423   0.00000   0.01805   0.01804   1.99245
   A32        1.89170  -0.00152   0.00000  -0.00789  -0.00787   1.88383
   A33        1.89827  -0.00045   0.00000   0.00079   0.00076   1.89903
   A34        1.95063  -0.00148   0.00000  -0.00747  -0.00744   1.94319
   A35        1.86270  -0.00135   0.00000  -0.00327  -0.00334   1.85936
   A36        1.88341   0.00047   0.00000  -0.00058  -0.00060   1.88280
   A37        1.90310  -0.00014   0.00000  -0.00080  -0.00080   1.90230
   A38        2.13236  -0.01064   0.00000  -0.03683  -0.03689   2.09547
   A39        2.00399   0.00612   0.00000   0.02279   0.02281   2.02680
   A40        2.14683   0.00453   0.00000   0.01406   0.01408   2.16091
   A41        2.09855  -0.00038   0.00000   0.00164   0.00149   2.10004
   A42        2.11649  -0.00405   0.00000  -0.02412  -0.02405   2.09244
   A43        2.06813   0.00442   0.00000   0.02247   0.02255   2.09068
   A44        1.97428   0.01799   0.00000   0.06326   0.06317   2.03745
   A45        2.21547  -0.02504   0.00000  -0.09069  -0.09064   2.12483
   A46        2.09342   0.00706   0.00000   0.02743   0.02748   2.12090
   A47        2.23153  -0.02382   0.00000  -0.09401  -0.09393   2.13759
   A48        1.99976   0.02109   0.00000   0.07689   0.07702   2.07678
   A49        2.12831  -0.03081   0.00000  -0.11305  -0.11315   2.01516
   A50        2.15509   0.00972   0.00000   0.03606   0.03595   2.19104
    D1        0.60702   0.00180   0.00000   0.00954   0.00951   0.61652
    D2       -1.43273   0.00028   0.00000  -0.00018  -0.00021  -1.43294
    D3        2.70418   0.00088   0.00000   0.00239   0.00239   2.70657
    D4       -1.40254   0.00088   0.00000   0.00575   0.00573  -1.39681
    D5        2.84090  -0.00063   0.00000  -0.00397  -0.00398   2.83692
    D6        0.69462  -0.00003   0.00000  -0.00139  -0.00138   0.69324
    D7        2.77652   0.00053   0.00000  -0.00220  -0.00219   2.77433
    D8        0.73677  -0.00098   0.00000  -0.01192  -0.01191   0.72487
    D9       -1.40950  -0.00039   0.00000  -0.00935  -0.00931  -1.41881
   D10       -0.61007  -0.00097   0.00000  -0.01361  -0.01358  -0.62365
   D11       -2.71484  -0.00276   0.00000  -0.03872  -0.03869  -2.75353
   D12        1.42935  -0.00090   0.00000  -0.01454  -0.01451   1.41484
   D13        1.39043   0.00013   0.00000  -0.00839  -0.00837   1.38206
   D14       -0.71435  -0.00166   0.00000  -0.03349  -0.03348  -0.74783
   D15       -2.85333   0.00020   0.00000  -0.00932  -0.00930  -2.86264
   D16       -2.78484   0.00059   0.00000  -0.00001  -0.00001  -2.78485
   D17        1.39357  -0.00119   0.00000  -0.02512  -0.02512   1.36845
   D18       -0.74542   0.00067   0.00000  -0.00094  -0.00094  -0.74636
   D19       -0.62297   0.00076   0.00000   0.01713   0.01709  -0.60588
   D20        1.42377   0.00001   0.00000   0.00279   0.00283   1.42660
   D21       -2.73590   0.00038   0.00000   0.00961   0.00962  -2.72628
   D22       -0.41381  -0.00067   0.00000   0.00047   0.00045  -0.41336
   D23       -2.52411   0.00160   0.00000   0.02002   0.01997  -2.50414
   D24        1.68436   0.00567   0.00000   0.06253   0.06229   1.74665
   D25        1.56256  -0.00191   0.00000   0.00126   0.00133   1.56389
   D26       -0.54774   0.00037   0.00000   0.02081   0.02085  -0.52689
   D27       -2.62246   0.00443   0.00000   0.06332   0.06318  -2.55928
   D28       -2.53205  -0.00263   0.00000  -0.01071  -0.01062  -2.54267
   D29        1.64084  -0.00035   0.00000   0.00884   0.00890   1.64974
   D30       -0.43388   0.00371   0.00000   0.05135   0.05123  -0.38266
   D31       -3.00076  -0.00011   0.00000  -0.01365  -0.01366  -3.01442
   D32        1.35996  -0.00182   0.00000  -0.02349  -0.02350   1.33646
   D33       -0.83199   0.00034   0.00000  -0.00595  -0.00594  -0.83793
   D34        0.03130   0.00003   0.00000  -0.01069  -0.01065   0.02065
   D35        2.14304  -0.00175   0.00000  -0.03999  -0.04026   2.10278
   D36       -2.08769   0.00184   0.00000  -0.02066  -0.02071  -2.10840
   D37       -1.78243  -0.00095   0.00000  -0.03546  -0.03531  -1.81774
   D38        1.34049  -0.00154   0.00000  -0.05110  -0.05097   1.28953
   D39        0.29417  -0.00198   0.00000  -0.01744  -0.01745   0.27673
   D40       -2.86609  -0.00257   0.00000  -0.03308  -0.03310  -2.89919
   D41        2.38658   0.00179   0.00000   0.00679   0.00667   2.39325
   D42       -0.77368   0.00120   0.00000  -0.00885  -0.00898  -0.78266
   D43        0.36874   0.00014   0.00000   0.01522   0.01517   0.38392
   D44        2.54781   0.00106   0.00000   0.02989   0.02990   2.57771
   D45       -1.66466   0.00028   0.00000   0.02179   0.02183  -1.64283
   D46       -3.14033  -0.00077   0.00000  -0.01358  -0.01345   3.12940
   D47        0.00461  -0.00088   0.00000  -0.01779  -0.01782  -0.01321
   D48        0.02120  -0.00018   0.00000   0.00306   0.00317   0.02436
   D49       -3.11705  -0.00028   0.00000  -0.00115  -0.00120  -3.11825
   D50        3.12247   0.00014   0.00000   0.01295   0.01277   3.13524
   D51       -0.02656  -0.00020   0.00000  -0.00091  -0.00064  -0.02720
   D52       -0.03761  -0.00032   0.00000  -0.00218  -0.00207  -0.03968
   D53        3.09654  -0.00066   0.00000  -0.01603  -0.01548   3.08106
   D54        0.93943   0.00046   0.00000   0.00636   0.00636   0.94579
   D55       -1.23398   0.00055   0.00000   0.00932   0.00935  -1.22462
   D56        3.00583   0.00108   0.00000   0.01393   0.01397   3.01980
   D57       -1.12075  -0.00059   0.00000  -0.01025  -0.01035  -1.13110
   D58        2.98903  -0.00050   0.00000  -0.00729  -0.00736   2.98167
   D59        0.94564   0.00003   0.00000  -0.00268  -0.00274   0.94291
   D60        3.08204  -0.00075   0.00000  -0.01285  -0.01283   3.06921
   D61        0.90863  -0.00066   0.00000  -0.00989  -0.00984   0.89880
   D62       -1.13475  -0.00013   0.00000  -0.00528  -0.00522  -1.13997
   D63       -1.57712   0.00138   0.00000   0.03296   0.03297  -1.54416
   D64        0.56386   0.00141   0.00000   0.03034   0.03031   0.59417
   D65        2.61912   0.00034   0.00000   0.02353   0.02354   2.64266
   D66        0.00365  -0.00023   0.00000  -0.00188  -0.00209   0.00156
   D67        3.13874  -0.00018   0.00000  -0.00408  -0.00426   3.13448
   D68       -3.14156  -0.00011   0.00000   0.00268   0.00264  -3.13893
   D69       -0.00647  -0.00007   0.00000   0.00049   0.00046  -0.00601
   D70       -0.00848  -0.00006   0.00000  -0.00332  -0.00360  -0.01208
   D71        3.13765  -0.00013   0.00000  -0.00513  -0.00515   3.13250
   D72        3.13943  -0.00007   0.00000  -0.00102  -0.00126   3.13817
   D73        0.00238  -0.00014   0.00000  -0.00283  -0.00281  -0.00043
   D74       -0.01161   0.00039   0.00000   0.00778   0.00790  -0.00371
   D75        3.12580   0.00036   0.00000   0.00910   0.00910   3.13490
   D76        0.03398  -0.00030   0.00000  -0.00531  -0.00533   0.02865
   D77       -3.10005   0.00024   0.00000   0.00950   0.01024  -3.08981
         Item               Value     Threshold  Converged?
 Maximum Force            0.032996     0.000450     NO 
 RMS     Force            0.007054     0.000300     NO 
 Maximum Displacement     0.434303     0.001800     NO 
 RMS     Displacement     0.107889     0.001200     NO 
 Predicted change in Energy=-1.191169D-02
 GradGradGradGradGradGradGradGradGradGradGradGradGradGradGradGradGradGrad

                          Input orientation:                          
 ---------------------------------------------------------------------
 Center     Atomic      Atomic             Coordinates (Angstroms)
 Number     Number       Type             X           Y           Z
 ---------------------------------------------------------------------
      1          6           0       -2.051076   -0.164681    0.810207
      2          6           0       -1.105500   -1.281251    0.378964
      3          6           0       -0.392510   -0.653868   -0.821652
      4          8           0       -1.927882   -2.372573   -0.004114
      5          1           0       -0.385297   -1.580614    1.148440
      6          8           0       -1.245689    0.355640   -1.327140
      7          1           0       -0.211161   -1.420521   -1.585685
      8          7           0        0.924836   -0.156025   -0.430952
      9          6           0       -2.431344    0.448537   -0.538642
     10          1           0       -1.487066    0.570271    1.400222
     11          8           0       -3.145610   -0.591083    1.579986
     12          6           0       -2.932102    1.879298   -0.503865
     13          1           0       -3.226083   -0.171912   -0.994119
     14          8           0       -2.054143    2.785639    0.141655
     15          1           0       -3.927823    1.879126   -0.030250
     16          1           0       -3.049365    2.238649   -1.535394
     17          1           0       -3.384070   -1.461486    1.235108
     18          1           0       -1.342537   -3.118481   -0.166721
     19          1           0       -2.257937    2.803646    1.079563
     20          6           0        1.215582    1.162080   -0.239488
     21          6           0        2.456708    1.532468    0.134776
     22          6           0        3.503961    0.520721    0.336891
     23          7           0        3.140534   -0.799498    0.138816
     24          6           0        1.892752   -1.160474   -0.217535
     25          1           0        0.400491    1.861185   -0.406887
     26          1           0        2.688202    2.589271    0.280830
     27          8           0        4.650870    0.831078    0.670070
     28          8           0        1.491603   -2.327196   -0.359386
 ---------------------------------------------------------------------
                    Distance matrix (angstroms):
                    1          2          3          4          5
     1  C    0.000000
     2  C    1.525390   0.000000
     3  C    2.377627   1.530830   0.000000
     4  O    2.356498   1.419171   2.445339   0.000000
     5  H    2.212258   1.095629   2.177193   2.082102   0.000000
     6  O    2.342571   2.368513   1.415110   3.107882   3.258504
     7  H    3.271501   2.163118   1.097448   2.520892   2.744338
     8  N    3.224376   2.458528   1.461470   3.637757   2.498075
     9  C    1.529717   2.364747   2.335002   2.915109   3.339162
    10  H    1.098354   2.148650   2.762842   3.290413   2.429731
    11  O    1.404415   2.465935   3.653952   2.676928   2.963904
    12  C    2.584733   3.755654   3.601034   4.397343   4.602968
    13  H    2.153203   2.759141   2.879438   2.740136   3.826886
    14  O    3.025122   4.182802   3.939441   5.161816   4.781509
    15  H    2.899258   4.256871   4.420499   4.698659   5.090049
    16  H    3.503487   4.453434   3.991862   4.986573   5.374662
    17  H    1.907646   2.440768   3.719132   2.118074   3.002389
    18  H    3.190823   1.931158   2.721361   0.962002   2.238525
    19  H    2.987693   4.301783   4.364497   5.298730   4.767940
    20  C    3.678752   3.426335   2.494503   4.736089   3.465765
    21  C    4.863810   4.545984   3.716566   5.873097   4.335411
    22  C    5.617138   4.949343   4.231355   6.163793   4.494502
    23  N    5.273194   4.280019   3.664165   5.308845   3.749796
    24  C    4.195431   3.059397   2.417443   4.013972   2.689221
    25  H    3.405237   3.572181   2.669527   4.848532   3.857782
    26  H    5.506837   5.420585   4.606973   6.783017   5.252341
    27  O    6.776965   6.138605   5.464977   7.348325   5.604291
    28  O    4.312192   2.895532   2.561953   3.438191   2.520650
                    6          7          8          9         10
     6  O    0.000000
     7  H    2.071676   0.000000
     8  N    2.403358   2.054957   0.000000
     9  C    1.426933   3.085270   3.411896   0.000000
    10  H    2.746422   3.808783   3.114157   2.160017   0.000000
    11  O    3.599634   4.395501   4.560885   2.465678   2.032689
    12  C    2.417294   4.411651   4.361631   1.516261   2.725294
    13  H    2.076337   3.316433   4.188978   1.106357   3.050882
    14  O    2.952262   4.906329   4.225586   2.463154   2.610253
    15  H    3.346159   5.207747   5.277376   2.131783   3.117154
    16  H    2.615787   4.631140   4.769542   2.140085   3.720498
    17  H    3.799965   4.245692   4.800693   2.775259   2.784587
    18  H    3.664078   2.485264   3.739913   3.747992   4.010373
    19  H    3.579050   5.397817   4.601233   2.862725   2.384329
    20  C    2.809126   3.243096   1.363302   3.728097   3.216084
    21  C    4.150888   4.335626   2.348976   5.051876   4.252121
    22  C    5.035417   4.611599   2.774789   5.999967   5.103281
    23  N    4.766793   3.820135   2.376555   5.749988   4.988196
    24  C    3.657818   2.523075   1.411144   4.624914   4.127443
    25  H    2.413181   3.540237   2.084383   3.167368   2.914614
    26  H    4.801060   5.288537   3.339572   5.609281   4.770981
    27  O    6.243740   5.813559   4.008734   7.194795   6.186711
    28  O    3.953090   2.285886   2.245069   4.808986   4.512650
                   11         12         13         14         15
    11  O    0.000000
    12  C    3.238950   0.000000
    13  H    2.609251   2.129375   0.000000
    14  O    3.829144   1.417378   3.377948   0.000000
    15  H    3.050680   1.102620   2.372391   2.088539   0.000000
    16  H    4.209778   1.098606   2.476896   2.025378   1.779439
    17  H    0.966129   3.793302   2.580196   4.582839   3.613376
    18  H    3.562274   5.255300   3.593689   5.954839   5.628357
    19  H    3.544372   1.953500   3.753853   0.959963   2.207928
    20  C    5.040244   4.217533   4.698659   3.670466   5.197361
    21  C    6.163122   5.437594   6.039324   4.681695   6.396065
    22  C    6.855522   6.631403   6.895275   6.005039   7.563826
    23  N    6.452598   6.668275   6.497016   6.311726   7.560773
    24  C    5.379626   5.709765   5.270940   5.592746   6.569120
    25  H    4.747222   3.334053   4.198853   2.679691   4.344707
    26  H    6.770216   5.719058   6.650443   4.748449   6.661297
    27  O    7.977191   7.744569   8.113069   7.004051   8.670803
    28  O    5.317800   6.106115   5.225390   6.242151   6.868163
                   16         17         18         19         20
    16  H    0.000000
    17  H    4.634512   0.000000
    18  H    5.786654   2.979700   0.000000
    19  H    2.789907   4.414037   6.120684   0.000000
    20  C    4.585646   5.496756   4.987231   4.062015   0.000000
    21  C    5.796982   6.655011   6.013027   4.973569   1.348204
    22  C    7.028713   7.223635   6.081608   6.242016   2.445451
    23  N    7.095644   6.649101   5.056577   6.558288   2.774228
[...]
 0.00002339,0.00001999,-0.00003408,0.00003630,-0.00003676,-0.00052511,0
 .00011748,0.00006185,-0.00006465,-0.00005491,-0.00007277,-0.03522100,0
 .00864413,-0.06041633,0.04877233,-0.06403961,0.11213862,-0.00032592,-0
 .00005890,-0.00039027,0.00066045,-0.00004484,0.00089803,-0.00640503,0.
 00015502,-0.00137221,0.00308401,-0.00029533,-0.00119183,-0.00012692,-0
 .00005499,0.00005538,0.00394433,-0.00179223,0.00039550,0.00096437,0.00
 017809,0.00013914,0.01111423,0.00560969,0.00104250,-0.00210377,0.00004
 419,0.00041493,0.00047499,-0.00012387,-0.00014935,0.00120092,0.0003158
 9,0.00020885,-0.00003319,0.00035963,0.00005416,0.00043011,0.00001040,0
 .00016642,0.00052406,-0.00064155,-0.00032730,0.00027040,-0.00011495,-0
 .00010286,-0.00012791,-0.00004146,0.00003350,-0.00082354,-0.00022764,-
 0.00014714,-0.00423519,-0.00016518,0.00163579,-0.00034321,0.00037201,0
 .00031623,-0.03346846,0.01896885,-0.00528202,-0.12345392,0.05962946,-0
 .01228468,0.88728722,-0.00006672,0.00032922,0.00071343,-0.00118522,0.0
 0406399,-0.00145397,0.00148718,-0.00078380,0.00107105,0.00654091,-0.00
 405901,-0.00099817,-0.00004782,-0.00040927,-0.00024638,0.00020524,-0.0
 0221280,0.00009500,-0.00138152,-0.00073634,-0.00065275,0.00870435,-0.0
 5507868,0.00829702,0.00087477,-0.00019411,0.00003856,-0.00009695,-0.00
 002813,-0.00008957,0.00034775,-0.00096794,0.00020517,0.00030290,0.0003
 1284,0.00028329,-0.00007539,-0.00006523,0.00000623,-0.00047121,-0.0002
 6256,-0.00013004,-0.00011491,-0.00005825,-0.00003225,0.00007309,-0.000
 10724,0.00003874,-0.00079673,0.00023381,-0.00042997,-0.00961197,0.0012
 8978,0.00291128,0.00006532,0.00017484,-0.00001845,0.03993815,0.0539311
 1,-0.00314131,0.03723308,-0.19247234,0.01555184,0.04362878,0.55309826,
 0.00007430,-0.00005206,-0.00022698,0.00028287,-0.00100218,0.00068303,-
 0.00039871,0.00002130,-0.00085559,-0.00236967,0.00123682,0.00017209,0.
 00004956,0.00005484,-0.00001847,0.00022432,0.00024698,-0.00007332,0.00
 002182,-0.00011499,0.00005917,0.00034913,0.00856538,-0.00868887,-0.000
 35060,0.00008709,0.00003517,0.00005448,0.00000168,0.00001369,-0.000106
 68,0.00023614,-0.00011198,-0.00001115,-0.00001625,0.00003916,0.0000258
 0,0.00000658,-0.00000794,0.00000101,0.00001688,-0.00006355,0.00001792,
 -0.00000159,-0.00001554,-0.00002189,0.00003156,-0.00000914,0.00019693,
 -0.00004095,0.00015989,0.00318152,-0.00037922,-0.00048058,0.00001829,-
 0.00001697,0.00002006,-0.01069700,-0.00569572,0.00401171,-0.00739146,0
 .01817956,-0.08404294,0.02357913,-0.04904703,0.22560345,0.00026579,-0.
 00000933,-0.00030669,0.00034031,-0.00433029,0.00052008,0.00593567,0.00
 329004,-0.00062956,-0.01036563,0.00462339,0.00309380,0.00009401,0.0006
 4213,0.00021161,-0.00475227,0.00303127,-0.00039779,0.00025389,0.000346
 48,0.00056571,-0.05247756,0.04547788,-0.01507037,0.00117295,0.00017914
 ,-0.00061404,-0.00030103,0.00011563,0.00021859,-0.00123828,0.00059389,
 -0.00036757,-0.00027624,-0.00057772,-0.00031976,-0.00035709,0.00005998
 ,-0.00011627,-0.00001330,0.00073245,0.00045884,-0.00013318,0.00017186,
 0.00012985,0.00005396,0.00011555,-0.00004237,0.00143206,-0.00001213,0.
 00058301,0.01474733,-0.00141230,-0.00613975,0.00016725,-0.00043493,-0.
 00027232,-0.02336619,-0.03152111,0.00214656,0.03288088,0.00204088,0.00
 344406,-0.11010021,-0.05534565,0.00559727,0.64445953,0.00011372,-0.000
 47061,-0.00039554,0.00032408,-0.00463760,0.00149699,-0.00116553,-0.007
 71203,0.00130883,-0.00992195,0.00537386,0.00249207,0.00005292,0.000623
 66,0.00015983,0.00280630,0.00186307,-0.00023153,0.00069296,0.00062026,
 0.00072403,0.02731880,0.02771180,0.00309104,-0.00040532,-0.00029624,0.
 00054255,0.00000619,0.00010384,0.00006173,-0.00062744,0.00104792,-0.00
 032827,0.00004947,-0.00016654,-0.00017742,0.00023576,0.00005554,-0.000
 09301,0.00019222,0.00029321,0.00008098,0.00006792,-0.00003960,-0.00000
 325,-0.00004033,0.00011316,-0.00002490,0.00110423,-0.00020743,0.000567
 05,0.01330497,-0.00193243,-0.00607833,0.00000762,-0.00022971,-0.000035
 15,-0.01185544,-0.01402141,0.00074781,0.00072038,-0.04064681,0.0103663
 2,-0.03234910,-0.26265326,0.02965129,0.16849133,0.44191193,-0.00009881
 ,0.00004215,0.00015373,-0.00098860,0.00001358,-0.00026879,0.00027243,0
 .00313672,0.00388318,0.00079891,-0.00046964,-0.00016213,-0.00003758,-0
 .00001155,-0.00013929,-0.00033005,-0.00058059,0.00017085,0.00038913,-0
 .00030630,-0.00038414,-0.01377982,0.00303691,0.01874516,0.00007849,0.0
 0000379,-0.00012487,-0.00006170,0.00000664,0.00000662,0.00009160,-0.00
 018739,0.00007208,-0.00002134,0.00000297,-0.00004934,-0.00006206,0.000
 02194,0.00001822,0.00000547,-0.00000857,0.00007872,-0.00000421,0.00001
 100,0.00001246,0.00000971,-0.00002678,0.00001049,-0.00018553,0.0000629
 2,-0.00011436,-0.00113808,0.00059957,0.00074234,-0.00002536,0.00001900
 ,-0.00003432,0.00058009,-0.00003916,-0.00100798,0.00104347,0.00889724,
 0.01718019,0.00086443,0.03086747,-0.06693826,0.01171994,-0.05817806,0.
 07411718,-0.00043724,0.00077132,-0.00031548,-0.00156748,0.00480959,-0.
 00015010,-0.03161107,0.02778470,-0.00784238,0.00781475,-0.00250324,-0.
 00074872,-0.00022744,-0.00036460,-0.00001862,-0.00051550,-0.00590932,0
 .00120649,-0.00098942,0.00015021,-0.00172375,-0.15441918,-0.00464247,-
 0.01266877,-0.00177758,0.00048877,-0.00062771,0.00055898,-0.00025603,-
 0.00017604,0.00188215,-0.00064662,0.00051822,-0.00006962,0.00053428,0.
 00026092,0.00002501,0.00000725,0.00024131,0.00015582,-0.00089094,-0.00
 044179,0.00016770,-0.00006869,-0.00011017,-0.00006451,-0.00016260,0.00
 004707,-0.00178908,-0.00009476,-0.00058578,-0.01509300,-0.00713655,0.0
 0391037,-0.00023126,0.00058975,0.00033748,0.04914421,0.03940105,-0.000
 30733,-0.02963511,0.00739927,-0.00506407,-0.05022111,-0.06861072,0.010
 92479,-0.37059293,-0.03567260,-0.01661549,0.74684601,-0.00018716,0.000
 70289,0.00254067,-0.00658748,0.01674546,-0.00624786,0.02513517,0.02694
 296,0.00179171,0.03430357,-0.01724765,-0.00749795,0.00021412,-0.002050
 82,-0.00109196,-0.01255816,-0.00385925,0.00013194,-0.00620265,-0.00279
 410,-0.00285190,0.02408674,-0.13862778,0.01688701,0.00284388,0.0007005
 2,-0.00221578,-0.00088704,-0.00008582,-0.00008287,0.00074601,-0.003947
 24,0.00087570,-0.00035947,-0.00017534,0.00021246,-0.00116109,-0.000104
 13,0.00011981,-0.00054364,-0.00004667,0.00024089,-0.00031575,0.0002743
 1,0.00012958,0.00014810,-0.00023842,0.00000103,-0.00314087,0.00104855,
 -0.00202786,-0.04563367,0.00298164,0.01915132,0.00018940,0.00024785,-0
 .00016831,-0.00340281,-0.05455347,0.00978927,0.01427602,0.00072648,0.0
 0174943,-0.04448935,0.00245864,-0.00565103,-0.01912798,-0.11363956,0.0
 0582993,0.18595314,0.67570826,0.00044910,-0.00035436,-0.00012150,0.002
 35102,-0.00208520,0.00185489,-0.00722096,-0.00204195,-0.00441254,-0.00
 281477,0.00216923,0.00035050,0.00002948,0.00009882,0.00021414,-0.00021
 633,0.00119100,-0.00033267,0.00042011,0.00111231,0.00161280,-0.0185955
 2,0.01407706,-0.07188406,-0.00038310,0.00051018,0.00027015,0.00019492,
 0.00000102,-0.00005559,-0.00010163,0.00061020,-0.00034527,-0.00010163,
 -0.00001582,0.00002767,0.00022031,-0.00000150,-0.00002282,0.00011795,-
 0.00002318,-0.00013087,0.00003293,-0.00001326,-0.00001613,-0.00004040,
 0.00005317,-0.00001157,0.00053160,-0.00020100,0.00036670,0.00496502,0.
 00272200,-0.00375245,-0.00000525,-0.00003809,0.00007525,0.00660078,0.0
 1174247,-0.00031011,-0.00545376,0.00012133,-0.00048993,0.00743759,-0.0
 0928871,-0.01687705,-0.02108708,0.00538608,-0.07340847,0.00133230,-0.0
 9020618,0.24286347,-0.00008977,-0.00017128,0.00008149,-0.00008310,-0.0
 0007031,0.00016224,0.00019076,-0.00062917,0.00019421,-0.00031465,0.000
 39654,-0.00015006,0.00005388,0.00002427,0.00000359,-0.00397865,-0.0024
 6352,-0.00095860,0.00014120,0.00026449,-0.00008162,0.01301529,-0.01088
 623,0.00269123,-0.00117031,-0.00014748,0.00033878,-0.00000724,0.000025
 39,-0.00003551,0.00004778,0.00023103,-0.00004713,-0.00022552,0.0000100
 5,-0.00001908,0.00025001,0.00003126,0.00001171,0.00024802,-0.00011923,
 -0.00022744,0.00010343,-0.00001689,-0.00006335,-0.00009249,0.00009173,
 -0.00002980,0.00004151,-0.00004301,0.00003452,0.00046329,-0.00006357,-
 0.00015295,0.00002371,0.00003147,0.00010179,-0.18444201,0.14649854,-0.
 03603028,-0.01031437,0.02257016,-0.00506394,-0.00262996,-0.00454250,-0
 .00116610,0.00017507,0.00015529,0.00030444,-0.00128020,-0.00155750,-0.
 00055736,0.19122106,0.00006540,-0.00021282,0.00000196,-0.00011431,-0.0
 0044947,0.00007497,0.00321133,-0.00173381,0.00078394,-0.00057340,0.000
 55839,0.00000427,0.00000284,-0.00000004,0.00010345,0.00085577,0.001427
 94,-0.00030262,-0.00018622,0.00002217,0.00000112,0.02149122,-0.0257132
 3,0.00674712,-0.00096641,0.00066757,0.00022870,0.00001687,0.00005747,-
 0.00009254,-0.00002109,0.00020784,-0.00004261,-0.00004734,0.00013557,0
 .00002107,0.00030355,0.00001104,-0.00000566,0.00011284,-0.00025540,-0.
 00012185,0.00004983,-0.00005398,-0.00000998,0.00002237,0.00001486,0.00
 003961,0.00009244,-0.00004096,0.00003815,0.00091683,-0.00007766,-0.000
 41022,-0.00010830,0.00001833,0.00008282,0.13637600,-0.21132003,0.03876
 578,-0.00463503,0.00909995,-0.00049867,-0.00177629,0.00013069,0.001591
 60,0.00095782,0.00072046,-0.00035893,-0.00755947,0.00103753,-0.0012194
 7,-0.14910546,0.22793299,0.00011979,-0.00000017,-0.00013981,0.00041146
 ,0.00040638,0.00045756,-0.00004522,-0.00007152,-0.00150575,-0.00001871
 ,-0.00013286,-0.00016947,0.00002302,-0.00003028,-0.00019633,-0.0010444
 9,-0.00123230,-0.00070010,-0.00019773,0.00008179,-0.00000334,-0.002036
 98,0.00415217,0.00225220,-0.00025110,0.00012587,0.00000478,0.00006165,
 0.00000719,-0.00001713,-0.00003252,-0.00001132,-0.00005307,0.00029616,
 0.00010121,0.00058042,0.00003342,-0.00001976,0.00001474,-0.00058989,-0
 .00004250,-0.00031588,-0.00006218,-0.00005221,-0.00010276,-0.00003767,
 0.00005977,-0.00004116,0.00001777,0.00000019,0.00001338,-0.00005112,-0
 .00001056,0.00007697,0.00015294,0.00003873,-0.00004139,-0.03570471,0.0
 3961141,-0.04926110,0.00015148,0.00225639,0.00811399,-0.00105788,0.001
 65072,0.01156424,-0.00055526,-0.00063185,-0.00220022,0.00084277,0.0001
 2580,0.00341389,0.03935926,-0.04530167,0.03606875,0.00000368,-0.000023
 12,0.00006140,-0.00009597,0.00007480,-0.00026988,0.00074711,-0.0015518
 3,0.00017068,0.00009121,-0.00009709,0.00006364,0.00000695,0.00000027,0
 .00002724,-0.00005807,0.00029068,0.00002286,-0.00043303,-0.00007471,-0
 .00004948,-0.00546893,0.00039632,-0.00139534,0.00015655,-0.00003270,-0
 .00004627,-0.00004840,0.00001054,0.00000997,-0.00005793,-0.00000453,0.
 00001423,-0.00003249,-0.00006608,-0.00003571,-0.00003001,0.00000140,-0
 .00000359,0.00003706,0.00007287,0.00004564,0.00000025,0.00001700,0.000
 00973,-0.00000700,0.00000632,-0.00000993,0.00002548,0.00001947,-0.0000
 1682,-0.00014457,0.00005490,0.00001112,0.00000713,-0.00003051,-0.00001
 797,-0.00661250,-0.02877706,0.00355759,-0.09868483,-0.10644682,0.00826
 085,0.01044582,0.01486365,-0.00120297,-0.00095737,0.00463116,-0.000994
 55,-0.00218043,0.00061213,-0.00027515,0.00075587,0.00038329,0.00053032
 ,0.10095103,0.00001491,-0.00001244,0.00001957,-0.00006249,-0.00015930,
 -0.00001950,0.00069676,0.00014980,0.00036152,-0.00032194,0.00015612,0.
 00008874,0.00001121,0.00002103,0.00000451,-0.00024035,0.00013403,-0.00
 002943,0.00005480,0.00006803,0.00004559,-0.00030493,0.00342617,0.00058
 780,0.00010694,-0.00001376,-0.00003284,-0.00002142,0.00000615,0.000008
 83,-0.00004912,0.00002113,-0.00002121,-0.00001368,-0.00003887,-0.00002
 100,-0.00002730,0.00000354,-0.00000404,0.00000258,0.00004568,0.0000320
 9,-0.00000654,0.00000984,0.00000798,0.00000033,0.00000575,-0.00000320,
 0.00005262,-0.00000187,0.00002286,0.00042199,-0.00003722,-0.00019278,0
 .00000557,-0.00002487,-0.00001582,0.00368355,-0.00067229,0.00027106,-0
 .10941420,-0.30041343,0.02704228,-0.01850428,-0.01420565,0.00093095,0.
 00277562,-0.00507891,0.00115524,0.00388209,0.00023268,0.00024060,-0.00
 051671,0.00049882,-0.00092654,0.11752928,0.31289577,-0.00005414,0.0000
 3675,0.00020117,-0.00058686,0.00008624,-0.00022781,-0.00001581,0.00041
 474,0.00231861,0.00019563,-0.00010263,-0.00005311,0.00001386,-0.000003
 27,-0.00003116,-0.00004172,0.00007429,-0.00013200,0.00054836,0.0001598
 0,0.00012974,-0.00208247,0.00081563,0.00816230,-0.00001960,-0.00001585
 ,0.00003986,-0.00004224,0.00001263,-0.00002994,0.00002563,-0.00004559,
 -0.00005235,0.00001120,0.00000596,0.00005035,0.00000124,0.00000151,-0.
 00000673,-0.00001329,-0.00002671,-0.00006696,-0.00000330,-0.00000552,-
 0.00000647,-0.00000108,0.00000772,-0.00000465,-0.00001558,0.00000320,0
 .00001338,-0.00019676,0.00004332,0.00006129,0.00000819,0.00001136,0.00
 001818,-0.00120212,-0.00338152,-0.00098309,0.00904126,0.02800319,-0.02
 916576,0.00301199,0.00395857,0.00126036,-0.00068810,0.00102670,0.00152
 786,-0.00040363,-0.00025198,0.00005301,0.00079022,-0.00086423,-0.00550
 639,-0.00889811,-0.02904447,0.02465714,0.00027787,0.00004384,0.0003874
 6,-0.00074723,-0.00006239,-0.00089458,0.00505267,-0.00060166,0.0014691
 2,-0.00295869,0.00042566,0.00130015,0.00010632,0.00011413,-0.00003824,
 -0.00328340,0.00110484,-0.00033805,-0.00093158,-0.00014049,0.00000364,
 -0.00911942,-0.00169388,-0.00058717,0.00194325,-0.00026762,-0.00036479
 ,-0.00044077,0.00011615,0.00013649,-0.00107078,-0.00029124,-0.00018681
 ,0.00010588,-0.00030364,-0.00005761,-0.00041099,-0.00000526,-0.0001436
 7,-0.00048608,0.00059111,0.00032041,-0.00023370,0.00008480,0.00009128,
 0.00011741,0.00003497,-0.00002505,0.00073654,0.00020992,0.00013468,0.0
 0405661,-0.00000820,-0.00195372,0.00029211,-0.00033564,-0.00029307,0.0
 0638128,0.01162506,-0.00122217,-0.06885714,0.01552277,-0.00635948,-0.5
 9305136,-0.03808387,-0.01539361,-0.06212509,-0.05232548,0.00661787,0.0
 2374199,0.00112140,0.00067275,-0.00187196,-0.00016718,-0.00010245,0.00
 093959,0.00133262,0.00006289,0.71151350,0.00002904,-0.00012113,-0.0001
 4194,0.00023602,-0.00107450,0.00026801,0.00014483,0.00013899,-0.000155
 79,-0.00193275,0.00113839,0.00039967,0.00001571,0.00012444,0.00008415,
 -0.00025486,0.00081235,-0.00010467,0.00024969,0.00018991,0.00017032,-0
 .00408300,0.01213073,-0.00259145,-0.00015935,0.00005643,-0.00003796,-0
 .00001341,0.00002393,0.00002960,-0.00015644,0.00027108,-0.00006190,-0.
 00010358,-0.00013226,-0.00010186,0.00000214,0.00001873,-0.00000963,0.0
 0013627,0.00012933,0.00007237,0.00002589,0.00002632,0.00001637,-0.0000
 1876,0.00003769,-0.00001747,0.00026062,-0.00005622,0.00011990,0.002710
 90,-0.00038023,-0.00103497,-0.00000832,-0.00007861,-0.00001350,-0.0031
 0739,-0.01355070,0.00180275,0.03837936,0.01210970,0.00375354,-0.037815
 65,-0.09945409,0.00175173,-0.07033585,-0.00952400,0.00096837,0.0143609
 5,-0.00680222,0.00451339,0.00137244,0.00037447,-0.00020916,-0.00177733
 ,0.00322288,-0.00093299,0.06955753,0.10405747,0.00000409,0.00001135,0.
 00002869,0.00003521,0.00026230,-0.00020118,0.00027899,-0.00020883,-0.0
 0048092,0.00039918,-0.00028714,0.00007220,-0.00001430,0.00001137,0.000
 02820,-0.00016715,-0.00005817,0.00002995,-0.00010566,0.00003718,-0.000
 00065,0.00033361,-0.00247843,-0.00015318,0.00016886,-0.00002120,-0.000
 03791,-0.00002442,0.00000445,0.00000770,-0.00000011,-0.00005120,0.0000
 5383,-0.00000646,-0.00001529,-0.00005298,-0.00001344,0.00000025,-0.000
 00076,-0.00000199,0.00003375,0.00008005,-0.00000885,0.00000566,0.00001
 166,0.00001132,-0.00001473,0.00000710,-0.00002945,0.00001336,-0.000048
 36,-0.00049675,0.00006556,0.00001958,-0.00000628,-0.00001535,-0.000031
 87,0.00101932,0.00277762,0.00279905,-0.00975140,0.00284466,0.02290099,
 -0.01489475,0.00056071,-0.07636075,0.00821347,0.00392496,0.01446508,-0
 .00170558,0.00278866,0.00907060,0.00010385,-0.00042931,-0.00249706,0.0
 0035150,-0.00055274,-0.00157350,0.01549201,-0.00876444,0.03344679,0.00
 006554,0.00009074,-0.00174414,0.00287862,-0.01587821,0.00453500,-0.006
 68864,-0.00687097,-0.00182381,-0.05191278,0.01601411,0.01990846,0.0000
 2098,0.00202374,0.00055236,0.00119049,0.00493635,-0.00054859,0.0009527
 0,0.00332258,0.00072045,0.02583281,0.01698345,-0.00260129,-0.00024860,
 -0.00022037,0.00069547,0.00012026,0.00009802,0.00026250,-0.00186655,0.
 00260949,-0.00121346,-0.00004301,-0.00044050,-0.00036890,0.00018139,0.
 00013760,-0.00026451,0.00013171,0.00073469,0.00029804,-0.00001037,0.00
 002767,0.00006001,0.00000038,0.00024128,-0.00003794,0.00346589,-0.0003
 0115,0.00236378,0.01837950,0.00549270,-0.01255509,0.00011627,-0.000565
 15,-0.00021432,-0.00930111,-0.00897682,-0.00125743,0.00739481,-0.00593
 715,0.00176972,0.00704882,0.02616602,-0.00548929,-0.06492231,-0.075912
 14,0.01156720,-0.16763446,-0.14347506,0.03149708,-0.00023067,0.0004021
 0,-0.00021214,0.00064380,-0.00108791,0.00055432,-0.00967687,-0.0077147
 0,0.00081516,0.24411140,-0.00005179,-0.00002259,-0.00173848,0.00102002
 ,-0.00775035,0.00380515,-0.01375322,-0.00539990,-0.00236921,-0.0180043
 0,0.01790783,0.00423859,-0.00010589,0.00146812,0.00058853,0.00321936,0
 .00179182,-0.00103015,0.00311217,0.00038223,0.00179426,-0.00127217,-0.
 08285507,0.02341124,-0.00213310,-0.00012648,0.00074039,0.00038630,0.00
 010800,0.00014084,-0.00043303,0.00237166,-0.00029725,-0.00001511,-0.00
 015833,-0.00030307,0.00045886,0.00010729,-0.00007587,0.00046240,0.0002
 5986,0.00003535,0.00019478,-0.00007252,-0.00004317,-0.00009372,0.00019
 747,-0.00002565,0.00194696,-0.00076690,0.00098536,0.03065958,-0.018453
 99,-0.01258292,-0.00010030,-0.00025342,0.00003166,0.00736939,-0.001781
 60,0.00284522,0.00101181,-0.00470347,0.00048028,0.00922361,0.01772552,
 -0.00059239,-0.05053807,-0.01918260,0.00549155,-0.15161377,-0.38563531
 ,0.06093986,-0.00136980,-0.00305873,0.00005509,-0.00008232,-0.00023882
 ,0.00001315,-0.00759824,-0.00368887,-0.00044503,0.18809959,0.49182914,
 0.00000030,-0.00026515,0.00089000,-0.00007521,0.00920237,-0.00473098,0
 .00249247,-0.00129146,-0.00441422,0.03130565,-0.00941252,-0.00286816,-
 0.00025819,-0.00078757,0.00023098,-0.00210402,0.00188520,0.00158614,0.
 00018170,0.00118530,0.00014759,0.00039648,0.02585186,0.01268590,0.0018
 9431,0.00027779,-0.00065862,-0.00020001,-0.00000808,-0.00001802,0.0009
 5364,-0.00160606,0.00130283,-0.00021740,-0.00000191,0.00005327,-0.0002
 1675,-0.00017722,0.00013749,-0.00004534,-0.00014259,0.00014491,-0.0000
 9415,0.00009574,0.00006427,0.00003836,-0.00017549,0.00001139,-0.001965
 14,0.00017734,-0.00191809,-0.01971072,-0.00208208,-0.00180457,-0.00006
 527,0.00020136,-0.00001359,-0.00359084,0.00113990,0.00269568,0.0002576
 8,0.00082484,-0.00197396,-0.00305330,-0.00072049,0.01114896,0.00970412
 ,0.00454905,0.01364802,0.02988371,0.05592849,-0.08800205,0.00040588,0.
 00117320,0.00019004,0.00007900,0.00004397,-0.00065332,0.00127170,0.000
 22756,-0.00158233,-0.04726867,-0.08609334,0.06370044\\0.00000269,0.000
 00165,0.00000259,0.00000197,-0.00000261,0.00000177,-0.00001044,0.00000
 758,-0.00000954,0.00000704,0.00000397,-0.00000139,0.00000114,-0.000000
 41,0.00000012,0.00000999,-0.00000425,0.00000591,0.00000177,-0.00000158
 ,0.00000155,0.00000392,-0.00000346,-0.00000087,-0.00001023,-0.00000025
 ,0.00000005,0.00000014,0.00000081,0.00000188,-0.00000434,-0.00000044,-
 0.00000257,0.00000163,0.00000034,0.00000241,0.00000115,-0.00000223,0.0
 0000222,-0.00000218,0.00000048,0.00000102,0.00000017,0.00000154,0.0000
 0096,0.00000044,-0.00000091,0.00000025,0.00000250,-0.00000285,0.000002
 36,-0.00000537,0.00000041,0.00000115,0.00000252,-0.00000063,-0.0000004
 8,-0.00000063,-0.00000073,0.00000075,0.00000264,-0.00000140,-0.0000004
 0,-0.00000479,-0.00000114,-0.00000254,0.00000060,0.00000315,-0.0000001
 9,-0.00000016,0.00000380,-0.00000377,-0.00000061,0.00000043,-0.0000009
 5,-0.00000171,0.00000102,-0.00000152,0.00000394,0.00000020,-0.00000297
 ,-0.00000378,-0.00000247,0.00000220\\\@
 The archive entry for this job was punched.


 "PERFECTION IS NOT AN ACCIDENT"
         --  EAGLE ELECTRIC MANUFACTURING CO.,INC. NY
 Job cpu time:       0 days  9 hours 50 minutes 53.5 seconds.
 Elapsed time:       0 days  0 hours 14 minutes 54.1 seconds.
 File lengths (MBytes):  RWF=    600 Int=      0 D2E=      0 Chk=     20 Scr=      1
 Normal termination of Gaussian 16 at Thu Oct 24 09:12:55 2024.
