 Entering Gaussian System, Link 0=g16
 Input=UridineMNsllg2PBE0aVDZ.gjf
 Output=UridineMNsllg2PBE0aVDZ.log
 Initial command:
 /sw/contrib/chem-src/g16/c01/g16/l1.exe "/scr/Gau-90049.inp" -scrdir="/scr/"
 Entering Link 1 = /sw/contrib/chem-src/g16/c01/g16/l1.exe PID=     90050.
  
 Copyright (c) 1988-2019, Gaussian, Inc.  All Rights Reserved.
  
 This is part of the Gaussian(R) 16 program.  It is based on
 the Gaussian(R) 09 system (copyright 2009, Gaussian, Inc.),
 the Gaussian(R) 03 system (copyright 2003, Gaussian, Inc.),
 the Gaussian(R) 98 system (copyright 1998, Gaussian, Inc.),
 the Gaussian(R) 94 system (copyright 1995, Gaussian, Inc.),
 the Gaussian 92(TM) system (copyright 1992, Gaussian, Inc.),
 the Gaussian 90(TM) system (copyright 1990, Gaussian, Inc.),
 the Gaussian 88(TM) system (copyright 1988, Gaussian, Inc.),
 the Gaussian 86(TM) system (copyright 1986, Carnegie Mellon
 University), and the Gaussian 82(TM) system (copyright 1983,
 Carnegie Mellon University). Gaussian is a federally registered
 trademark of Gaussian, Inc.
  
 This software contains proprietary and confidential information,
 including trade secrets, belonging to Gaussian, Inc.
  
 This software is provided under written license and may be
 used, copied, transmitted, or stored only in accord with that
 written license.
  
 The following legend is applicable only to US Government
 contracts under FAR:
  
                    RESTRICTED RIGHTS LEGEND
  
 Use, reproduction and disclosure by the US Government is
 subject to restrictions as set forth in subparagraphs (a)
 and (c) of the Commercial Computer Software - Restricted
 Rights clause in FAR 52.227-19.
  
 Gaussian, Inc.
 340 Quinnipiac St., Bldg. 40, Wallingford CT 06492
  
  
 ---------------------------------------------------------------
 Warning -- This program may not be used in any manner that
 competes with the business of Gaussian, Inc. or will provide
 assistance to any competitor of Gaussian, Inc.  The licensee
 of this program is prohibited from giving any competitor of
 Gaussian, Inc. access to this program.  By using this program,
 the user acknowledges that Gaussian, Inc. is engaged in the
 business of creating and licensing software in the field of
 computational chemistry and represents and warrants to the
 licensee that it is not a competitor of Gaussian, Inc. and that
 it will not use this program in any manner prohibited above.
 ---------------------------------------------------------------
  

 Cite this work as:
 Gaussian 16, Revision C.01,
 M. J. Frisch, G. W. Trucks, H. B. Schlegel, G. E. Scuseria, 
 M. A. Robb, J. R. Cheeseman, G. Scalmani, V. Barone, 
 G. A. Petersson, H. Nakatsuji, X. Li, M. Caricato, A. V. Marenich, 
 J. Bloino, B. G. Janesko, R. Gomperts, B. Mennucci, H. P. Hratchian, 
 J. V. Ortiz, A. F. Izmaylov, J. L. Sonnenberg, D. Williams-Young, 
 F. Ding, F. Lipparini, F. Egidi, J. Goings, B. Peng, A. Petrone, 
 T. Henderson, D. Ranasinghe, V. G. Zakrzewski, J. Gao, N. Rega, 
 G. Zheng, W. Liang, M. Hada, M. Ehara, K. Toyota, R. Fukuda, 
 J. Hasegawa, M. Ishida, T. Nakajima, Y. Honda, O. Kitao, H. Nakai, 
 T. Vreven, K. Throssell, J. A. Montgomery, Jr., J. E. Peralta, 
 F. Ogliaro, M. J. Bearpark, J. J. Heyd, E. N. Brothers, K. N. Kudin, 
 V. N. Staroverov, T. A. Keith, R. Kobayashi, J. Normand, 
 K. Raghavachari, A. P. Rendell, J. C. Burant, S. S. Iyengar, 
 J. Tomasi, M. Cossi, J. M. Millam, M. Klene, C. Adamo, R. Cammi, 
 J. W. Ochterski, R. L. Martin, K. Morokuma, O. Farkas, 
 J. B. Foresman, and D. J. Fox, Gaussian, Inc., Wallingford CT, 2019.
 
 ******************************************
 Gaussian 16:  EM64L-G16RevC.01  3-Jul-2019
                24-Oct-2024 
 ******************************************
 %nprocshared=40
 Will use up to   40 processors via shared memory.
 %mem=50gb
 ------------------------------------------------------
 # PBE1PBE/aug-cc-pVDZ opt freq EmpiricalDispersion=GD3
 ------------------------------------------------------
 1/18=20,19=15,26=3,38=1/1,3;
 2/9=110,12=2,17=6,18=5,40=1/2;
 3/5=16,7=10,11=2,25=1,30=1,71=1,74=-13,124=31/1,2,3;
 4//1;
 5/5=2,38=5/2;
 6/7=2,8=2,9=2,10=2,28=1/1;
 7//1,2,3,16;
 1/18=20,19=15,26=3/3(2);
 2/9=110/2;
 99//99;
 2/9=110/2;
 3/5=16,7=10,11=2,25=1,30=1,71=1,74=-13,124=31/1,2,3;
 4/5=5,16=3,69=1/1;
 5/5=2,38=5/2;
 7//1,2,3,16;
 1/18=20,19=15,26=3/3(-5);
 2/9=110/2;
 6/7=2,8=2,9=2,10=2,19=2,28=1/1;
 99/9=1/99;
 ----
 blah
 ----
 Symbolic Z-matrix:
 Charge = -1 Multiplicity = 1
 C                    -2.41064  -0.48868   0.6227 
 C                    -1.0482   -1.19035   0.43696 
 C                    -0.35417  -0.32215  -0.64098 
 O                    -1.27612  -2.49801  -0.02077 
 H                    -0.45974  -1.19312   1.36634 
 O                    -1.11932   0.8398   -0.80605 
 H                    -0.32251  -0.90487  -1.57713 
 N                     1.02018   0.0544   -0.30782 
 C                    -2.48359   0.45086  -0.58583 
 H                    -2.39055   0.12675   1.53173 
 O                    -3.49831  -1.36404   0.7119 
 C                    -3.31446   1.6989   -0.39339 
 H                    -2.8604   -0.11144  -1.45887 
 O                    -2.88711   2.47403   0.70717 
 H                    -4.34738   1.391    -0.18552 
 H                    -3.31469   2.29006  -1.32459 
 H                    -3.21899  -2.20092   0.31509 
 H                    -0.40213  -2.87853  -0.19262 
 H                    -1.98115   2.74923   0.53596 
 C                     1.43543   1.35403  -0.16789 
 C                     2.71837   1.68129   0.10259 
 C                     3.7186    0.64163   0.24617 
 N                     3.19572  -0.65221   0.07331 
 C                     1.90203  -1.00512  -0.19636 
 H                     0.65188   2.09518  -0.29641 
 H                     3.0279    2.71612   0.21145 
 O                     4.90144   0.79302   0.48791 
 O                     1.53888  -2.16944  -0.32899 
 

 GradGradGradGradGradGradGradGradGradGradGradGradGradGradGradGradGradGrad
 Berny optimization.
 Initialization pass.
                           ----------------------------
                           !    Initial Parameters    !
                           ! (Angstroms and Degrees)  !
 --------------------------                            --------------------------
 ! Name  Definition              Value          Derivative Info.                !
 --------------------------------------------------------------------------------
 ! R1    R(1,2)                  1.5437         estimate D2E/DX2                !
 ! R2    R(1,9)                  1.5325         estimate D2E/DX2                !
 ! R3    R(1,10)                 1.098          estimate D2E/DX2                !
 ! R4    R(1,11)                 1.399          estimate D2E/DX2                !
 ! R5    R(2,3)                  1.5484         estimate D2E/DX2                !
 ! R6    R(2,4)                  1.4041         estimate D2E/DX2                !
 ! R7    R(2,5)                  1.1            estimate D2E/DX2                !
 ! R8    R(3,6)                  1.401          estimate D2E/DX2                !
 ! R9    R(3,7)                  1.1031         estimate D2E/DX2                !
 ! R10   R(3,8)                  1.4634         estimate D2E/DX2                !
 ! R11   R(4,18)                 0.9686         estimate D2E/DX2                !
 ! R12   R(6,9)                  1.4356         estimate D2E/DX2                !
 ! R13   R(8,20)                 1.3715         estimate D2E/DX2                !
 ! R14   R(8,24)                 1.383          estimate D2E/DX2                !
 ! R15   R(9,12)                 1.5116         estimate D2E/DX2                !
 ! R16   R(9,13)                 1.1047         estimate D2E/DX2                !
 ! R17   R(11,17)                0.9674         estimate D2E/DX2                !
 ! R18   R(12,14)                1.4123         estimate D2E/DX2                !
 ! R19   R(12,15)                1.0977         estimate D2E/DX2                !
 ! R20   R(12,16)                1.103          estimate D2E/DX2                !
 ! R21   R(14,19)                0.9622         estimate D2E/DX2                !
 ! R22   R(20,21)                1.3514         estimate D2E/DX2                !
 ! R23   R(20,25)                1.0862         estimate D2E/DX2                !
 ! R24   R(21,22)                1.4498         estimate D2E/DX2                !
 ! R25   R(21,26)                1.0856         estimate D2E/DX2                !
 ! R26   R(22,23)                1.4062         estimate D2E/DX2                !
 ! R27   R(22,27)                1.2167         estimate D2E/DX2                !
 ! R28   R(23,24)                1.3678         estimate D2E/DX2                !
 ! R29   R(24,28)                1.2268         estimate D2E/DX2                !
 ! A1    A(2,1,9)              103.0493         estimate D2E/DX2                !
 ! A2    A(2,1,10)             109.7698         estimate D2E/DX2                !
 ! A3    A(2,1,11)             114.1693         estimate D2E/DX2                !
 ! A4    A(9,1,10)             108.0671         estimate D2E/DX2                !
 ! A5    A(9,1,11)             113.3822         estimate D2E/DX2                !
 ! A6    A(10,1,11)            108.1894         estimate D2E/DX2                !
 ! A7    A(1,2,3)              102.9734         estimate D2E/DX2                !
 ! A8    A(1,2,4)              108.6188         estimate D2E/DX2                !
 ! A9    A(1,2,5)              111.8155         estimate D2E/DX2                !
 ! A10   A(3,2,4)              111.5941         estimate D2E/DX2                !
 ! A11   A(3,2,5)              110.4763         estimate D2E/DX2                !
 ! A12   A(4,2,5)              111.0954         estimate D2E/DX2                !
 ! A13   A(2,3,6)              107.5938         estimate D2E/DX2                !
 ! A14   A(2,3,7)              107.9064         estimate D2E/DX2                !
 ! A15   A(2,3,8)              113.9999         estimate D2E/DX2                !
 ! A16   A(6,3,7)              110.7194         estimate D2E/DX2                !
 ! A17   A(6,3,8)              109.046          estimate D2E/DX2                !
 ! A18   A(7,3,8)              107.5871         estimate D2E/DX2                !
 ! A19   A(2,4,18)             106.0955         estimate D2E/DX2                !
 ! A20   A(3,6,9)              106.0358         estimate D2E/DX2                !
 ! A21   A(3,8,20)             123.462          estimate D2E/DX2                !
 ! A22   A(3,8,24)             114.8382         estimate D2E/DX2                !
 ! A23   A(20,8,24)            121.6459         estimate D2E/DX2                !
 ! A24   A(1,9,6)              103.994          estimate D2E/DX2                !
 ! A25   A(1,9,12)             115.5912         estimate D2E/DX2                !
 ! A26   A(1,9,13)             109.1113         estimate D2E/DX2                !
 ! A27   A(6,9,12)             108.5532         estimate D2E/DX2                !
 ! A28   A(6,9,13)             109.9264         estimate D2E/DX2                !
 ! A29   A(12,9,13)            109.4738         estimate D2E/DX2                !
 ! A30   A(1,11,17)            106.8969         estimate D2E/DX2                !
 ! A31   A(9,12,14)            112.7067         estimate D2E/DX2                !
 ! A32   A(9,12,15)            108.0436         estimate D2E/DX2                !
 ! A33   A(9,12,16)            109.581          estimate D2E/DX2                !
 ! A34   A(14,12,15)           106.9245         estimate D2E/DX2                !
 ! A35   A(14,12,16)           111.3333         estimate D2E/DX2                !
 ! A36   A(15,12,16)           108.06           estimate D2E/DX2                !
 ! A37   A(12,14,19)           107.6509         estimate D2E/DX2                !
 ! A38   A(8,20,21)            122.5026         estimate D2E/DX2                !
 ! A39   A(8,20,25)            114.5891         estimate D2E/DX2                !
 ! A40   A(21,20,25)           122.9078         estimate D2E/DX2                !
 ! A41   A(20,21,22)           120.0748         estimate D2E/DX2                !
 ! A42   A(20,21,26)           121.4395         estimate D2E/DX2                !
 ! A43   A(22,21,26)           118.4847         estimate D2E/DX2                !
 ! A44   A(21,22,23)           113.0228         estimate D2E/DX2                !
 ! A45   A(21,22,27)           126.951          estimate D2E/DX2                !
 ! A46   A(23,22,27)           120.0261         estimate D2E/DX2                !
 ! A47   A(22,23,24)           127.8312         estimate D2E/DX2                !
 ! A48   A(8,24,23)            114.9177         estimate D2E/DX2                !
 ! A49   A(8,24,28)            121.9791         estimate D2E/DX2                !
 ! A50   A(23,24,28)           123.103          estimate D2E/DX2                !
 ! D1    D(9,1,2,3)             13.7458         estimate D2E/DX2                !
 ! D2    D(9,1,2,4)           -104.6879         estimate D2E/DX2                !
 ! D3    D(9,1,2,5)            132.3589         estimate D2E/DX2                !
 ! D4    D(10,1,2,3)          -101.1896         estimate D2E/DX2                !
 ! D5    D(10,1,2,4)           140.3767         estimate D2E/DX2                !
 ! D6    D(10,1,2,5)            17.4235         estimate D2E/DX2                !
 ! D7    D(11,1,2,3)           137.15           estimate D2E/DX2                !
 ! D8    D(11,1,2,4)            18.7163         estimate D2E/DX2                !
 ! D9    D(11,1,2,5)          -104.237          estimate D2E/DX2                !
 ! D10   D(2,1,9,6)            -33.4581         estimate D2E/DX2                !
 ! D11   D(2,1,9,12)          -152.336          estimate D2E/DX2                !
 ! D12   D(2,1,9,13)            83.8052         estimate D2E/DX2                !
 ! D13   D(10,1,9,6)            82.6983         estimate D2E/DX2                !
 ! D14   D(10,1,9,12)          -36.1796         estimate D2E/DX2                !
 ! D15   D(10,1,9,13)         -160.0384         estimate D2E/DX2                !
 ! D16   D(11,1,9,6)          -157.3829         estimate D2E/DX2                !
 ! D17   D(11,1,9,12)           83.7392         estimate D2E/DX2                !
 ! D18   D(11,1,9,13)          -40.1196         estimate D2E/DX2                !
 ! D19   D(2,1,11,17)          -20.738          estimate D2E/DX2                !
 ! D20   D(9,1,11,17)           96.8858         estimate D2E/DX2                !
 ! D21   D(10,1,11,17)        -143.2651         estimate D2E/DX2                !
 ! D22   D(1,2,3,6)             10.7262         estimate D2E/DX2                !
 ! D23   D(1,2,3,7)           -108.7792         estimate D2E/DX2                !
 ! D24   D(1,2,3,8)            131.7851         estimate D2E/DX2                !
 ! D25   D(4,2,3,6)            127.0568         estimate D2E/DX2                !
 ! D26   D(4,2,3,7)              7.5514         estimate D2E/DX2                !
 ! D27   D(4,2,3,8)           -111.8843         estimate D2E/DX2                !
 ! D28   D(5,2,3,6)           -108.8184         estimate D2E/DX2                !
 ! D29   D(5,2,3,7)            131.6762         estimate D2E/DX2                !
 ! D30   D(5,2,3,8)             12.2405         estimate D2E/DX2                !
 ! D31   D(1,2,4,18)           175.5398         estimate D2E/DX2                !
 ! D32   D(3,2,4,18)            62.7017         estimate D2E/DX2                !
 ! D33   D(5,2,4,18)           -61.074          estimate D2E/DX2                !
 ! D34   D(2,3,6,9)            -33.02           estimate D2E/DX2                !
 ! D35   D(7,3,6,9)             84.6772         estimate D2E/DX2                !
 ! D36   D(8,3,6,9)           -157.1364         estimate D2E/DX2                !
 ! D37   D(2,3,8,20)          -119.1948         estimate D2E/DX2                !
 ! D38   D(2,3,8,24)            63.4381         estimate D2E/DX2                !
 ! D39   D(6,3,8,20)             1.0527         estimate D2E/DX2                !
 ! D40   D(6,3,8,24)          -176.3143         estimate D2E/DX2                !
 ! D41   D(7,3,8,20)           121.1891         estimate D2E/DX2                !
 ! D42   D(7,3,8,24)           -56.178          estimate D2E/DX2                !
 ! D43   D(3,6,9,1)             41.8952         estimate D2E/DX2                !
 ! D44   D(3,6,9,12)           165.4826         estimate D2E/DX2                !
 ! D45   D(3,6,9,13)           -74.8004         estimate D2E/DX2                !
 ! D46   D(3,8,20,21)         -178.0562         estimate D2E/DX2                !
 ! D47   D(3,8,20,25)            1.6812         estimate D2E/DX2                !
 ! D48   D(24,8,20,21)          -0.863          estimate D2E/DX2                !
 ! D49   D(24,8,20,25)         178.8743         estimate D2E/DX2                !
 ! D50   D(3,8,24,23)          178.0295         estimate D2E/DX2                !
 ! D51   D(3,8,24,28)           -2.0984         estimate D2E/DX2                !
 ! D52   D(20,8,24,23)           0.6097         estimate D2E/DX2                !
 ! D53   D(20,8,24,28)        -179.5183         estimate D2E/DX2                !
 ! D54   D(1,9,12,14)           56.5022         estimate D2E/DX2                !
 ! D55   D(1,9,12,15)          -61.4157         estimate D2E/DX2                !
 ! D56   D(1,9,12,16)         -178.9279         estimate D2E/DX2                !
 ! D57   D(6,9,12,14)          -59.8294         estimate D2E/DX2                !
 ! D58   D(6,9,12,15)         -177.7473         estimate D2E/DX2                !
 ! D59   D(6,9,12,16)           64.7405         estimate D2E/DX2                !
 ! D60   D(13,9,12,14)        -179.8287         estimate D2E/DX2                !
 ! D61   D(13,9,12,15)          62.2533         estimate D2E/DX2                !
 ! D62   D(13,9,12,16)         -55.2589         estimate D2E/DX2                !
 ! D63   D(9,12,14,19)          61.3787         estimate D2E/DX2                !
 ! D64   D(15,12,14,19)        179.9527         estimate D2E/DX2                !
 ! D65   D(16,12,14,19)        -62.2252         estimate D2E/DX2                !
 ! D66   D(8,20,21,22)           0.4689         estimate D2E/DX2                !
 ! D67   D(8,20,21,26)        -179.8996         estimate D2E/DX2                !
 ! D68   D(25,20,21,22)       -179.2466         estimate D2E/DX2                !
 ! D69   D(25,20,21,26)          0.3848         estimate D2E/DX2                !
 ! D70   D(20,21,22,23)          0.0999         estimate D2E/DX2                !
 ! D71   D(20,21,22,27)       -179.9901         estimate D2E/DX2                !
 ! D72   D(26,21,22,23)       -179.5424         estimate D2E/DX2                !
 ! D73   D(26,21,22,27)          0.3677         estimate D2E/DX2                !
 ! D74   D(21,22,23,24)         -0.3319         estimate D2E/DX2                !
 ! D75   D(27,22,23,24)        179.7511         estimate D2E/DX2                !
 ! D76   D(22,23,24,8)          -0.0113         estimate D2E/DX2                !
 ! D77   D(22,23,24,28)       -179.8817         estimate D2E/DX2                !
 --------------------------------------------------------------------------------
 Trust Radius=3.00D-01 FncErr=1.00D-07 GrdErr=1.00D-06 EigMax=2.50D+02 EigMin=1.00D-04
 Number of steps in this run=    166 maximum allowed number of steps=    168.
 GradGradGradGradGradGradGradGradGradGradGradGradGradGradGradGradGradGrad

                          Input orientation:                          
 ---------------------------------------------------------------------
 Center     Atomic      Atomic             Coordinates (Angstroms)
 Number     Number       Type             X           Y           Z
 ---------------------------------------------------------------------
      1          6           0       -2.410637   -0.488684    0.622700
      2          6           0       -1.048197   -1.190347    0.436959
      3          6           0       -0.354170   -0.322147   -0.640982
      4          8           0       -1.276124   -2.498009   -0.020766
      5          1           0       -0.459744   -1.193116    1.366336
      6          8           0       -1.119323    0.839796   -0.806047
      7          1           0       -0.322508   -0.904868   -1.577127
      8          7           0        1.020176    0.054396   -0.307821
      9          6           0       -2.483594    0.450858   -0.585828
     10          1           0       -2.390545    0.126746    1.531731
     11          8           0       -3.498309   -1.364041    0.711897
     12          6           0       -3.314462    1.698900   -0.393390
     13          1           0       -2.860400   -0.111436   -1.458865
     14          8           0       -2.887106    2.474029    0.707173
     15          1           0       -4.347376    1.391002   -0.185523
     16          1           0       -3.314689    2.290060   -1.324593
     17          1           0       -3.218988   -2.200915    0.315094
     18          1           0       -0.402127   -2.878530   -0.192615
     19          1           0       -1.981154    2.749228    0.535961
     20          6           0        1.435429    1.354026   -0.167891
     21          6           0        2.718374    1.681289    0.102593
     22          6           0        3.718603    0.641634    0.246173
     23          7           0        3.195718   -0.652206    0.073314
     24          6           0        1.902030   -1.005116   -0.196364
     25          1           0        0.651883    2.095185   -0.296413
     26          1           0        3.027900    2.716116    0.211452
     27          8           0        4.901435    0.793022    0.487908
     28          8           0        1.538880   -2.169437   -0.328994
 ---------------------------------------------------------------------
                    Distance matrix (angstroms):
                    1          2          3          4          5
     1  C    0.000000
     2  C    1.543721   0.000000
     3  C    2.419439   1.548354   0.000000
     4  O    2.395528   1.404081   2.443162   0.000000
     5  H    2.203452   1.100012   2.190675   2.072022   0.000000
     6  O    2.339587   2.381513   1.401006   3.432520   3.047462
     7  H    3.061492   2.159784   1.103147   2.422755   2.960725
     8  N    3.596009   2.526311   1.463423   3.445311   2.559150
     9  C    1.532515   2.408321   2.266059   3.236216   3.257233
    10  H    1.097950   2.176042   3.011480   3.246771   2.344650
    11  O    1.399013   2.471601   3.577909   2.600151   3.112938
    12  C    2.575823   3.764729   3.592946   4.680568   4.428296
    13  H    2.162756   2.835891   2.644716   3.205275   3.861987
    14  O    3.001970   4.108802   4.006481   5.276961   4.446857
    15  H    2.817339   4.235024   4.368983   4.958240   4.919310
    16  H    3.511507   4.511461   4.006947   5.364822   5.246363
    17  H    1.918277   2.397589   3.556829   1.993938   3.119967
    18  H    3.226486   1.914088   2.595848   0.968607   2.296578
    19  H    3.267423   4.049748   3.669553   5.323580   4.306540
    20  C    4.337377   3.606671   2.497206   4.712997   3.526112
    21  C    5.593393   4.748173   3.742618   5.782540   4.467626
    22  C    6.243955   5.110277   4.278247   5.905583   4.698899
    23  N    5.635582   4.293326   3.636050   4.838720   3.914957
    24  C    4.420030   3.023119   2.398869   3.515711   2.838195
    25  H    4.110982   3.771316   2.640902   4.989050   3.848814
    26  H    6.325943   5.650299   4.625590   6.765031   5.364654
    27  O    7.424779   6.271720   5.489934   7.017968   5.784343
    28  O    4.396514   2.870238   2.663354   2.850826   2.796756
                    6          7          8          9         10
     6  O    0.000000
     7  H    2.067204   0.000000
     8  N    2.332925   2.081856   0.000000
     9  C    1.435620   2.736962   3.537071   0.000000
    10  H    2.754932   3.873758   3.875849   2.144239   0.000000
    11  O    3.580590   3.941596   4.844429   2.451040   2.030201
    12  C    2.393111   4.139158   4.636896   1.511616   2.651675
    13  H    2.088627   2.661657   4.051083   1.104695   3.036636
    14  O    2.843521   4.817897   4.706558   2.434727   2.536968
    15  H    3.333047   4.838093   5.532819   2.125511   2.894217
    16  H    2.681751   4.384574   4.982276   2.149222   3.700345
    17  H    3.861538   3.694568   4.842000   2.895577   2.754002
    18  H    3.836224   2.412168   3.261637   3.946130   3.994854
    19  H    2.487904   4.535269   4.120931   2.606408   2.834885
    20  C    2.682990   3.190437   1.371515   4.043405   4.362684
    21  C    4.032574   4.330893   2.387278   5.389653   5.528118
    22  C    4.954994   4.695388   2.816605   6.260660   6.264141
    23  N    4.649616   3.894317   2.318951   5.822869   5.825812
    24  C    3.592212   2.620138   1.382988   4.637374   4.763783
    25  H    2.230000   3.404407   2.073786   3.552293   4.058723
    26  H    4.664262   5.247454   3.374219   6.011956   6.148782
    27  O    6.158412   5.868286   4.030251   7.470518   7.396382
    28  O    4.043403   2.573273   2.283623   4.807516   4.916822
                   11         12         13         14         15
    11  O    0.000000
    12  C    3.261452   0.000000
    13  H    2.586147   2.149122   0.000000
    14  O    3.886434   1.412337   3.372990   0.000000
    15  H    3.019361   1.097689   2.467756   2.025399   0.000000
    16  H    4.187298   1.103000   2.447773   2.084405   1.781075
    17  H    0.967384   3.964798   2.764315   4.703081   3.798124
    18  H    3.563448   5.429076   3.911944   5.969475   5.813256
    19  H    4.387675   1.935095   3.596638   0.962183   2.822113
    20  C    5.701200   4.767730   4.718934   4.550215   5.782950
    21  C    6.949276   6.053216   6.064217   5.693449   7.077577
    22  C    7.504895   7.140788   6.837949   6.870632   8.112209
    23  N    6.761989   6.937431   6.270293   6.868469   7.819205
    24  C    5.487935   5.878972   5.007326   5.988042   6.693024
    25  H    5.496092   3.987272   4.307738   3.697993   5.049828
    26  H    7.712946   6.451831   6.742187   5.940677   7.503880
    27  O    8.675182   8.312537   8.053201   7.970899   9.292556
    28  O    5.206284   6.206699   4.986546   6.498059   6.880794
                   16         17         18         19         20
    16  H    0.000000
    17  H    4.781902   0.000000
    18  H    6.039761   2.941366   0.000000
    19  H    2.334697   5.107341   5.890315   0.000000
    20  C    4.977724   5.876604   4.614299   3.756998   0.000000
    21  C    6.229391   7.097107   5.533229   4.838788   1.351374
    22  C    7.392686   7.497667   5.437325   6.083844   2.427310
    23  N    7.279868   6.603439   4.239307   6.211586   2.679881
    24  C    6.272579   5.283593   2.969652   5.450735   2.405011
    25  H    4.102295   5.814986   5.085229   2.837869   1.086176
    26  H    6.539831   7.950569   6.574832   5.019664   2.129590
    27  O    8.545816   8.656488   6.486230   7.155353   3.571834
    28  O    6.665993   4.801369   2.070971   6.109996   3.528661
                   21         22         23         24         25
    21  C    0.000000
    22  C    1.449812   0.000000
    23  N    2.381998   1.406169   0.000000
    24  C    2.823573   2.491498   1.367809   0.000000
    25  H    2.144971   3.436856   3.762440   3.344360   0.000000
    26  H    1.085598   2.186722   3.375328   3.909151   2.507776
    27  O    2.388146   1.216736   2.273773   3.563420   4.513256
    28  O    4.050378   3.603350   2.282313   1.226830   4.356010
                   26         27         28
    26  H    0.000000
    27  O    2.699046   0.000000
    28  O    5.135941   4.555246   0.000000
 Stoichiometry    C9H11N2O6(1-)
 Framework group  C1[X(C9H11N2O6)]
 Deg. of freedom    78
 Full point group                 C1      NOp   1
 Largest Abelian subgroup         C1      NOp   1
 Largest concise Abelian subgroup C1      NOp   1
                         Standard orientation:                         
 ---------------------------------------------------------------------
 Center     Atomic      Atomic             Coordinates (Angstroms)
 Number     Number       Type             X           Y           Z
 ---------------------------------------------------------------------
      1          6           0       -2.385445    0.476575   -0.622623
      2          6           0       -1.029595    1.191350   -0.438659
      3          6           0       -0.326510    0.330886    0.639615
      4          8           0       -1.269593    2.497251    0.017922
      5          1           0       -0.441914    1.198767   -1.368499
      6          8           0       -1.080452   -0.838111    0.806454
      7          1           0       -0.299667    0.914835    1.575145
      8          7           0        1.051096   -0.032911    0.305759
      9          6           0       -2.448529   -0.462387    0.586911
     10          1           0       -2.360205   -0.139561   -1.531047
     11          8           0       -3.481460    1.341459   -0.711853
     12          6           0       -3.267641   -1.718468    0.396386
     13          1           0       -2.829990    0.097188    1.459674
     14          8           0       -2.833785   -2.490619   -0.703727
     15          1           0       -4.303596   -1.420617    0.189017
     16          1           0       -3.261526   -2.308654    1.328186
     17          1           0       -3.209803    2.181355   -0.316116
     18          1           0       -0.399121    2.886240    0.188701
     19          1           0       -1.925125   -2.757017   -0.532947
     20          6           0        1.478580   -1.328676    0.166818
     21          6           0        2.764369   -1.644001   -0.104340
     22          6           0        3.754556   -0.595029   -0.249755
     23          7           0        3.219525    0.693956   -0.077795
     24          6           0        1.922749    1.034824    0.192540
     25          1           0        0.702217   -2.077120    0.296703
     26          1           0        3.083637   -2.675948   -0.212395
     27          8           0        4.938586   -0.735410   -0.492263
     28          8           0        1.548646    2.195774    0.324277
 ---------------------------------------------------------------------
 Rotational constants (GHZ):           0.8904320           0.2971709           0.2361757
 Standard basis: Aug-CC-pVDZ (5D, 7F)
 There are   524 symmetry adapted cartesian basis functions of A   symmetry.
 There are   490 symmetry adapted basis functions of A   symmetry.
   490 basis functions,   852 primitive gaussians,   524 cartesian basis functions
    64 alpha electrons       64 beta electrons
       nuclear repulsion energy      1294.1681929628 Hartrees.
 NAtoms=   28 NActive=   28 NUniq=   28 SFac= 1.00D+00 NAtFMM=   60 NAOKFM=F Big=F
 Integral buffers will be    131072 words long.
 Raffenetti 2 integral format.
 Two-electron integral symmetry is turned on.
 Nuclear repulsion after empirical dispersion term =     1294.1493185428 Hartrees.
 One-electron integrals computed using PRISM.
 NBasis=   490 RedAO= T EigKep=  2.99D-06  NBF=   490
 NBsUse=   490 1.00D-06 EigRej= -1.00D+00 NBFU=   490
 ExpMin= 2.97D-02 ExpMax= 1.17D+04 ExpMxC= 4.01D+02 IAcc=3 IRadAn=         5 AccDes= 0.00D+00
 Harris functional with IExCor= 1009 and IRadAn=       5 diagonalized for initial guess.
 HarFok:  IExCor= 1009 AccDes= 0.00D+00 IRadAn=         5 IDoV= 1 UseB2=F ITyADJ=14
 ICtDFT=  3500011 ScaDFX=  1.000000  1.000000  1.000000  1.000000
 FoFCou: FMM=F IPFlag=           0 FMFlag=      100000 FMFlg1=           0
         NFxFlg=           0 DoJE=T BraDBF=F KetDBF=T FulRan=T
         wScrn=  0.000000 ICntrl=       500 IOpCl=  0 I1Cent=   200000004 NGrid=           0
         NMat0=    1 NMatS0=      1 NMatT0=    0 NMatD0=    1 NMtDS0=    0 NMtDT0=    0
 Petite list used in FoFCou.
 Requested convergence on RMS density matrix=1.00D-08 within 128 cycles.
 Requested convergence on MAX density matrix=1.00D-06.
 Requested convergence on             energy=1.00D-06.
 No special actions if energy rises.
 EnCoef did     3 forward-backward iterations
 SCF Done:  E(RPBE1PBE) =  -909.659452717     A.U. after   16 cycles
            NFock= 16  Conv=0.73D-08     -V/T= 2.0053

 **********************************************************************

            Population analysis using the SCF Density.

 **********************************************************************

 Orbital symmetries:
       Occupied  (A) (A) (A) (A) (A) (A) (A) (A) (A) (A) (A) (A)
                 (A) (A) (A) (A) (A) (A) (A) (A) (A) (A) (A) (A)
                 (A) (A) (A) (A) (A) (A) (A) (A) (A) (A) (A) (A)
                 (A) (A) (A) (A) (A) (A) (A) (A) (A) (A) (A) (A)
                 (A) (A) (A) (A) (A) (A) (A) (A) (A) (A) (A) (A)
                 (A) (A) (A) (A)
       Virtual   (A) (A) (A) (A) (A) (A) (A) (A) (A) (A) (A) (A)
                 (A) (A) (A) (A) (A) (A) (A) (A) (A) (A) (A) (A)
                 (A) (A) (A) (A) (A) (A) (A) (A) (A) (A) (A) (A)
                 (A) (A) (A) (A) (A) (A) (A) (A) (A) (A) (A) (A)
                 (A) (A) (A) (A) (A) (A) (A) (A) (A) (A) (A) (A)
                 (A) (A) (A) (A) (A) (A) (A) (A) (A) (A) (A) (A)
                 (A) (A) (A) (A) (A) (A) (A) (A) (A) (A) (A) (A)
                 (A) (A) (A) (A) (A) (A) (A) (A) (A) (A) (A) (A)
                 (A) (A) (A) (A) (A) (A) (A) (A) (A) (A) (A) (A)
                 (A) (A) (A) (A) (A) (A) (A) (A) (A) (A) (A) (A)
                 (A) (A) (A) (A) (A) (A) (A) (A) (A) (A) (A) (A)
                 (A) (A) (A) (A) (A) (A) (A) (A) (A) (A) (A) (A)
                 (A) (A) (A) (A) (A) (A) (A) (A) (A) (A) (A) (A)
                 (A) (A) (A) (A) (A) (A) (A) (A) (A) (A) (A) (A)
                 (A) (A) (A) (A) (A) (A) (A) (A) (A) (A) (A) (A)
                 (A) (A) (A) (A) (A) (A) (A) (A) (A) (A) (A) (A)
                 (A) (A) (A) (A) (A) (A) (A) (A) (A) (A) (A) (A)
                 (A) (A) (A) (A) (A) (A) (A) (A) (A) (A) (A) (A)
                 (A) (A) (A) (A) (A) (A) (A) (A) (A) (A) (A) (A)
                 (A) (A) (A) (A) (A) (A) (A) (A) (A) (A) (A) (A)
                 (A) (A) (A) (A) (A) (A) (A) (A) (A) (A) (A) (A)
                 (A) (A) (A) (A) (A) (A) (A) (A) (A) (A) (A) (A)
                 (A) (A) (A) (A) (A) (A) (A) (A) (A) (A) (A) (A)
                 (A) (A) (A) (A) (A) (A) (A) (A) (A) (A) (A) (A)
                 (A) (A) (A) (A) (A) (A) (A) (A) (A) (A) (A) (A)
                 (A) (A) (A) (A) (A) (A) (A) (A) (A) (A) (A) (A)
                 (A) (A) (A) (A) (A) (A) (A) (A) (A) (A) (A) (A)
                 (A) (A) (A) (A) (A) (A) (A) (A) (A) (A) (A) (A)
                 (A) (A) (A) (A) (A) (A) (A) (A) (A) (A) (A) (A)
                 (A) (A) (A) (A) (A) (A) (A) (A) (A) (A) (A) (A)
                 (A) (A) (A) (A) (A) (A) (A) (A) (A) (A) (A) (A)
                 (A) (A) (A) (A) (A) (A) (A) (A) (A) (A) (A) (A)
                 (A) (A) (A) (A) (A) (A) (A) (A) (A) (A) (A) (A)
                 (A) (A) (A) (A) (A) (A) (A) (A) (A) (A) (A) (A)
                 (A) (A) (A) (A) (A) (A) (A) (A) (A) (A) (A) (A)
                 (A) (A) (A) (A) (A) (A)
 The electronic state is 1-A.
 Alpha  occ. eigenvalues --  -19.16164 -19.15457 -19.14029 -19.13385 -19.04286
 Alpha  occ. eigenvalues --  -19.01849 -14.32118 -14.19696 -10.22315 -10.20670
 Alpha  occ. eigenvalues --  -10.20328 -10.19904 -10.19586 -10.19187 -10.16109
 Alpha  occ. eigenvalues --  -10.15963 -10.09708  -1.02342  -0.98700  -0.98303
 Alpha  occ. eigenvalues --   -0.95935  -0.94043  -0.89494  -0.85903  -0.73905
 Alpha  occ. eigenvalues --   -0.71359  -0.68868  -0.66239  -0.60684  -0.55315
 Alpha  occ. eigenvalues --   -0.54582  -0.52167  -0.48649  -0.46514  -0.46346
 Alpha  occ. eigenvalues --   -0.43698  -0.43096  -0.41795  -0.39876  -0.39255
 Alpha  occ. eigenvalues --   -0.38936  -0.35770  -0.34317  -0.33814  -0.33245
 Alpha  occ. eigenvalues --   -0.31950  -0.31307  -0.30319  -0.29037  -0.28506
 Alpha  occ. eigenvalues --   -0.27555  -0.26775  -0.25521  -0.24263  -0.23446
 Alpha  occ. eigenvalues --   -0.21824  -0.21516  -0.19543  -0.19008  -0.15126
 Alpha  occ. eigenvalues --   -0.10880  -0.10777  -0.08960  -0.08881
 Alpha virt. eigenvalues --    0.06905   0.07920   0.08724   0.09459   0.10836
 Alpha virt. eigenvalues --    0.10864   0.11337   0.11540   0.12244   0.12672
 Alpha virt. eigenvalues --    0.13398   0.14337   0.15219   0.15442   0.15861
 Alpha virt. eigenvalues --    0.16052   0.16607   0.17101   0.17455   0.17579
 Alpha virt. eigenvalues --    0.18245   0.18487   0.18777   0.18921   0.19075
 Alpha virt. eigenvalues --    0.19852   0.20040   0.20326   0.21150   0.21444
 Alpha virt. eigenvalues --    0.21883   0.22020   0.22146   0.22407   0.22567
 Alpha virt. eigenvalues --    0.23104   0.23354   0.24112   0.24418   0.24789
 Alpha virt. eigenvalues --    0.25178   0.25809   0.26453   0.26883   0.27257
 Alpha virt. eigenvalues --    0.27470   0.28078   0.29071   0.29156   0.29473
 Alpha virt. eigenvalues --    0.29602   0.29880   0.30419   0.30734   0.31298
 Alpha virt. eigenvalues --    0.31420   0.31988   0.32434   0.33314   0.33392
 Alpha virt. eigenvalues --    0.33602   0.34125   0.34702   0.34978   0.35067
 Alpha virt. eigenvalues --    0.35534   0.35784   0.36007   0.36325   0.36677
 Alpha virt. eigenvalues --    0.37029   0.37598   0.37941   0.38329   0.38437
 Alpha virt. eigenvalues --    0.39034   0.39209   0.39620   0.39982   0.40633
 Alpha virt. eigenvalues --    0.40796   0.41432   0.41835   0.42296   0.42663
 Alpha virt. eigenvalues --    0.43034   0.43303   0.43691   0.43972   0.44282
 Alpha virt. eigenvalues --    0.44532   0.45281   0.45656   0.46282   0.46429
 Alpha virt. eigenvalues --    0.46900   0.47255   0.47552   0.47918   0.48849
 Alpha virt. eigenvalues --    0.48928   0.49399   0.50618   0.51028   0.51434
 Alpha virt. eigenvalues --    0.51559   0.51780   0.52336   0.52923   0.53358
 Alpha virt. eigenvalues --    0.54078   0.54862   0.54922   0.55915   0.56455
 Alpha virt. eigenvalues --    0.56583   0.56959   0.57233   0.57654   0.58314
 Alpha virt. eigenvalues --    0.59071   0.59764   0.59974   0.60714   0.61080
 Alpha virt. eigenvalues --    0.61618   0.62438   0.62941   0.63639   0.64679
 Alpha virt. eigenvalues --    0.65219   0.65315   0.65998   0.66452   0.66762
 Alpha virt. eigenvalues --    0.67553   0.69051   0.69275   0.70064   0.70692
 Alpha virt. eigenvalues --    0.71668   0.71792   0.72085   0.72656   0.73308
 Alpha virt. eigenvalues --    0.73946   0.74761   0.74883   0.75525   0.76306
 Alpha virt. eigenvalues --    0.76534   0.77157   0.77818   0.78060   0.78436
 Alpha virt. eigenvalues --    0.78487   0.79321   0.79744   0.80625   0.81233
 Alpha virt. eigenvalues --    0.81612   0.81942   0.82539   0.83025   0.83342
 Alpha virt. eigenvalues --    0.83691   0.84062   0.84851   0.85790   0.86261
 Alpha virt. eigenvalues --    0.86697   0.87176   0.87815   0.88290   0.89080
 Alpha virt. eigenvalues --    0.89994   0.90029   0.91103   0.91759   0.92289
 Alpha virt. eigenvalues --    0.92568   0.93087   0.94178   0.94671   0.95522
 Alpha virt. eigenvalues --    0.96514   0.96959   0.97458   0.98991   0.99461
 Alpha virt. eigenvalues --    0.99960   1.01232   1.01632   1.02122   1.03287
 Alpha virt. eigenvalues --    1.03382   1.04278   1.05307   1.06091   1.07474
 Alpha virt. eigenvalues --    1.08445   1.08613   1.09542   1.10842   1.11179
 Alpha virt. eigenvalues --    1.11501   1.12423   1.13214   1.14400   1.15746
 Alpha virt. eigenvalues --    1.16247   1.17385   1.18402   1.19038   1.19550
 Alpha virt. eigenvalues --    1.20741   1.21083   1.21249   1.22645   1.23069
 Alpha virt. eigenvalues --    1.23733   1.24991   1.26077   1.28373   1.28843
 Alpha virt. eigenvalues --    1.29458   1.30046   1.31067   1.32199   1.33054
 Alpha virt. eigenvalues --    1.33084   1.34103   1.35731   1.36006   1.36226
 Alpha virt. eigenvalues --    1.37465   1.38315   1.38947   1.40527   1.42254
 Alpha virt. eigenvalues --    1.42959   1.43847   1.44779   1.45072   1.47732
 Alpha virt. eigenvalues --    1.48272   1.49588   1.50872   1.52403   1.52919
 Alpha virt. eigenvalues --    1.53777   1.54279   1.55212   1.56994   1.57863
 Alpha virt. eigenvalues --    1.58696   1.58841   1.59787   1.60646   1.61206
 Alpha virt. eigenvalues --    1.61882   1.62992   1.63994   1.65131   1.65754
 Alpha virt. eigenvalues --    1.66436   1.67311   1.67847   1.69284   1.69778
 Alpha virt. eigenvalues --    1.71027   1.71646   1.72454   1.73219   1.74121
 Alpha virt. eigenvalues --    1.75194   1.76329   1.77588   1.79135   1.79661
 Alpha virt. eigenvalues --    1.80671   1.81936   1.84735   1.85822   1.86255
 Alpha virt. eigenvalues --    1.87138   1.87633   1.88291   1.89078   1.90346
 Alpha virt. eigenvalues --    1.90689   1.91390   1.92662   1.92913   1.94244
 Alpha virt. eigenvalues --    1.95162   1.96687   1.97809   1.98035   1.99536
 Alpha virt. eigenvalues --    2.00615   2.00894   2.02136   2.03399   2.03745
 Alpha virt. eigenvalues --    2.04887   2.05792   2.07231   2.08432   2.08815
 Alpha virt. eigenvalues --    2.09596   2.10159   2.12975   2.13458   2.13595
 Alpha virt. eigenvalues --    2.15324   2.15651   2.17634   2.18437   2.19984
 Alpha virt. eigenvalues --    2.20432   2.21169   2.23006   2.24233   2.25675
 Alpha virt. eigenvalues --    2.26541   2.28068   2.29460   2.30228   2.30961
 Alpha virt. eigenvalues --    2.33286   2.36713   2.36812   2.37514   2.38915
 Alpha virt. eigenvalues --    2.39296   2.41101   2.42556   2.43732   2.44985
 Alpha virt. eigenvalues --    2.45259   2.46355   2.47178   2.49068   2.49335
 Alpha virt. eigenvalues --    2.51869   2.54203   2.56104   2.56915   2.57076
 Alpha virt. eigenvalues --    2.59271   2.60915   2.61866   2.62584   2.63549
 Alpha virt. eigenvalues --    2.64972   2.67256   2.69166   2.70396   2.71151
 Alpha virt. eigenvalues --    2.72250   2.73837   2.75297   2.76381   2.76848
 Alpha virt. eigenvalues --    2.77396   2.82041   2.83270   2.84710   2.85646
 Alpha virt. eigenvalues --    2.88671   2.90335   2.91055   2.93024   2.95282
 Alpha virt. eigenvalues --    2.99207   3.01989   3.05151   3.05988   3.09059
 Alpha virt. eigenvalues --    3.11198   3.14420   3.21216   3.26229   3.28277
 Alpha virt. eigenvalues --    3.30833   3.33172   3.38277   3.43724   3.44569
 Alpha virt. eigenvalues --    3.47506   3.50795   3.52908   3.54194   3.57214
 Alpha virt. eigenvalues --    3.57730   3.58701   3.59915   3.60735   3.61362
 Alpha virt. eigenvalues --    3.62210   3.62554   3.64663   3.66125   3.67016
 Alpha virt. eigenvalues --    3.67946   3.69945   3.70788   3.73072   3.73434
 Alpha virt. eigenvalues --    3.78244   3.80872   3.81754   3.83124   3.86047
 Alpha virt. eigenvalues --    3.88557   3.94775   3.97295   4.00087   4.02464
 Alpha virt. eigenvalues --    4.09990   4.12245   4.17344   4.20837   4.27682
 Alpha virt. eigenvalues --    5.38568
          Condensed to atoms (all electrons):
               1          2          3          4          5          6
     1  C   10.164735  -3.863881   1.274213   0.282425   0.508330   0.428952
     2  C   -3.863881  10.596500  -2.520505  -0.828167  -1.142800  -0.397788
     3  C    1.274213  -2.520505   9.909458   0.336838   0.578837   0.052967
     4  O    0.282425  -0.828167   0.336838   8.788211   0.010937   0.049703
     5  H    0.508330  -1.142800   0.578837   0.010937   2.147598   0.072691
     6  O    0.428952  -0.397788   0.052967   0.049703   0.072691   9.752754
     7  H   -0.016537   0.196032  -0.372129  -0.031017   0.129633  -0.162558
     8  N   -0.213969   0.633189  -0.809869  -0.034775  -0.320023  -0.369108
     9  C   -1.848934   1.179538  -2.427248  -0.088573  -0.172368  -0.673133
    10  H   -0.927049   0.586976  -0.195002   0.011115  -0.212932   0.004876
    11  O   -0.558102   0.206830   0.004702  -0.070490  -0.007205  -0.018315
    12  C    0.072137  -0.342259   0.367667   0.019508   0.034634  -0.051829
    13  H    0.063668   0.125539   0.196925  -0.002429  -0.016671  -0.049634
    14  O   -0.078241   0.013645  -0.014091  -0.000782  -0.000968  -0.045892
    15  H    0.040900   0.060613   0.031874   0.000409   0.006846   0.126853
    16  H   -0.060465  -0.028409  -0.000747   0.000750  -0.001893  -0.092549
    17  H   -0.004419  -0.117556   0.019861   0.053834   0.006559   0.006850
    18  H   -0.077706   0.153539  -0.075514   0.272418  -0.066608  -0.003119
    19  H    0.003574   0.013289  -0.008175  -0.001825  -0.000200   0.024934
    20  C   -0.004999   0.212165  -1.474942  -0.014378  -0.060218   0.435875
    21  C    0.011781  -0.041171   0.278188   0.001765   0.003233  -0.068892
    22  C   -0.008393  -0.005666  -0.185850   0.000661  -0.005765   0.029847
    23  N    0.006945   0.079197  -0.022395  -0.013740  -0.011405  -0.006654
    24  C   -0.184626   0.097137  -0.172021   0.023785   0.001911  -0.030610
    25  H   -0.051824  -0.055692   0.316326  -0.001057  -0.003127  -0.280826
    26  H   -0.000797   0.000349   0.012042   0.000277   0.000087   0.002313
    27  O    0.000070   0.000211   0.000188  -0.000018   0.000333   0.000407
    28  O    0.026262  -0.024782   0.141983  -0.040010   0.037963  -0.004668
               7          8          9         10         11         12
     1  C   -0.016537  -0.213969  -1.848934  -0.927049  -0.558102   0.072137
     2  C    0.196032   0.633189   1.179538   0.586976   0.206830  -0.342259
     3  C   -0.372129  -0.809869  -2.427248  -0.195002   0.004702   0.367667
     4  O   -0.031017  -0.034775  -0.088573   0.011115  -0.070490   0.019508
     5  H    0.129633  -0.320023  -0.172368  -0.212932  -0.007205   0.034634
     6  O   -0.162558  -0.369108  -0.673133   0.004876  -0.018315  -0.051829
     7  H    1.851915  -0.257667   0.126827  -0.017831  -0.000217  -0.012634
     8  N   -0.257667   8.327848   0.427085   0.031172   0.004776  -0.108789
     9  C    0.126827   0.427085  10.217752   0.072927   0.122593  -0.501387
    10  H   -0.017831   0.031172   0.072927   2.105472  -0.124955  -0.086362
    11  O   -0.000217   0.004776   0.122593  -0.124955   8.700600   0.045679
    12  C   -0.012634  -0.108789  -0.501387  -0.086362   0.045679   5.295272
    13  H    0.005406  -0.021633  -1.002649   0.116427  -0.007533  -0.079451
    14  O   -0.001327   0.005459   0.130602   0.011674   0.001658   0.051387
    15  H    0.002779  -0.002767  -0.366169  -0.030502   0.028576   0.168345
    16  H   -0.007700  -0.000724   0.458001   0.017225  -0.003322   0.008941
    17  H   -0.006446   0.002674  -0.022962   0.027415   0.324765  -0.004120
    18  H    0.007891   0.008724   0.000536   0.004901   0.006619  -0.007395
    19  H    0.001723  -0.002201  -0.059183  -0.002489   0.001712   0.004750
    20  C   -0.112427   0.507770   0.132054   0.024958  -0.001970  -0.088006
    21  C   -0.001955  -0.569617  -0.073720  -0.002258  -0.000139   0.019243
    22  C   -0.010272  -0.005057   0.016650   0.000911   0.000146  -0.004968
    23  N   -0.008619   0.051970   0.012398  -0.000841   0.000017  -0.000678
    24  C    0.122520  -0.329561  -0.108088   0.008801   0.001977  -0.020237
    25  H    0.022160   0.015396   0.010995   0.000591   0.000394  -0.014303
    26  H   -0.002036   0.051800   0.001353  -0.000010   0.000009   0.000182
    27  O   -0.000060  -0.012312  -0.000712  -0.000041  -0.000001   0.000054
    28  O    0.037074  -0.156610   0.022740   0.000657  -0.001020   0.000169
              13         14         15         16         17         18
     1  C    0.063668  -0.078241   0.040900  -0.060465  -0.004419  -0.077706
     2  C    0.125539   0.013645   0.060613  -0.028409  -0.117556   0.153539
     3  C    0.196925  -0.014091   0.031874  -0.000747   0.019861  -0.075514
     4  O   -0.002429  -0.000782   0.000409   0.000750   0.053834   0.272418
     5  H   -0.016671  -0.000968   0.006846  -0.001893   0.006559  -0.066608
     6  O   -0.049634  -0.045892   0.126853  -0.092549   0.006850  -0.003119
     7  H    0.005406  -0.001327   0.002779  -0.007700  -0.006446   0.007891
     8  N   -0.021633   0.005459  -0.002767  -0.000724   0.002674   0.008724
     9  C   -1.002649   0.130602  -0.366169   0.458001  -0.022962   0.000536
    10  H    0.116427   0.011674  -0.030502   0.017225   0.027415   0.004901
    11  O   -0.007533   0.001658   0.028576  -0.003322   0.324765   0.006619
    12  C   -0.079451   0.051387   0.168345   0.008941  -0.004120  -0.007395
    13  H    2.225691   0.020290  -0.035139  -0.052064  -0.003476   0.004207
    14  O    0.020290   8.298734  -0.135691  -0.048034  -0.000831   0.000354
    15  H   -0.035139  -0.135691   1.676518  -0.347591   0.000153  -0.000919
    16  H   -0.052064  -0.048034  -0.347591   1.416888  -0.001093  -0.000036
    17  H   -0.003476  -0.000831   0.000153  -0.001093   0.611636  -0.004310
    18  H    0.004207   0.000354  -0.000919  -0.000036  -0.004310   0.580417
    19  H    0.009232   0.305636   0.024688  -0.051521  -0.000360   0.000095
    20  C   -0.001236  -0.008453   0.002357   0.001468   0.005683  -0.005177
    21  C   -0.007995   0.003300   0.000883   0.002300  -0.000731   0.006024
    22  C    0.001774  -0.000564  -0.000033  -0.000351   0.000139  -0.003820
    23  N   -0.000486   0.000130   0.000013  -0.000029   0.000157   0.005671
    24  C    0.025389  -0.000154  -0.000909  -0.001691  -0.005757  -0.000206
    25  H   -0.007695   0.009022  -0.001471   0.005939  -0.000053  -0.000456
    26  H    0.000468  -0.000208   0.000058  -0.000037  -0.000020  -0.000249
    27  O   -0.000058   0.000001   0.000001   0.000002   0.000000   0.000212
    28  O    0.000933  -0.000003   0.000141   0.000017  -0.000125   0.040070
              19         20         21         22         23         24
     1  C    0.003574  -0.004999   0.011781  -0.008393   0.006945  -0.184626
     2  C    0.013289   0.212165  -0.041171  -0.005666   0.079197   0.097137
     3  C   -0.008175  -1.474942   0.278188  -0.185850  -0.022395  -0.172021
     4  O   -0.001825  -0.014378   0.001765   0.000661  -0.013740   0.023785
     5  H   -0.000200  -0.060218   0.003233  -0.005765  -0.011405   0.001911
     6  O    0.024934   0.435875  -0.068892   0.029847  -0.006654  -0.030610
     7  H    0.001723  -0.112427  -0.001955  -0.010272  -0.008619   0.122520
     8  N   -0.002201   0.507770  -0.569617  -0.005057   0.051970  -0.329561
     9  C   -0.059183   0.132054  -0.073720   0.016650   0.012398  -0.108088
    10  H   -0.002489   0.024958  -0.002258   0.000911  -0.000841   0.008801
    11  O    0.001712  -0.001970  -0.000139   0.000146   0.000017   0.001977
    12  C    0.004750  -0.088006   0.019243  -0.004968  -0.000678  -0.020237
    13  H    0.009232  -0.001236  -0.007995   0.001774  -0.000486   0.025389
    14  O    0.305636  -0.008453   0.003300  -0.000564   0.000130  -0.000154
    15  H    0.024688   0.002357   0.000883  -0.000033   0.000013  -0.000909
    16  H   -0.051521   0.001468   0.002300  -0.000351  -0.000029  -0.001691
    17  H   -0.000360   0.005683  -0.000731   0.000139   0.000157  -0.005757
    18  H    0.000095  -0.005177   0.006024  -0.003820   0.005671  -0.000206
    19  H    0.603479  -0.001617   0.004514   0.001534  -0.000553   0.001679
    20  C   -0.001617   9.491963  -2.268254   0.179778  -0.028495  -1.074962
    21  C    0.004514  -2.268254   9.841079  -2.411397   0.435957   0.702572
    22  C    0.001534   0.179778  -2.411397   8.935847  -0.368851  -0.581335
    23  N   -0.000553  -0.028495   0.435957  -0.368851   8.196386  -0.354784
    24  C    0.001679  -1.074962   0.702572  -0.581335  -0.354784   7.329127
    25  H   -0.009932  -1.030365   0.120401  -0.218822   0.069266   0.034917
    26  H    0.000196   0.619320  -0.910334   0.112979  -0.069205  -0.106202
    27  O   -0.000026   0.070199  -0.082670   0.072752  -0.122391   0.053025
    28  O   -0.000378  -0.069264   0.014867   0.014907  -0.218685   0.147824
              25         26         27         28
     1  C   -0.051824  -0.000797   0.000070   0.026262
     2  C   -0.055692   0.000349   0.000211  -0.024782
     3  C    0.316326   0.012042   0.000188   0.141983
     4  O   -0.001057   0.000277  -0.000018  -0.040010
     5  H   -0.003127   0.000087   0.000333   0.037963
     6  O   -0.280826   0.002313   0.000407  -0.004668
     7  H    0.022160  -0.002036  -0.000060   0.037074
     8  N    0.015396   0.051800  -0.012312  -0.156610
     9  C    0.010995   0.001353  -0.000712   0.022740
    10  H    0.000591  -0.000010  -0.000041   0.000657
    11  O    0.000394   0.000009  -0.000001  -0.001020
    12  C   -0.014303   0.000182   0.000054   0.000169
    13  H   -0.007695   0.000468  -0.000058   0.000933
    14  O    0.009022  -0.000208   0.000001  -0.000003
    15  H   -0.001471   0.000058   0.000001   0.000141
    16  H    0.005939  -0.000037   0.000002   0.000017
    17  H   -0.000053  -0.000020   0.000000  -0.000125
    18  H   -0.000456  -0.000249   0.000212   0.040070
    19  H   -0.009932   0.000196  -0.000026  -0.000378
    20  C   -1.030365   0.619320   0.070199  -0.069264
    21  C    0.120401  -0.910334  -0.082670   0.014867
    22  C   -0.218822   0.112979   0.072752   0.014907
    23  N    0.069266  -0.069205  -0.122391  -0.218685
    24  C    0.034917  -0.106202   0.053025   0.147824
    25  H    3.067511  -0.183074   0.003427   0.001396
    26  H   -0.183074   2.079858  -0.018134   0.002592
    27  O    0.003427  -0.018134   8.805849  -0.006412
    28  O    0.001396   0.002592  -0.006412   8.796961
 Mulliken charges:
               1
     1  C    1.015951
     2  C    1.213927
     3  C    0.756420
     4  O   -0.725375
     5  H   -0.517409
     6  O   -0.733447
     7  H   -0.482528
     8  N    0.146817
     9  C    0.413074
    10  H   -0.425828
    11  O   -0.657784
    12  C    1.234450
    13  H   -0.507800
    14  O   -0.516653
    15  H   -0.250818
    16  H   -0.213275
    17  H    0.112531
    18  H    0.153837
    19  H    0.137426
    20  C    0.561173
    21  C    0.993027
    22  C    0.443217
    23  N   -0.630295
    24  C    0.420479
    25  H   -0.819042
    26  H   -0.593579
    27  O   -0.763897
    28  O   -0.764598
 Sum of Mulliken charges =  -1.00000
 Mulliken charges with hydrogens summed into heavy atoms:
               1
     1  C    0.590123
     2  C    0.696519
     3  C    0.273892
     4  O   -0.571538
     6  O   -0.733447
     8  N    0.146817
     9  C   -0.094726
    11  O   -0.545253
    12  C    0.770357
    14  O   -0.379227
    20  C   -0.257870
    21  C    0.399448
    22  C    0.443217
    23  N   -0.630295
    24  C    0.420479
    27  O   -0.763897
    28  O   -0.764598
 Electronic spatial extent (au):  <R**2>=           4453.6467
 Charge=             -1.0000 electrons
 Dipole moment (field-independent basis, Debye):
    X=            -13.1139    Y=             -3.1894    Z=              2.2588  Tot=             13.6839
 Quadrupole moment (field-independent basis, Debye-Ang):
   XX=           -188.4719   YY=           -115.6940   ZZ=           -103.3348
   XY=             -4.2783   XZ=             -2.0952   YZ=             -2.2762
 Traceless Quadrupole moment (field-independent basis, Debye-Ang):
   XX=            -52.6384   YY=             20.1396   ZZ=             32.4987
   XY=             -4.2783   XZ=             -2.0952   YZ=             -2.2762
 Octapole moment (field-independent basis, Debye-Ang**2):
  XXX=           -323.9393  YYY=             -9.0845  ZZZ=              0.3380  XYY=            -19.5135
  XXY=             11.1359  XXZ=             58.0254  XZZ=             -8.9013  YZZ=              6.6091
  YYZ=              5.9773  XYZ=             -0.6530
 Hexadecapole moment (field-independent basis, Debye-Ang**3):
 XXXX=          -6066.7451 YYYY=          -1373.3366 ZZZZ=           -277.3171 XXXY=            120.3655
 XXXZ=             66.4141 YYYX=            -89.3614 YYYZ=            -14.8799 ZZZX=              3.5583
 ZZZY=              3.0667 XXYY=          -1084.5231 XXZZ=           -789.1499 YYZZ=           -287.9967
 XXYZ=            -34.6506 YYXZ=            -32.6486 ZZXY=              6.7751
 N-N= 1.294149318543D+03 E-N=-4.736945072088D+03  KE= 9.048838782478D+02
 Calling FoFJK, ICntrl=      2127 FMM=F ISym2X=0 I1Cent= 0 IOpClX= 0 NMat=1 NMatS=1 NMatT=0.
 ***** Axes restored to original set *****
 -------------------------------------------------------------------
 Center     Atomic                   Forces (Hartrees/Bohr)
 Number     Number              X              Y              Z
 -------------------------------------------------------------------
      1        6           0.003177366    0.000353529   -0.000952670
      2        6           0.001133574    0.002160771   -0.001316618
      3        6           0.017988610    0.002708816    0.004554938
      4        8          -0.008085882   -0.002404428    0.001190377
      5        1           0.000402792    0.000072825   -0.001435461
      6        8          -0.016278961    0.003203024   -0.000319669
      7        1          -0.001555204   -0.000873721   -0.000271941
      8        7          -0.030749377    0.005748913   -0.005188243
      9        6           0.007734590    0.002478782   -0.000619125
     10        1          -0.000161991   -0.000095338   -0.000066466
     11        8          -0.006200365   -0.002056506    0.000885134
     12        6           0.000366064   -0.001939756    0.000089513
     13        1          -0.001011823   -0.000759734   -0.000413912
     14        8          -0.001899611    0.002715325    0.000312789
     15        1          -0.000604593    0.000217729    0.000372168
     16        1           0.000261795    0.000522067   -0.000375019
     17        1           0.002935782    0.000435781   -0.000065014
     18        1           0.008104386    0.003476753   -0.000735028
     19        1           0.001638572   -0.002084448   -0.000262192
     20        6          -0.003569551   -0.000532541   -0.000672823
     21        6           0.001218120    0.009993091    0.000842247
     22        6          -0.045681511   -0.051982326   -0.011703983
     23        7          -0.001576362   -0.008184618   -0.000533579
     24        6           0.077301192    0.041930636    0.016856462
     25        1           0.000197725    0.000906526    0.000092848
     26        1          -0.002723167    0.005150113   -0.000330732
     27        8           0.025830625    0.017103743    0.005964457
     28        8          -0.028192796   -0.028265007   -0.005898457
 -------------------------------------------------------------------
 Cartesian Forces:  Max     0.077301192 RMS     0.014532021

 GradGradGradGradGradGradGradGradGradGradGradGradGradGradGradGradGradGrad
 Berny optimization.
 FormGI is forming the generalized inverse of G from B-inverse, IUseBI=4.
 Internal  Forces:  Max     0.035807853 RMS     0.007262663
 Search for a local minimum.
 Step number   1 out of a maximum of  166
 All quantities printed in internal units (Hartrees-Bohrs-Radians)
 Mixed Optimization -- RFO/linear search
 Second derivative matrix not updated -- first step.
 ITU=  0
     Eigenvalues ---    0.00337   0.00612   0.00853   0.01071   0.01482
     Eigenvalues ---    0.01520   0.01529   0.01638   0.01705   0.01745
     Eigenvalues ---    0.01969   0.01988   0.02085   0.02266   0.02469
     Eigenvalues ---    0.03061   0.03771   0.04227   0.04958   0.05004
     Eigenvalues ---    0.05115   0.05179   0.05533   0.05987   0.06118
     Eigenvalues ---    0.06179   0.06272   0.08119   0.08395   0.10222
     Eigenvalues ---    0.11642   0.13320   0.14001   0.15583   0.16000
     Eigenvalues ---    0.16000   0.16000   0.16000   0.16000   0.17151
     Eigenvalues ---    0.19265   0.19657   0.22083   0.22445   0.24477
     Eigenvalues ---    0.24973   0.24998   0.25000   0.25000   0.26096
     Eigenvalues ---    0.27198   0.28532   0.31189   0.33168   0.33336
     Eigenvalues ---    0.33353   0.33681   0.33910   0.33939   0.35258
     Eigenvalues ---    0.35326   0.36539   0.37212   0.37769   0.42741
     Eigenvalues ---    0.42893   0.43636   0.44951   0.45785   0.46953
     Eigenvalues ---    0.48699   0.50598   0.53663   0.53808   0.53915
     Eigenvalues ---    0.55006   0.92420   0.96844
 RFO step:  Lambda=-2.32028358D-02 EMin= 3.36726729D-03
 Linear search not attempted -- first point.
 Iteration  1 RMS(Cart)=  0.09828851 RMS(Int)=  0.00337840
 Iteration  2 RMS(Cart)=  0.00512378 RMS(Int)=  0.00016575
 Iteration  3 RMS(Cart)=  0.00001776 RMS(Int)=  0.00016538
 Iteration  4 RMS(Cart)=  0.00000001 RMS(Int)=  0.00016538
 Variable       Old X    -DE/DX   Delta X   Delta X   Delta X     New X
                                 (Linear)    (Quad)   (Total)
    R1        2.91721  -0.00066   0.00000  -0.00330  -0.00329   2.91392
    R2        2.89603   0.00085   0.00000   0.00146   0.00151   2.89754
    R3        2.07483  -0.00011   0.00000  -0.00031  -0.00031   2.07452
    R4        2.64375   0.00360   0.00000   0.00749   0.00749   2.65124
    R5        2.92597  -0.00428   0.00000  -0.01466  -0.01474   2.91123
    R6        2.65333  -0.00115   0.00000  -0.00243  -0.00243   2.65090
    R7        2.07872  -0.00100   0.00000  -0.00277  -0.00277   2.07595
    R8        2.64752   0.00896   0.00000   0.01873   0.01866   2.66617
    R9        2.08465   0.00065   0.00000   0.00182   0.00182   2.08646
   R10        2.76547  -0.00969   0.00000  -0.02492  -0.02492   2.74055
   R11        1.83040   0.00608   0.00000   0.01086   0.01086   1.84126
   R12        2.71293  -0.00618   0.00000  -0.01233  -0.01225   2.70068
   R13        2.59179  -0.00998   0.00000  -0.01726  -0.01724   2.57455
   R14        2.61347   0.02297   0.00000   0.04543   0.04551   2.65898
   R15        2.85654  -0.00032   0.00000  -0.00096  -0.00096   2.85558
   R16        2.08757   0.00106   0.00000   0.00298   0.00298   2.09055
   R17        1.82809   0.00050   0.00000   0.00088   0.00088   1.82897
   R18        2.66893   0.00031   0.00000   0.00067   0.00067   2.66960
   R19        2.07433   0.00058   0.00000   0.00160   0.00160   2.07593
   R20        2.08437   0.00060   0.00000   0.00167   0.00167   2.08604
   R21        1.81826   0.00099   0.00000   0.00173   0.00173   1.82000
   R22        2.55373  -0.00477   0.00000  -0.00707  -0.00714   2.54658
   R23        2.05258   0.00046   0.00000   0.00124   0.00124   2.05381
   R24        2.73975   0.01632   0.00000   0.04002   0.03993   2.77968
   R25        2.05148   0.00410   0.00000   0.01089   0.01089   2.06237
   R26        2.65727  -0.01753   0.00000  -0.03919  -0.03919   2.61808
   R27        2.29930   0.02842   0.00000   0.02866   0.02866   2.32796
   R28        2.58478  -0.02513   0.00000  -0.04817  -0.04810   2.53669
   R29        2.31837   0.03581   0.00000   0.03780   0.03780   2.35617
    A1        1.79855  -0.00052   0.00000  -0.00520  -0.00522   1.79333
    A2        1.91584   0.00050   0.00000   0.00213   0.00214   1.91799
    A3        1.99263  -0.00065   0.00000  -0.00357  -0.00356   1.98907
    A4        1.88613   0.00020   0.00000  -0.00102  -0.00103   1.88509
    A5        1.97889   0.00049   0.00000   0.00516   0.00517   1.98406
    A6        1.88826   0.00002   0.00000   0.00234   0.00233   1.89059
    A7        1.79723   0.00201   0.00000   0.00965   0.00960   1.80682
    A8        1.89575   0.00070   0.00000   0.01539   0.01555   1.91130
    A9        1.95155   0.00096   0.00000   0.01101   0.01104   1.96259
   A10        1.94768  -0.00222   0.00000  -0.01667  -0.01681   1.93087
   A11        1.92817  -0.00112   0.00000  -0.00919  -0.00934   1.91883
   A12        1.93898  -0.00018   0.00000  -0.00847  -0.00882   1.93016
   A13        1.87787  -0.00241   0.00000  -0.00691  -0.00673   1.87114
   A14        1.88332   0.00072   0.00000  -0.01541  -0.01586   1.86746
   A15        1.98967  -0.00675   0.00000  -0.03152  -0.03180   1.95788
   A16        1.93242  -0.00109   0.00000  -0.00582  -0.00615   1.92627
   A17        1.90321   0.00960   0.00000   0.06674   0.06693   1.97014
   A18        1.87775  -0.00018   0.00000  -0.00803  -0.00896   1.86879
   A19        1.85172  -0.01143   0.00000  -0.06238  -0.06238   1.78934
   A20        1.85067   0.00028   0.00000  -0.00166  -0.00180   1.84887
   A21        2.15482   0.00780   0.00000   0.02642   0.02636   2.18118
   A22        2.00431  -0.00523   0.00000  -0.02132  -0.02138   1.98293
   A23        2.12312  -0.00256   0.00000  -0.00479  -0.00470   2.11842
   A24        1.81504   0.00054   0.00000   0.00469   0.00475   1.81979
   A25        2.01745   0.00094   0.00000   0.00445   0.00450   2.02195
   A26        1.90435  -0.00060   0.00000  -0.00386  -0.00393   1.90042
   A27        1.89461  -0.00145   0.00000  -0.00776  -0.00782   1.88679
   A28        1.91858   0.00059   0.00000   0.00303   0.00303   1.92161
   A29        1.91068   0.00001   0.00000  -0.00027  -0.00026   1.91042
   A30        1.86570  -0.00517   0.00000  -0.02820  -0.02820   1.83751
   A31        1.96710  -0.00060   0.00000  -0.00305  -0.00308   1.96402
   A32        1.88572   0.00143   0.00000   0.01128   0.01128   1.89700
   A33        1.91255  -0.00064   0.00000  -0.00623  -0.00625   1.90630
   A34        1.86618  -0.00014   0.00000   0.00146   0.00145   1.86764
   A35        1.94313   0.00007   0.00000  -0.00399  -0.00403   1.93910
   A36        1.88600  -0.00003   0.00000   0.00150   0.00151   1.88752
   A37        1.87886  -0.00220   0.00000  -0.01201  -0.01201   1.86685
   A38        2.13807  -0.01182   0.00000  -0.04110  -0.04116   2.09691
   A39        1.99996   0.00674   0.00000   0.02507   0.02510   2.02506
   A40        2.14515   0.00508   0.00000   0.01602   0.01605   2.16119
   A41        2.09570  -0.00060   0.00000   0.00141   0.00125   2.09695
   A42        2.11952  -0.00396   0.00000  -0.02395  -0.02387   2.09565
   A43        2.06795   0.00456   0.00000   0.02255   0.02263   2.09058
   A44        1.97262   0.01834   0.00000   0.06459   0.06449   2.03711
   A45        2.21571  -0.02491   0.00000  -0.08990  -0.08985   2.12586
   A46        2.09485   0.00657   0.00000   0.02532   0.02536   2.12021
   A47        2.23108  -0.02412   0.00000  -0.09483  -0.09473   2.13634
   A48        2.00569   0.02076   0.00000   0.07480   0.07492   2.08061
   A49        2.12894  -0.03192   0.00000  -0.11626  -0.11638   2.01256
   A50        2.14855   0.01116   0.00000   0.04142   0.04129   2.18984
    D1        0.23991  -0.00019   0.00000  -0.00839  -0.00839   0.23152
    D2       -1.82715   0.00102   0.00000  -0.00104  -0.00105  -1.82820
    D3        2.31010   0.00013   0.00000  -0.00832  -0.00837   2.30173
    D4       -1.76609  -0.00037   0.00000  -0.00549  -0.00548  -1.77157
    D5        2.45004   0.00084   0.00000   0.00185   0.00186   2.45189
    D6        0.30410  -0.00005   0.00000  -0.00543  -0.00546   0.29864
    D7        2.39372  -0.00032   0.00000  -0.00763  -0.00761   2.38610
    D8        0.32666   0.00089   0.00000  -0.00029  -0.00028   0.32638
    D9       -1.81928  -0.00000   0.00000  -0.00757  -0.00760  -1.82688
   D10       -0.58395  -0.00081   0.00000   0.00386   0.00384  -0.58011
   D11       -2.65876   0.00009   0.00000   0.00781   0.00778  -2.65098
   D12        1.46268  -0.00013   0.00000   0.00801   0.00799   1.47066
   D13        1.44336  -0.00041   0.00000   0.00336   0.00336   1.44672
   D14       -0.63145   0.00050   0.00000   0.00731   0.00730  -0.62416
   D15       -2.79320   0.00027   0.00000   0.00751   0.00750  -2.78569
   D16       -2.74685   0.00006   0.00000   0.00882   0.00883  -2.73802
   D17        1.46153   0.00097   0.00000   0.01277   0.01277   1.47429
   D18       -0.70022   0.00074   0.00000   0.01298   0.01297  -0.68725
   D19       -0.36195   0.00079   0.00000   0.01360   0.01362  -0.34833
   D20        1.69098  -0.00001   0.00000   0.00798   0.00796   1.69894
   D21       -2.50045   0.00056   0.00000   0.01154   0.01154  -2.48891
   D22        0.18721  -0.00100   0.00000   0.00565   0.00562   0.19283
   D23       -1.89855   0.00122   0.00000   0.02477   0.02488  -1.87368
   D24        2.30008   0.00514   0.00000   0.06518   0.06496   2.36504
   D25        2.21756  -0.00007   0.00000   0.02142   0.02133   2.23889
   D26        0.13180   0.00215   0.00000   0.04055   0.04059   0.17239
   D27       -1.95275   0.00607   0.00000   0.08095   0.08067  -1.87208
   D28       -1.89924  -0.00272   0.00000  -0.00825  -0.00816  -1.90740
   D29        2.29818  -0.00050   0.00000   0.01088   0.01109   2.30928
   D30        0.21364   0.00342   0.00000   0.05128   0.05117   0.26481
   D31        3.06375  -0.00089   0.00000  -0.02535  -0.02542   3.03833
   D32        1.09435  -0.00252   0.00000  -0.03685  -0.03668   1.05768
   D33       -1.06594   0.00068   0.00000  -0.00654  -0.00664  -1.07258
   D34       -0.57631   0.00018   0.00000  -0.00317  -0.00307  -0.57937
   D35        1.47790  -0.00098   0.00000  -0.02908  -0.02930   1.44860
   D36       -2.74255   0.00404   0.00000  -0.00137  -0.00156  -2.74411
   D37       -2.08034  -0.00155   0.00000  -0.04080  -0.04048  -2.12082
   D38        1.10720  -0.00177   0.00000  -0.04807  -0.04769   1.05952
   D39        0.01837  -0.00219   0.00000  -0.02258  -0.02294  -0.00457
   D40       -3.07727  -0.00242   0.00000  -0.02985  -0.03015  -3.10742
   D41        2.11515   0.00183   0.00000   0.00359   0.00355   2.11869
   D42       -0.98049   0.00161   0.00000  -0.00367  -0.00366  -0.98415
   D43        0.73121   0.00002   0.00000  -0.00000  -0.00012   0.73109
   D44        2.88822   0.00067   0.00000   0.00385   0.00377   2.89199
   D45       -1.30551   0.00015   0.00000   0.00059   0.00049  -1.30502
   D46       -3.10767   0.00012   0.00000  -0.00149  -0.00135  -3.10902
   D47        0.02934  -0.00001   0.00000  -0.00371  -0.00375   0.02559
   D48       -0.01506   0.00032   0.00000   0.00592   0.00605  -0.00901
   D49        3.12195   0.00018   0.00000   0.00369   0.00365   3.12560
   D50        3.10720   0.00044   0.00000   0.00548   0.00529   3.11249
   D51       -0.03662  -0.00036   0.00000  -0.01195  -0.01156  -0.04818
   D52        0.01064  -0.00008   0.00000  -0.00256  -0.00256   0.00808
   D53       -3.13318  -0.00088   0.00000  -0.01999  -0.01940   3.13060
   D54        0.98615   0.00051   0.00000   0.00786   0.00788   0.99403
   D55       -1.07191   0.00011   0.00000   0.00058   0.00059  -1.07131
   D56       -3.12288  -0.00031   0.00000  -0.00421  -0.00417  -3.12705
   D57       -1.04422   0.00027   0.00000   0.00464   0.00461  -1.03961
   D58       -3.10228  -0.00014   0.00000  -0.00265  -0.00267  -3.10495
   D59        1.12993  -0.00056   0.00000  -0.00744  -0.00744   1.12250
   D60       -3.13860   0.00042   0.00000   0.00579   0.00577  -3.13283
   D61        1.08653   0.00002   0.00000  -0.00150  -0.00151   1.08502
   D62       -0.96445  -0.00041   0.00000  -0.00628  -0.00628  -0.97073
   D63        1.07126  -0.00210   0.00000  -0.04119  -0.04118   1.03008
   D64        3.14077  -0.00077   0.00000  -0.02817  -0.02817   3.11260
   D65       -1.08604  -0.00086   0.00000  -0.02768  -0.02769  -1.11373
   D66        0.00818  -0.00006   0.00000  -0.00258  -0.00279   0.00539
   D67       -3.13984  -0.00009   0.00000  -0.00249  -0.00272   3.14062
   D68       -3.12844   0.00009   0.00000  -0.00018  -0.00020  -3.12864
   D69        0.00672   0.00006   0.00000  -0.00008  -0.00013   0.00659
   D70        0.00174  -0.00009   0.00000  -0.00250  -0.00273  -0.00099
   D71       -3.14142   0.00001   0.00000   0.00050   0.00041  -3.14101
   D72       -3.13361  -0.00003   0.00000  -0.00242  -0.00263  -3.13624
   D73        0.00642   0.00007   0.00000   0.00058   0.00051   0.00693
   D74       -0.00579   0.00022   0.00000   0.00574   0.00594   0.00015
   D75        3.13725   0.00016   0.00000   0.00308   0.00292   3.14017
   D76       -0.00020  -0.00010   0.00000  -0.00321  -0.00337  -0.00357
   D77       -3.13953   0.00077   0.00000   0.01467   0.01555  -3.12398
         Item               Value     Threshold  Converged?
 Maximum Force            0.035808     0.000450     NO 
 RMS     Force            0.007263     0.000300     NO 
 Maximum Displacement     0.427662     0.001800     NO 
 RMS     Displacement     0.100161     0.001200     NO 
 Predicted change in Energy=-1.277279D-02
 GradGradGradGradGradGradGradGradGradGradGradGradGradGradGradGradGradGrad

                          Input orientation:                          
 ---------------------------------------------------------------------
 Center     Atomic      Atomic             Coordinates (Angstroms)
 Number     Number       Type             X           Y           Z
 ---------------------------------------------------------------------
      1          6           0       -2.403432   -0.488424    0.624438
      2          6           0       -1.005568   -1.112661    0.440018
      3          6           0       -0.354687   -0.226273   -0.638863
      4          8           0       -1.138339   -2.431862   -0.018139
      5          1           0       -0.407590   -1.081894    1.361039
      6          8           0       -1.183641    0.902908   -0.807273
      7          1           0       -0.321880   -0.820972   -1.568547
      8          7           0        1.013508    0.122911   -0.308268
      9          6           0       -2.519406    0.445449   -0.586132
     10          1           0       -2.420069    0.128862    1.532084
     11          8           0       -3.440620   -1.429149    0.711753
     12          6           0       -3.405776    1.655411   -0.402313
     13          1           0       -2.870097   -0.139373   -1.457246
     14          8           0       -3.007316    2.457339    0.690316
     15          1           0       -4.428890    1.313911   -0.194007
     16          1           0       -3.422270    2.239515   -1.338855
     17          1           0       -3.083731   -2.239359    0.320695
     18          1           0       -0.214624   -2.689645   -0.190360
     19          1           0       -2.100967    2.734689    0.519519
     20          6           0        1.483941    1.394271   -0.172457
     21          6           0        2.786023    1.608456    0.100884
     22          6           0        3.706974    0.470866    0.247204
     23          7           0        3.163945   -0.794170    0.091585
     24          6           0        1.864039   -0.990604   -0.179673
     25          1           0        0.754637    2.189243   -0.304128
     26          1           0        3.161788    2.627417    0.208535
     27          8           0        4.902454    0.631417    0.497477
     28          8           0        1.312571   -2.100846   -0.313214
 ---------------------------------------------------------------------
                    Distance matrix (angstroms):
                    1          2          3          4          5
     1  C    0.000000
     2  C    1.541982   0.000000
     3  C    2.421159   1.540557   0.000000
     4  O    2.406308   1.402793   2.421577   0.000000
     5  H    2.208658   1.098546   2.175890   2.063623   0.000000
     6  O    2.339549   2.376965   1.410878   3.427167   3.040274
     7  H    3.041814   2.141693   1.104108   2.380197   2.942431
     8  N    3.594322   2.482587   1.450235   3.352832   2.501531
     9  C    1.533314   2.402582   2.267157   3.241741   3.253309
    10  H    1.097788   2.175959   3.017438   3.256276   2.354837
    11  O    1.402978   2.470523   3.576878   2.615086   3.121126
    12  C    2.579717   3.759354   3.592470   4.689847   4.426214
    13  H    2.161718   2.832556   2.646619   3.213336   3.859406
    14  O    3.007746   4.100554   4.000617   5.281977   4.442366
    15  H    2.832091   4.243745   4.378264   4.988935   4.932433
    16  H    3.512008   4.499102   3.997520   5.364923   5.235406
    17  H    1.902851   2.366949   3.524337   1.984040   3.095767
    18  H    3.209385   1.873459   2.507783   0.974351   2.242530
    19  H    3.238974   4.001040   3.627484   5.282896   4.259341
    20  C    4.392181   3.585734   2.494845   4.641063   3.472880
    21  C    5.621518   4.679279   3.711808   5.633734   4.361782
    22  C    6.196741   4.975217   4.215235   5.654493   4.536664
    23  N    5.601170   4.196151   3.638246   4.604750   3.801337
    24  C    4.371509   2.938292   2.391192   3.334305   2.746348
    25  H    4.243293   3.815055   2.679060   5.001976   3.850181
    26  H    6.391644   5.604339   4.607301   6.643702   5.275197
    27  O    7.392302   6.160343   5.446506   6.792696   5.646038
    28  O    4.157857   2.630140   2.529787   2.490703   2.607746
                    6          7          8          9         10
     6  O    0.000000
     7  H    2.072181   0.000000
     8  N    2.384296   2.064577   0.000000
     9  C    1.429139   2.719942   3.558472   0.000000
    10  H    2.756898   3.862447   3.895687   2.144046   0.000000
    11  O    3.583278   3.911034   4.825825   2.459118   2.035157
    12  C    2.380785   4.123469   4.678405   1.511109   2.654027
    13  H    2.086372   2.640147   4.058489   1.106274   3.034892
    14  O    2.825742   4.802224   4.755392   2.432093   2.544649
    15  H    3.328161   4.828521   5.572363   2.134037   2.901567
    16  H    2.660932   4.362540   5.021777   2.144860   3.701560
    17  H    3.841418   3.634402   4.771088   2.889462   2.741602
    18  H    3.771738   2.324402   3.071267   3.911198   3.971748
    19  H    2.440756   4.490869   4.148081   2.576466   2.813796
    20  C    2.785754   3.180780   1.362391   4.134995   4.443874
    21  C    4.132890   4.283478   2.348629   5.474683   5.598297
    22  C    5.021623   4.604070   2.772071   6.281950   6.269652
    23  N    4.752844   3.861053   2.371771   5.856316   5.840226
    24  C    3.642475   2.595378   1.407073   4.630556   4.747304
    25  H    2.380071   3.437883   2.082489   3.720175   4.206614
    26  H    4.784198   5.213957   3.339871   6.137462   6.257130
    27  O    6.230300   5.802720   4.003961   7.502853   7.412308
    28  O    3.936713   2.425978   2.243782   4.608921   4.723275
                   11         12         13         14         15
    11  O    0.000000
    12  C    3.279767   0.000000
    13  H    2.587194   2.149672   0.000000
    14  O    3.910627   1.412691   3.372502   0.000000
    15  H    3.053106   1.098533   2.477427   2.027395   0.000000
    16  H    4.202906   1.103884   2.444999   2.082587   1.783453
    17  H    0.967851   3.974379   2.759828   4.711840   3.834070
    18  H    3.579065   5.395173   3.893639   5.921669   5.812788
    19  H    4.378261   1.927989   3.572030   0.963100   2.819034
    20  C    5.744983   4.902078   4.791701   4.695304   5.913416
    21  C    6.954947   6.212390   6.121632   5.884795   7.226942
    22  C    7.410395   7.239906   6.821686   7.015990   8.191317
    23  N    6.663939   7.028913   6.263969   7.001090   7.885221
    24  C    5.396885   5.901010   4.976829   6.031193   6.701637
    25  H    5.632491   4.195671   4.459914   3.900396   5.258069
    26  H    7.765355   6.667145   6.842046   6.190224   7.713995
    27  O    8.596437   8.419315   8.051560   8.120076   9.381787
    28  O    4.908621   6.031601   4.759296   6.359682   6.681254
                   16         17         18         19         20
    16  H    0.000000
    17  H    4.788426   0.000000
    18  H    5.992049   2.948849   0.000000
    19  H    2.333365   5.074102   5.786676   0.000000
    20  C    5.113299   5.857482   4.423101   3.889360   0.000000
    21  C    6.404216   7.021966   5.249989   5.032527   1.347593
    22  C    7.514640   7.311934   5.055613   6.239490   2.443495
    23  N    7.391051   6.416737   3.884205   6.352580   2.771535
[...]
 345,0.00004067,0.00002394,-0.00001133,0.00003464,-0.00000408,0.0000414
 3,-0.00002541,-0.00041521,0.00008213,0.00001631,-0.00013776,-0.0000710
 6,-0.00026614,-0.05726052,-0.00214076,-0.06404272,0.09024729,-0.018913
 52,0.11292912,-0.00027939,-0.00008918,-0.00047616,0.00062087,-0.000476
 11,0.00103540,-0.00631028,-0.00013693,-0.00139323,0.00254969,0.0004581
 7,-0.00095708,-0.00013221,0.00000855,0.00010362,0.00394945,-0.00120094
 ,0.00021053,0.00111057,0.00029999,0.00033237,0.00949921,0.01034146,0.0
 0127799,-0.00206206,-0.00027420,0.00026468,0.00042950,-0.00001743,-0.0
 0005438,0.00113139,0.00050711,0.00028573,0.00001892,0.00036941,-0.0001
 1381,0.00036369,0.00004575,0.00017925,0.00042321,-0.00054942,-0.000167
 88,0.00020595,-0.00006585,-0.00010947,-0.00008596,-0.00010939,0.000088
 80,-0.00071616,-0.00028605,-0.00016326,-0.00340191,-0.00082065,0.00112
 584,-0.00049627,0.00048739,0.00030275,-0.03680735,0.01199427,-0.006384
 46,-0.13078587,0.06459649,-0.01110105,0.87071278,-0.00016653,0.0002282
 2,0.00066474,-0.00147503,0.00402544,-0.00095310,0.00083766,-0.00094088
 ,0.00079364,0.00730632,-0.00326248,-0.00124338,-0.00005212,-0.00037087
 ,-0.00023250,0.00056589,-0.00231448,0.00005096,-0.00123044,-0.00069463
 ,-0.00085475,0.01360189,-0.05392727,0.00571208,0.00075215,-0.00022792,
 0.00002088,-0.00006338,-0.00001300,-0.00006478,0.00054850,-0.00094324,
 0.00015020,0.00024217,0.00036990,0.00031906,-0.00004948,-0.00008719,0.
 00000487,-0.00029188,-0.00064184,-0.00020151,-0.00007541,-0.00004662,-
 0.00005444,0.00004968,-0.00013122,0.00001401,-0.00091037,0.00019532,-0
 .00045691,-0.01028531,-0.00028162,0.00257852,0.00060875,0.00055185,-0.
 00016354,0.03312747,0.05805143,0.00152821,0.04230286,-0.18489923,0.011
 12560,0.07176932,0.57010556,0.00004272,-0.00000220,-0.00018545,0.00025
 379,-0.00068133,0.00054739,-0.00068160,0.00006082,-0.00091296,-0.00151
 812,0.00066004,0.00000995,0.00001950,0.00001782,-0.00002494,0.00052073
 ,-0.00010725,-0.00001669,0.00001266,-0.00016538,-0.00000958,0.00175630
 ,0.00450452,-0.00750224,-0.00041592,0.00002909,0.00003612,0.00008331,-
 0.00000129,0.00000453,0.00001896,0.00018601,-0.00004887,0.00001548,0.0
 0003683,0.00006299,0.00004528,0.00000696,0.00000568,-0.00000400,-0.000
 06148,-0.00010521,0.00001731,-0.00000541,-0.00002929,-0.00001935,0.000
 01235,-0.00000957,0.00005208,-0.00004798,0.00010146,0.00186330,-0.0000
 2502,0.00002310,0.00005667,0.00003216,0.00007351,-0.00853633,-0.001578
 01,0.00325868,-0.00821332,0.01407149,-0.08345864,0.07775924,-0.0118481
 3,0.22693082,0.00024887,0.00009113,-0.00019769,0.00079953,-0.00371056,
 -0.00019647,0.00568254,0.00450955,-0.00015851,-0.00965715,0.00264530,0
 .00282280,0.00007153,0.00050694,0.00023145,-0.00505625,0.00236017,-0.0
 0024586,0.00005933,0.00022383,0.00051660,-0.05682198,0.03914992,-0.014
 29118,0.00113278,0.00053541,-0.00043835,-0.00026350,0.00000726,0.00011
 436,-0.00122843,0.00040819,-0.00032866,-0.00029952,-0.00061316,-0.0002
 2224,-0.00031062,0.00003567,-0.00011400,-0.00004243,0.00087920,0.00039
 203,-0.00010451,0.00012293,0.00015106,0.00003197,0.00017392,-0.0000573
 6,0.00132297,0.00004652,0.00056679,0.01338214,0.00105840,-0.00481777,-
 0.00013441,-0.00074489,-0.00025432,-0.01941957,-0.03157643,-0.00111489
 ,0.03175126,0.00801345,0.00286925,-0.10389742,-0.04361907,-0.00327464,
 0.60786679,0.00019293,-0.00041948,-0.00045007,0.00095454,-0.00505201,0
 .00084030,0.00007937,-0.00784399,-0.00033433,-0.01131929,0.00420908,0.
 00289608,0.00005547,0.00062857,0.00022736,0.00239050,0.00251011,0.0000
 9491,0.00051861,0.00058882,0.00090730,0.02139385,0.03255609,0.00327887
 ,-0.00032410,-0.00044428,0.00042348,-0.00000406,0.00006932,0.00004284,
 -0.00085577,0.00109094,-0.00026144,0.00007680,-0.00021225,-0.00021010,
 0.00019609,0.00009359,-0.00006730,0.00012517,0.00060007,0.00013881,0.0
 0006288,-0.00004491,0.00000886,-0.00003626,0.00015215,-0.00001417,0.00
 126880,-0.00018514,0.00063441,0.01478314,0.00053051,-0.00589720,-0.000
 37260,-0.00045651,0.00006284,-0.01214426,-0.01762803,-0.00109431,0.006
 54030,-0.04146377,0.00503268,-0.02023853,-0.27518304,0.00910213,0.1831
 4268,0.48294333,-0.00006998,-0.00001339,0.00007389,-0.00073068,-0.0008
 6452,-0.00021848,0.00030339,0.00183409,0.00428135,-0.00112545,0.000328
 47,0.00031431,-0.00002949,0.00011844,-0.00007943,-0.00040734,-0.000129
 94,0.00005324,0.00057335,-0.00013195,-0.00022977,-0.01314307,0.0049501
 4,0.01834064,0.00008950,-0.00001539,-0.00014999,-0.00006370,0.00000689
 ,0.00001118,-0.00006203,-0.00002619,0.00000309,-0.00002308,-0.00003967
 ,-0.00008539,-0.00007506,0.00001918,0.00000750,0.00001026,0.00006853,0
 .00011952,-0.00000195,0.00000531,0.00002076,0.00000640,-0.00000393,0.0
 0001337,0.00004291,0.00003504,0.00000311,0.00144402,0.00048696,-0.0002
 5980,0.00000822,-0.00005552,-0.00009038,-0.00172322,-0.00299837,-0.001
 05030,0.00114828,0.00433441,0.01873597,-0.00510703,0.00745178,-0.06291
 341,0.05990392,-0.00466740,0.06993504,-0.00044872,0.00069545,-0.000530
 74,-0.00140505,0.00282752,0.00090994,-0.03483349,0.02270511,-0.0058008
 7,0.00431170,-0.00040367,0.00010257,-0.00029465,-0.00013474,0.00016228
 ,0.00063645,-0.00547842,0.00027775,-0.00013804,0.00052167,-0.00132515,
 -0.15353469,-0.00639657,-0.01536332,-0.00186747,0.00034623,-0.00050486
 ,0.00059012,-0.00010281,-0.00004207,0.00182722,-0.00011660,0.00049169,
 -0.00004614,0.00057081,0.00013660,0.00007076,-0.00001030,0.00021037,0.
 00019650,-0.00108128,-0.00040029,0.00013200,-0.00002838,-0.00013467,-0
 .00003971,-0.00022656,0.00007005,-0.00146373,-0.00025732,-0.00045293,-
 0.00939754,-0.00836439,0.00041938,0.00012869,0.00091402,0.00035495,0.0
 4461740,0.04699251,0.00460934,-0.03018285,0.00467594,-0.00578725,-0.04
 042727,-0.07192428,0.00268710,-0.35884948,-0.05540374,-0.03426116,0.70
 495818,-0.00037332,0.00065814,0.00226367,-0.00773187,0.01745251,-0.004
 08355,0.01913770,0.03106864,0.00529482,0.03607369,-0.01282971,-0.00781
 572,0.00023206,-0.00185352,-0.00122544,-0.01216035,-0.00628030,-0.0008
 5238,-0.00590416,-0.00281079,-0.00388608,0.02215659,-0.13595210,0.0100
 9422,0.00258624,0.00166097,-0.00184594,-0.00073274,-0.00016100,-0.0001
 0233,0.00130475,-0.00408414,0.00050293,-0.00049292,-0.00018702,0.00035
 919,-0.00103419,-0.00021977,0.00003374,-0.00036838,-0.00053408,0.00006
 362,-0.00029448,0.00026411,0.00013638,0.00012235,-0.00025137,-0.000055
 65,-0.00343219,0.00100575,-0.00203500,-0.04653862,-0.00612746,0.016675
 19,0.00082549,0.00016126,-0.00038381,0.00441649,-0.05247050,0.00414179
 ,0.01172535,0.00243259,0.00197465,-0.04852011,-0.00682841,-0.00631074,
 -0.03866409,-0.11995469,-0.00163759,0.19277501,0.72825088,0.00039269,-
 0.00024887,0.00019993,0.00107363,0.00040875,0.00115511,-0.00627730,0.0
 0239580,-0.00430047,0.00223990,0.00006559,-0.00050796,0.00005558,-0.00
 021584,-0.00000720,-0.00113990,0.00001508,-0.00032995,-0.00043931,0.00
 040308,0.00116142,-0.01660505,0.00148541,-0.06967675,-0.00011803,0.000
 59650,0.00028324,0.00006838,0.00000827,-0.00005893,0.00008752,0.000082
 36,-0.00019440,-0.00014179,-0.00002189,0.00005276,0.00013735,0.0000049
 2,-0.00002332,0.00006160,-0.00005649,-0.00014489,-0.00000296,0.0000202
 4,-0.00000484,-0.00001854,0.00001107,-0.00001172,0.00001662,-0.0000619
 5,0.00004724,-0.00229795,0.00239130,-0.00079239,-0.00009033,0.00007358
 ,0.00016959,0.00680423,0.01099654,0.00153427,-0.00570076,0.00045103,-0
 .00085391,0.00126822,-0.01101737,-0.01804735,-0.03535001,-0.00390260,-
 0.07520946,0.04856384,-0.02062164,0.22940873,-0.00009178,-0.00012746,0
 .00004760,-0.00006082,-0.00003072,0.00019442,-0.00034735,-0.00016733,0
 .00010502,-0.00021186,0.00031167,-0.00013456,0.00003024,0.00003338,-0.
 00001475,-0.00452875,-0.00350579,-0.00148056,0.00018335,0.00027652,-0.
 00003958,0.01145284,-0.00737168,0.00208055,-0.00109187,-0.00036257,0.0
 0023911,0.00000156,0.00002149,-0.00002025,0.00004849,0.00018531,-0.000
 01210,-0.00007468,0.00001758,-0.00002161,0.00019545,0.00003782,0.00003
 389,0.00007339,-0.00008528,-0.00023669,0.00005039,-0.00001131,-0.00005
 693,-0.00006650,0.00005270,-0.00001354,0.00001999,-0.00003787,0.000016
 39,0.00029512,-0.00001452,-0.00006696,-0.00010387,0.00016124,0.0007698
 8,-0.19940997,0.14601031,-0.03790835,-0.01216342,0.02192615,-0.0048285
 3,-0.00188887,-0.00496422,-0.00223966,0.00007028,0.00012300,0.00045520
 ,-0.00037253,-0.00176353,-0.00056787,0.20960454,0.00011679,-0.00025061
 ,-0.00004815,-0.00002607,-0.00046198,0.00000460,0.00369814,-0.00161271
 ,0.00078907,-0.00073304,0.00054253,0.00006446,0.00004063,0.00002342,0.
 00007060,0.00056274,0.00156254,-0.00024272,-0.00026174,0.00001520,-0.0
 0002511,0.02431987,-0.02522314,0.00605558,-0.00106044,0.00054777,0.000
 27356,-0.00000149,0.00007670,-0.00007746,-0.00006626,0.00028036,-0.000
 01265,-0.00010603,0.00009747,-0.00007946,0.00031141,0.00006233,0.00000
 856,0.00017156,-0.00017624,-0.00009856,0.00006794,-0.00004035,0.000002
 56,0.00001997,0.00000943,0.00004414,0.00012861,-0.00003995,0.00004166,
 0.00105668,0.00009518,-0.00041120,-0.00050670,0.00033144,0.00030929,0.
 13674040,-0.19305521,0.03463245,-0.00596622,0.00951264,-0.00090591,-0.
 00189713,-0.00017965,0.00081927,0.00093578,0.00079579,-0.00015092,-0.0
 0803454,0.00067126,-0.00110180,-0.15041041,0.20888844,0.00009049,0.000
 05264,-0.00012130,0.00029681,0.00026959,0.00047900,0.00031248,0.000052
 02,-0.00146841,0.00000293,-0.00005691,-0.00015723,0.00001731,-0.000028
 94,-0.00013296,-0.00111326,-0.00119597,-0.00066847,-0.00025773,0.00000
 192,0.00002512,-0.00044707,0.00094929,0.00258691,-0.00033963,0.0000298
 5,-0.00008793,0.00005704,0.00002321,-0.00000125,-0.00000204,-0.0000016
 3,-0.00004882,0.00027591,0.00009138,0.00058545,0.00000176,-0.00004135,
 -0.00000100,-0.00037092,-0.00025247,-0.00038498,-0.00004464,-0.0000313
 9,-0.00009201,-0.00003450,0.00005542,-0.00010037,0.00000670,-0.0000045
 9,0.00001483,-0.00003570,-0.00001953,0.00005944,0.00091266,0.00020861,
 -0.00010457,-0.03918120,0.03754941,-0.04824004,-0.00168476,0.00311900,
 0.00790798,-0.00169744,0.00015667,0.01168410,-0.00003256,-0.00023956,-
 0.00227763,0.00011170,-0.00024833,0.00325293,0.04232669,-0.03986928,0.
 03512226,0.00000300,-0.00002999,0.00006165,-0.00009657,0.00012989,-0.0
 0025862,0.00081475,-0.00147733,-0.00001454,0.00012074,-0.00010844,0.00
 004561,0.00000769,-0.00000768,0.00002006,-0.00004512,0.00025930,0.0000
 6845,-0.00040815,-0.00010013,-0.00007766,-0.00523686,-0.00014750,-0.00
 209579,0.00013321,-0.00000016,-0.00003079,-0.00004308,0.00000079,0.000
 00046,-0.00005045,-0.00001631,0.00000932,-0.00002873,-0.00006640,-0.00
 002963,-0.00002318,-0.00000159,-0.00000490,0.00003105,0.00010428,0.000
 04147,-0.00000075,0.00001205,0.00001000,-0.00000733,0.00001135,-0.0000
 0934,0.00001798,0.00002224,-0.00001395,-0.00017998,0.00002977,0.000025
 87,-0.00001061,-0.00010720,-0.00002189,-0.00471021,-0.02912598,0.00155
 575,-0.08212607,-0.08887338,-0.00188438,0.01062120,0.01679244,0.000039
 36,-0.00159880,0.00496624,-0.00069894,-0.00246067,0.00037110,-0.000357
 93,0.00067420,0.00036487,0.00090683,0.08294444,0.00001888,-0.00001850,
 0.00001418,-0.00002096,-0.00013596,-0.00005073,0.00072274,0.00005578,0
 .00026390,-0.00033064,0.00010155,0.00009399,0.00001232,0.00001766,0.00
 000830,-0.00024427,0.00012606,-0.00001361,-0.00001028,0.00003938,0.000
 03988,-0.00087079,0.00335560,0.00016669,0.00010984,0.00000470,-0.00002
 351,-0.00002004,-0.00000006,0.00000384,-0.00005737,0.00001679,-0.00001
 814,-0.00001397,-0.00004673,-0.00001829,-0.00002562,0.00000006,-0.0000
 0461,0.00000503,0.00007122,0.00003510,-0.00000480,0.00000778,0.0000091
 7,0.00000054,0.00000956,-0.00000514,0.00005466,0.00000181,0.00002228,0
 .00041430,0.00003790,-0.00016736,0.00000566,-0.00006697,-0.00003772,0.
 00355019,-0.00259868,0.00062698,-0.09204269,-0.31925046,0.00599804,-0.
 01656520,-0.01458049,-0.00105354,0.00311512,-0.00458737,0.00071178,0.0
 0369643,0.00057680,0.00046431,-0.00054244,0.00063916,-0.00052017,0.098
 96900,0.33332789,-0.00006464,0.00000016,0.00021374,-0.00062281,0.00008
 553,-0.00025139,-0.00015914,0.00016516,0.00244186,0.00017891,-0.000088
 26,-0.00004979,0.00001569,0.00000036,-0.00003167,-0.00001936,0.0000824
 6,-0.00014041,0.00053608,0.00016419,0.00018400,-0.00230217,0.00017713,
 0.00799407,-0.00002022,-0.00002562,0.00005100,-0.00004729,0.00001465,-
 0.00003170,0.00001818,-0.00003808,-0.00006273,0.00001927,-0.00000194,0
 .00004843,0.00000016,0.00000445,-0.00000850,-0.00001869,-0.00001428,-0
 .00006372,0.00000313,-0.00000280,-0.00000419,-0.00000329,0.00001171,-0
 .00000949,-0.00000803,0.00000272,0.00001405,-0.00016482,0.00001704,0.0
 0003813,-0.00003364,0.00001950,0.00006111,-0.00080340,-0.00453765,-0.0
 0116229,-0.00171602,0.00717933,-0.02686417,0.00240091,0.00339702,0.001
 78706,-0.00069749,0.00100521,0.00149720,-0.00043922,-0.00013057,-0.000
 06333,0.00119814,-0.00051680,-0.00555781,0.00210471,-0.00633926,0.0221
 8285,0.00022891,0.00005718,0.00040636,-0.00057343,0.00009234,-0.000976
 36,0.00483470,-0.00040663,0.00122113,-0.00285571,-0.00013897,0.0011366
 3,0.00011207,0.00007286,-0.00005430,-0.00327569,0.00072018,-0.00016866
 ,-0.00100213,-0.00022784,-0.00014466,-0.00844021,-0.00288683,-0.000217
 09,0.00186289,0.00000028,-0.00025837,-0.00038477,0.00001514,0.00005650
 ,-0.00102474,-0.00041208,-0.00026042,0.00004452,-0.00031814,0.00007886
 ,-0.00034976,-0.00003900,-0.00015259,-0.00037133,0.00052118,0.00018905
 ,-0.00016937,0.00004398,0.00009467,0.00007571,0.00009998,-0.00007391,0
 .00067894,0.00024852,0.00017264,0.00385159,0.00070465,-0.00158543,0.00
 044376,-0.00045193,-0.00035132,0.00538077,0.01267929,-0.00049499,-0.07
 161685,0.00888917,-0.01220200,-0.57868999,-0.07856423,-0.05727914,-0.0
 5119591,-0.05612444,-0.00400278,0.02252285,0.00371122,0.00118933,-0.00
 219905,-0.00013417,0.00003127,0.00093304,0.00112106,0.00019489,0.68960
 022,0.00006885,-0.00009713,-0.00011392,0.00029955,-0.00106238,0.000077
 72,0.00056133,0.00015958,-0.00001349,-0.00232365,0.00088744,0.00052695
 ,0.00002730,0.00011383,0.00007224,-0.00053898,0.00087074,-0.00006726,0
 .00013418,0.00015527,0.00019776,-0.00580188,0.01189937,-0.00168083,-0.
 00003049,0.00007364,-0.00003689,-0.00003863,0.00001154,0.00001931,-0.0
 0027359,0.00023380,-0.00006664,-0.00008135,-0.00016943,-0.00010283,-0.
 00002260,0.00002180,-0.00001833,0.00006848,0.00028233,0.00009560,0.000
 00667,0.00002152,0.00002896,-0.00000976,0.00005616,-0.00001507,0.00033
 033,-0.00002850,0.00014122,0.00313349,0.00013511,-0.00103748,-0.000154
 02,-0.00023796,0.00001144,-0.00166008,-0.01289762,0.00055606,0.0315840
 5,0.01562481,0.00449623,-0.07805035,-0.10925748,-0.00782669,-0.0742026
 4,-0.02081706,-0.00689660,0.01694049,-0.00571171,0.00352055,0.00123418
 ,0.00038691,0.00003247,-0.00197657,0.00324154,-0.00068183,0.11892550,0
 .12124758,0.00002164,0.00000372,0.00004651,0.00001248,0.00019047,-0.00
 022668,0.00063881,-0.00014348,-0.00043172,0.00002582,-0.00017709,0.000
 17740,-0.00000461,0.00001954,0.00003293,-0.00042219,0.00006054,-0.0000
 0134,-0.00017702,0.00003032,0.00000591,-0.00064026,-0.00130769,-0.0005
 3443,0.00027676,0.00000503,-0.00004811,-0.00005248,0.00000193,0.000008
 30,-0.00008605,-0.00006322,0.00002512,-0.00002118,-0.00004581,-0.00005
 509,-0.00003530,-0.00000269,-0.00001134,-0.00000666,0.00007931,0.00010
 530,-0.00001785,0.00000668,0.00001831,0.00001482,-0.00000300,0.0000063
 7,0.00004315,0.00003018,-0.00002366,0.00002197,0.00005463,-0.00020075,
 0.00002070,-0.00005919,-0.00008706,0.00055572,0.00242170,0.00288652,-0
 .01372087,0.00185767,0.02206151,-0.05696837,-0.00850021,-0.08209370,-0
 .00379764,-0.00361419,0.01453813,0.00059816,0.00132129,0.00980067,0.00
 014873,-0.00024757,-0.00252112,0.00047006,-0.00016967,-0.00161323,0.07
 340926,0.00920621,0.03979560,0.00006262,0.00016646,-0.00134904,0.00365
 183,-0.01547185,0.00213637,-0.00387610,-0.00663442,-0.00175142,-0.0520
 6366,0.00625744,0.01807048,-0.00001498,0.00174859,0.00061268,0.0007612
 6,0.00490477,0.00014559,0.00064692,0.00262904,0.00113851,0.02373100,0.
 02675453,-0.00271361,-0.00012903,-0.00041710,0.00062360,0.00007388,0.0
 0002229,0.00014437,-0.00207507,0.00240683,-0.00101313,-0.00000003,-0.0
 0042693,-0.00030802,0.00014146,0.00015634,-0.00020446,0.00002067,0.001
 00717,0.00027864,0.00001666,-0.00001444,0.00007371,-0.00001345,0.00029
 510,-0.00003119,0.00333606,-0.00025898,0.00235992,0.01356731,0.0103564
 5,-0.00807935,-0.00039421,-0.00072424,-0.00007739,-0.00902882,-0.00917
 285,-0.00212900,0.00749069,-0.00489291,0.00168144,0.00434458,0.0251666
 5,-0.00306170,-0.05354000,-0.08004731,-0.00246050,-0.14422985,-0.12742
 709,0.00714884,-0.00008850,0.00066885,-0.00010913,0.00072523,-0.001046
 74,0.00045014,-0.00842104,-0.00814979,-0.00030759,0.21530457,-0.000020
 72,0.00016610,-0.00188900,0.00202000,-0.01111104,0.00326441,-0.0135766
 4,-0.00657064,-0.00311690,-0.02965459,0.01638693,0.00792417,-0.0001208
 1,0.00163836,0.00074985,0.00340414,0.00282241,-0.00083674,0.00290459,0
 .00070143,0.00194447,0.00844819,-0.08578688,0.00906579,-0.00227620,-0.
 00062320,0.00071547,0.00039292,0.00009864,0.00015340,-0.00103339,0.002
 86284,-0.00026715,0.00006983,-0.00018526,-0.00043438,0.00044513,0.0002
 0361,-0.00005319,0.00038213,0.00072792,0.00012224,0.00018438,-0.000087
 30,-0.00003867,-0.00008960,0.00025698,0.00001662,0.00263742,-0.0007634
 5,0.00146025,0.03648450,-0.01054295,-0.01350868,-0.00072896,-0.0004256
 5,0.00028606,0.00706580,-0.00260398,0.00209293,0.00221550,-0.00525405,
 0.00048963,0.00841954,0.02128384,0.00017494,-0.05483055,-0.03247585,-0
 .00271962,-0.13569759,-0.42794633,0.01385405,-0.00099622,-0.00349871,-
 0.00008133,0.00000534,-0.00034602,0.00005046,-0.00819827,-0.00514369,-
 0.00095540,0.17214415,0.54621593,-0.00002185,-0.00023127,0.00050764,-0
 .00039520,0.00752939,-0.00272600,0.00105381,-0.00167564,-0.00492969,0.
 02548163,-0.00301997,-0.00036723,-0.00025831,-0.00049525,0.00026190,-0
 .00170090,0.00176581,0.00174269,0.00052284,0.00109466,0.00059352,-0.00
 110202,0.01366970,0.01726817,0.00139073,0.00043679,-0.00042738,-0.0001
 3624,0.00000735,0.00001578,0.00089690,-0.00121124,0.00103718,-0.000170
 52,-0.00004600,0.00002813,-0.00010277,-0.00017342,0.00007924,-0.000056
 80,-0.00016939,0.00019409,-0.00006701,0.00006579,0.00005284,0.00003445
 ,-0.00013713,0.00000814,-0.00147775,0.00014483,-0.00160803,-0.01251240
 ,-0.00500717,-0.00552896,0.00012428,0.00009430,-0.00024999,-0.00283432
 ,-0.00054135,0.00310415,0.00097715,0.00010041,-0.00176512,-0.00194172,
 0.00162235,0.01083252,-0.00197860,-0.00394343,0.01461574,0.00533683,0.
 00837327,-0.07683905,0.00002633,0.00067180,0.00024788,0.00013875,-0.00
 003669,-0.00059909,0.00004144,-0.00042484,-0.00166036,-0.01126875,-0.0
 1846368,0.04611129\\0.00000414,-0.00002084,-0.00001967,-0.00000843,-0.
 00001131,0.00000475,-0.00003056,0.00002807,-0.00000993,-0.00000805,0.0
 0000316,0.00000278,0.00000164,0.00000816,0.00000095,0.00001187,-0.0000
 2645,0.00001116,0.00000682,0.00000223,0.00000283,0.00003290,-0.0000043
 4,-0.00002920,-0.00000165,0.00001493,0.00000871,0.00000200,0.00000139,
 0.00000615,0.00002039,0.00000375,0.00001797,0.00000782,-0.00000758,0.0
 0000136,-0.00000453,-0.00000021,-0.00000182,-0.00000025,0.00000402,-0.
 00000784,0.00000059,-0.00000264,-0.00000173,0.00000028,-0.00000003,-0.
 00000392,-0.00001187,0.00000991,-0.00000444,0.00000916,-0.00000587,0.0
 0000366,-0.00000222,-0.00000160,0.00000231,-0.00000717,-0.00002232,0.0
 0001530,0.00001077,0.00000446,0.00000387,-0.00003539,-0.00001496,-0.00
 000599,-0.00000666,0.00000308,-0.00000046,0.00001635,0.00007591,0.0000
 0376,-0.00000406,0.00000005,-0.00000520,-0.00000250,0.00000089,-0.0000
 0063,0.00002587,0.00000683,-0.00000004,-0.00002725,-0.00004866,0.00000
 532\\\@
 The archive entry for this job was punched.


 FESTINA LENTE!
     - IMPERATOR AUGUSTUS 
 Job cpu time:       0 days  9 hours 43 minutes 17.9 seconds.
 Elapsed time:       0 days  0 hours 14 minutes 42.3 seconds.
 File lengths (MBytes):  RWF=    600 Int=      0 D2E=      0 Chk=     20 Scr=      1
 Normal termination of Gaussian 16 at Thu Oct 24 10:23:40 2024.
