 Entering Gaussian System, Link 0=g16
 Input=PseudoUridineSsllaPBE0aVDZ.gjf
 Output=PseudoUridineSsllaPBE0aVDZ.log
 Initial command:
 /sw/contrib/chem-src/g16/c01/g16/l1.exe "/scr/Gau-40979.inp" -scrdir="/scr/"
 Entering Link 1 = /sw/contrib/chem-src/g16/c01/g16/l1.exe PID=     40980.
  
 Copyright (c) 1988-2019, Gaussian, Inc.  All Rights Reserved.
  
 This is part of the Gaussian(R) 16 program.  It is based on
 the Gaussian(R) 09 system (copyright 2009, Gaussian, Inc.),
 the Gaussian(R) 03 system (copyright 2003, Gaussian, Inc.),
 the Gaussian(R) 98 system (copyright 1998, Gaussian, Inc.),
 the Gaussian(R) 94 system (copyright 1995, Gaussian, Inc.),
 the Gaussian 92(TM) system (copyright 1992, Gaussian, Inc.),
 the Gaussian 90(TM) system (copyright 1990, Gaussian, Inc.),
 the Gaussian 88(TM) system (copyright 1988, Gaussian, Inc.),
 the Gaussian 86(TM) system (copyright 1986, Carnegie Mellon
 University), and the Gaussian 82(TM) system (copyright 1983,
 Carnegie Mellon University). Gaussian is a federally registered
 trademark of Gaussian, Inc.
  
 This software contains proprietary and confidential information,
 including trade secrets, belonging to Gaussian, Inc.
  
 This software is provided under written license and may be
 used, copied, transmitted, or stored only in accord with that
 written license.
  
 The following legend is applicable only to US Government
 contracts under FAR:
  
                    RESTRICTED RIGHTS LEGEND
  
 Use, reproduction and disclosure by the US Government is
 subject to restrictions as set forth in subparagraphs (a)
 and (c) of the Commercial Computer Software - Restricted
 Rights clause in FAR 52.227-19.
  
 Gaussian, Inc.
 340 Quinnipiac St., Bldg. 40, Wallingford CT 06492
  
  
 ---------------------------------------------------------------
 Warning -- This program may not be used in any manner that
 competes with the business of Gaussian, Inc. or will provide
 assistance to any competitor of Gaussian, Inc.  The licensee
 of this program is prohibited from giving any competitor of
 Gaussian, Inc. access to this program.  By using this program,
 the user acknowledges that Gaussian, Inc. is engaged in the
 business of creating and licensing software in the field of
 computational chemistry and represents and warrants to the
 licensee that it is not a competitor of Gaussian, Inc. and that
 it will not use this program in any manner prohibited above.
 ---------------------------------------------------------------
  

 Cite this work as:
 Gaussian 16, Revision C.01,
 M. J. Frisch, G. W. Trucks, H. B. Schlegel, G. E. Scuseria, 
 M. A. Robb, J. R. Cheeseman, G. Scalmani, V. Barone, 
 G. A. Petersson, H. Nakatsuji, X. Li, M. Caricato, A. V. Marenich, 
 J. Bloino, B. G. Janesko, R. Gomperts, B. Mennucci, H. P. Hratchian, 
 J. V. Ortiz, A. F. Izmaylov, J. L. Sonnenberg, D. Williams-Young, 
 F. Ding, F. Lipparini, F. Egidi, J. Goings, B. Peng, A. Petrone, 
 T. Henderson, D. Ranasinghe, V. G. Zakrzewski, J. Gao, N. Rega, 
 G. Zheng, W. Liang, M. Hada, M. Ehara, K. Toyota, R. Fukuda, 
 J. Hasegawa, M. Ishida, T. Nakajima, Y. Honda, O. Kitao, H. Nakai, 
 T. Vreven, K. Throssell, J. A. Montgomery, Jr., J. E. Peralta, 
 F. Ogliaro, M. J. Bearpark, J. J. Heyd, E. N. Brothers, K. N. Kudin, 
 V. N. Staroverov, T. A. Keith, R. Kobayashi, J. Normand, 
 K. Raghavachari, A. P. Rendell, J. C. Burant, S. S. Iyengar, 
 J. Tomasi, M. Cossi, J. M. Millam, M. Klene, C. Adamo, R. Cammi, 
 J. W. Ochterski, R. L. Martin, K. Morokuma, O. Farkas, 
 J. B. Foresman, and D. J. Fox, Gaussian, Inc., Wallingford CT, 2019.
 
 ******************************************
 Gaussian 16:  EM64L-G16RevC.01  3-Jul-2019
                24-Oct-2024 
 ******************************************
 %nprocshared=40
 Will use up to   40 processors via shared memory.
 %mem=50gb
 ------------------------------------------------------
 # PBE1PBE/aug-cc-pVDZ opt freq EmpiricalDispersion=GD3
 ------------------------------------------------------
 1/18=20,19=15,26=3,38=1/1,3;
 2/9=110,12=2,17=6,18=5,40=1/2;
 3/5=16,7=10,11=2,25=1,30=1,71=1,74=-13,124=31/1,2,3;
 4//1;
 5/5=2,38=5/2;
 6/7=2,8=2,9=2,10=2,28=1/1;
 7//1,2,3,16;
 1/18=20,19=15,26=3/3(2);
 2/9=110/2;
 99//99;
 2/9=110/2;
 3/5=16,7=10,11=2,25=1,30=1,71=1,74=-13,124=31/1,2,3;
 4/5=5,16=3,69=1/1;
 5/5=2,38=5/2;
 7//1,2,3,16;
 1/18=20,19=15,26=3/3(-5);
 2/9=110/2;
 6/7=2,8=2,9=2,10=2,19=2,28=1/1;
 99/9=1/99;
 ----
 blah
 ----
 Symbolic Z-matrix:
 Charge =  0 Multiplicity = 1
 C                    -2.75618  -0.24513   0.32418 
 C                    -1.38441  -0.88565   0.54504 
 C                    -0.61051  -0.44595  -0.71586 
 O                    -1.53447  -2.27445   0.66269 
 H                    -0.90579  -0.44374   1.43065 
 O                    -1.24452   0.68176  -1.23699 
 H                    -0.60506  -1.25872  -1.45678 
 C                     0.8068   -0.1212   -0.43153 
 C                    -2.42369   1.0074   -0.47751 
 H                    -3.24768  -0.00171   1.2797 
 O                    -3.56908  -1.08004  -0.46658 
 C                    -2.20238   2.26213   0.33819 
 H                    -3.22936   1.19582  -1.19964 
 O                    -1.1966    2.01015   1.30601 
 H                    -3.15969   2.54028   0.81145 
 H                    -1.90346   3.07556  -0.34371 
 H                    -3.30267  -1.98754  -0.259 
 H                    -0.6454   -2.6504    0.5414 
 H                    -1.04225   2.80807   1.81796 
 C                     1.31788   1.14202  -0.56532 
 N                     2.61982   1.43116  -0.3404 
 C                     3.53685   0.38446   0.0576 
 N                     2.91681  -0.87266   0.16615 
 C                     1.59994  -1.1784   -0.04097 
 H                     0.58901   1.88607  -0.87074 
 H                     3.00347   2.4401   -0.45585 
 H                     3.50557  -1.64449   0.45589 
 O                     4.72663   0.49813   0.29289 
 O                     1.15481  -2.31488   0.11157 
 

 GradGradGradGradGradGradGradGradGradGradGradGradGradGradGradGradGradGrad
 Berny optimization.
 Initialization pass.
                           ----------------------------
                           !    Initial Parameters    !
                           ! (Angstroms and Degrees)  !
 --------------------------                            --------------------------
 ! Name  Definition              Value          Derivative Info.                !
 --------------------------------------------------------------------------------
 ! R1    R(1,2)                  1.53           estimate D2E/DX2                !
 ! R2    R(1,9)                  1.5238         estimate D2E/DX2                !
 ! R3    R(1,10)                 1.1017         estimate D2E/DX2                !
 ! R4    R(1,11)                 1.4083         estimate D2E/DX2                !
 ! R5    R(2,3)                  1.5434         estimate D2E/DX2                !
 ! R6    R(2,4)                  1.4018         estimate D2E/DX2                !
 ! R7    R(2,5)                  1.0994         estimate D2E/DX2                !
 ! R8    R(3,6)                  1.3947         estimate D2E/DX2                !
 ! R9    R(3,7)                  1.0998         estimate D2E/DX2                !
 ! R10   R(3,8)                  1.4816         estimate D2E/DX2                !
 ! R11   R(4,18)                 0.9729         estimate D2E/DX2                !
 ! R12   R(6,9)                  1.4399         estimate D2E/DX2                !
 ! R13   R(8,20)                 1.3692         estimate D2E/DX2                !
 ! R14   R(8,24)                 1.3781         estimate D2E/DX2                !
 ! R15   R(9,12)                 1.5128         estimate D2E/DX2                !
 ! R16   R(9,13)                 1.0982         estimate D2E/DX2                !
 ! R17   R(11,17)                0.9683         estimate D2E/DX2                !
 ! R18   R(12,14)                1.4184         estimate D2E/DX2                !
 ! R19   R(12,15)                1.1035         estimate D2E/DX2                !
 ! R20   R(12,16)                1.1027         estimate D2E/DX2                !
 ! R21   R(14,19)                0.9605         estimate D2E/DX2                !
 ! R22   R(20,21)                1.3525         estimate D2E/DX2                !
 ! R23   R(20,25)                1.0854         estimate D2E/DX2                !
 ! R24   R(21,22)                1.4474         estimate D2E/DX2                !
 ! R25   R(21,26)                1.0856         estimate D2E/DX2                !
 ! R26   R(22,23)                1.4059         estimate D2E/DX2                !
 ! R27   R(22,28)                1.2181         estimate D2E/DX2                !
 ! R28   R(23,24)                1.3677         estimate D2E/DX2                !
 ! R29   R(23,27)                1.0131         estimate D2E/DX2                !
 ! R30   R(24,29)                1.23           estimate D2E/DX2                !
 ! A1    A(2,1,9)              102.969          estimate D2E/DX2                !
 ! A2    A(2,1,10)             111.5483         estimate D2E/DX2                !
 ! A3    A(2,1,11)             110.512          estimate D2E/DX2                !
 ! A4    A(9,1,10)             111.8397         estimate D2E/DX2                !
 ! A5    A(9,1,11)             108.5328         estimate D2E/DX2                !
 ! A6    A(10,1,11)            111.1289         estimate D2E/DX2                !
 ! A7    A(1,2,3)              102.2618         estimate D2E/DX2                !
 ! A8    A(1,2,4)              109.3232         estimate D2E/DX2                !
 ! A9    A(1,2,5)              109.7754         estimate D2E/DX2                !
 ! A10   A(3,2,4)              113.8588         estimate D2E/DX2                !
 ! A11   A(3,2,5)              108.9831         estimate D2E/DX2                !
 ! A12   A(4,2,5)              112.1613         estimate D2E/DX2                !
 ! A13   A(2,3,6)              107.9184         estimate D2E/DX2                !
 ! A14   A(2,3,7)              110.0179         estimate D2E/DX2                !
 ! A15   A(2,3,8)              112.6644         estimate D2E/DX2                !
 ! A16   A(6,3,7)              110.3689         estimate D2E/DX2                !
 ! A17   A(6,3,8)              109.2287         estimate D2E/DX2                !
 ! A18   A(7,3,8)              106.6502         estimate D2E/DX2                !
 ! A19   A(2,4,18)             105.9353         estimate D2E/DX2                !
 ! A20   A(3,6,9)              110.9802         estimate D2E/DX2                !
 ! A21   A(3,8,20)             122.7198         estimate D2E/DX2                !
 ! A22   A(3,8,24)             115.8991         estimate D2E/DX2                !
 ! A23   A(20,8,24)            121.3725         estimate D2E/DX2                !
 ! A24   A(1,9,6)              105.6811         estimate D2E/DX2                !
 ! A25   A(1,9,12)             115.4663         estimate D2E/DX2                !
 ! A26   A(1,9,13)             109.0798         estimate D2E/DX2                !
 ! A27   A(6,9,12)             110.6199         estimate D2E/DX2                !
 ! A28   A(6,9,13)             107.0222         estimate D2E/DX2                !
 ! A29   A(12,9,13)            108.637          estimate D2E/DX2                !
 ! A30   A(1,11,17)            106.0479         estimate D2E/DX2                !
 ! A31   A(9,12,14)            108.923          estimate D2E/DX2                !
 ! A32   A(9,12,15)            108.2626         estimate D2E/DX2                !
 ! A33   A(9,12,16)            108.5443         estimate D2E/DX2                !
 ! A34   A(14,12,15)           111.5491         estimate D2E/DX2                !
 ! A35   A(14,12,16)           111.1483         estimate D2E/DX2                !
 ! A36   A(15,12,16)           108.3259         estimate D2E/DX2                !
 ! A37   A(12,14,19)           109.2719         estimate D2E/DX2                !
 ! A38   A(8,20,21)            122.7029         estimate D2E/DX2                !
 ! A39   A(8,20,25)            114.1588         estimate D2E/DX2                !
 ! A40   A(21,20,25)           123.1378         estimate D2E/DX2                !
 ! A41   A(20,21,22)           120.0675         estimate D2E/DX2                !
 ! A42   A(20,21,26)           121.4131         estimate D2E/DX2                !
 ! A43   A(22,21,26)           118.5188         estimate D2E/DX2                !
 ! A44   A(21,22,23)           112.8578         estimate D2E/DX2                !
 ! A45   A(21,22,28)           127.1897         estimate D2E/DX2                !
 ! A46   A(23,22,28)           119.9524         estimate D2E/DX2                !
 ! A47   A(22,23,24)           127.7948         estimate D2E/DX2                !
 ! A48   A(22,23,27)           116.553          estimate D2E/DX2                !
 ! A49   A(24,23,27)           115.6309         estimate D2E/DX2                !
 ! A50   A(8,24,23)            115.1865         estimate D2E/DX2                !
 ! A51   A(8,24,29)            122.3881         estimate D2E/DX2                !
 ! A52   A(23,24,29)           122.4254         estimate D2E/DX2                !
 ! D1    D(9,1,2,3)            -30.4362         estimate D2E/DX2                !
 ! D2    D(9,1,2,4)           -151.4234         estimate D2E/DX2                !
 ! D3    D(9,1,2,5)             85.151          estimate D2E/DX2                !
 ! D4    D(10,1,2,3)          -150.5274         estimate D2E/DX2                !
 ! D5    D(10,1,2,4)            88.4855         estimate D2E/DX2                !
 ! D6    D(10,1,2,5)           -34.9402         estimate D2E/DX2                !
 ! D7    D(11,1,2,3)            85.3113         estimate D2E/DX2                !
 ! D8    D(11,1,2,4)           -35.6758         estimate D2E/DX2                !
 ! D9    D(11,1,2,5)          -159.1015         estimate D2E/DX2                !
 ! D10   D(2,1,9,6)             29.8866         estimate D2E/DX2                !
 ! D11   D(2,1,9,12)           -92.7185         estimate D2E/DX2                !
 ! D12   D(2,1,9,13)           144.6477         estimate D2E/DX2                !
 ! D13   D(10,1,9,6)           149.7768         estimate D2E/DX2                !
 ! D14   D(10,1,9,12)           27.1718         estimate D2E/DX2                !
 ! D15   D(10,1,9,13)          -95.4621         estimate D2E/DX2                !
 ! D16   D(11,1,9,6)           -87.2714         estimate D2E/DX2                !
 ! D17   D(11,1,9,12)          150.1235         estimate D2E/DX2                !
 ! D18   D(11,1,9,13)           27.4897         estimate D2E/DX2                !
 ! D19   D(2,1,11,17)           31.5736         estimate D2E/DX2                !
 ! D20   D(9,1,11,17)          143.792          estimate D2E/DX2                !
 ! D21   D(10,1,11,17)         -92.8281         estimate D2E/DX2                !
 ! D22   D(1,2,3,6)             21.4567         estimate D2E/DX2                !
 ! D23   D(1,2,3,7)            -99.0161         estimate D2E/DX2                !
 ! D24   D(1,2,3,8)            142.1282         estimate D2E/DX2                !
 ! D25   D(4,2,3,6)            139.2565         estimate D2E/DX2                !
 ! D26   D(4,2,3,7)             18.7838         estimate D2E/DX2                !
 ! D27   D(4,2,3,8)           -100.072          estimate D2E/DX2                !
 ! D28   D(5,2,3,6)            -94.7051         estimate D2E/DX2                !
 ! D29   D(5,2,3,7)            144.8221         estimate D2E/DX2                !
 ! D30   D(5,2,3,8)             25.9664         estimate D2E/DX2                !
 ! D31   D(1,2,4,18)           164.0103         estimate D2E/DX2                !
 ! D32   D(3,2,4,18)            50.3589         estimate D2E/DX2                !
 ! D33   D(5,2,4,18)           -73.9877         estimate D2E/DX2                !
 ! D34   D(2,3,6,9)             -2.9197         estimate D2E/DX2                !
 ! D35   D(7,3,6,9)            117.3327         estimate D2E/DX2                !
 ! D36   D(8,3,6,9)           -125.7182         estimate D2E/DX2                !
 ! D37   D(2,3,8,20)          -114.4662         estimate D2E/DX2                !
 ! D38   D(2,3,8,24)            66.5905         estimate D2E/DX2                !
 ! D39   D(6,3,8,20)             5.4517         estimate D2E/DX2                !
 ! D40   D(6,3,8,24)          -173.4917         estimate D2E/DX2                !
 ! D41   D(7,3,8,20)           124.7315         estimate D2E/DX2                !
 ! D42   D(7,3,8,24)           -54.2119         estimate D2E/DX2                !
 ! D43   D(3,6,9,1)            -17.1993         estimate D2E/DX2                !
 ! D44   D(3,6,9,12)           108.4485         estimate D2E/DX2                !
 ! D45   D(3,6,9,13)          -133.3686         estimate D2E/DX2                !
 ! D46   D(3,8,20,21)         -178.1714         estimate D2E/DX2                !
 ! D47   D(3,8,20,25)            1.5781         estimate D2E/DX2                !
 ! D48   D(24,8,20,21)           0.7154         estimate D2E/DX2                !
 ! D49   D(24,8,20,25)        -179.5352         estimate D2E/DX2                !
 ! D50   D(3,8,24,23)          177.5071         estimate D2E/DX2                !
 ! D51   D(3,8,24,29)           -2.5635         estimate D2E/DX2                !
 ! D52   D(20,8,24,23)          -1.4517         estimate D2E/DX2                !
 ! D53   D(20,8,24,29)         178.4777         estimate D2E/DX2                !
 ! D54   D(1,9,12,14)           55.0105         estimate D2E/DX2                !
 ! D55   D(1,9,12,15)          -66.4566         estimate D2E/DX2                !
 ! D56   D(1,9,12,16)          176.1608         estimate D2E/DX2                !
 ! D57   D(6,9,12,14)          -64.9275         estimate D2E/DX2                !
 ! D58   D(6,9,12,15)          173.6054         estimate D2E/DX2                !
 ! D59   D(6,9,12,16)           56.2228         estimate D2E/DX2                !
 ! D60   D(13,9,12,14)         177.8794         estimate D2E/DX2                !
 ! D61   D(13,9,12,15)          56.4124         estimate D2E/DX2                !
 ! D62   D(13,9,12,16)         -60.9702         estimate D2E/DX2                !
 ! D63   D(9,12,14,19)         179.1201         estimate D2E/DX2                !
 ! D64   D(15,12,14,19)        -61.4372         estimate D2E/DX2                !
 ! D65   D(16,12,14,19)         59.5753         estimate D2E/DX2                !
 ! D66   D(8,20,21,22)           0.0858         estimate D2E/DX2                !
 ! D67   D(8,20,21,26)         179.8044         estimate D2E/DX2                !
 ! D68   D(25,20,21,22)       -179.6412         estimate D2E/DX2                !
 ! D69   D(25,20,21,26)          0.0774         estimate D2E/DX2                !
 ! D70   D(20,21,22,23)         -0.0504         estimate D2E/DX2                !
 ! D71   D(20,21,22,28)       -179.9492         estimate D2E/DX2                !
 ! D72   D(26,21,22,23)       -179.7771         estimate D2E/DX2                !
 ! D73   D(26,21,22,28)          0.3241         estimate D2E/DX2                !
 ! D74   D(21,22,23,24)         -0.8527         estimate D2E/DX2                !
 ! D75   D(21,22,23,27)       -179.087          estimate D2E/DX2                !
 ! D76   D(28,22,23,24)        179.0543         estimate D2E/DX2                !
 ! D77   D(28,22,23,27)          0.82           estimate D2E/DX2                !
 ! D78   D(22,23,24,8)           1.5958         estimate D2E/DX2                !
 ! D79   D(22,23,24,29)       -178.3336         estimate D2E/DX2                !
 ! D80   D(27,23,24,8)         179.8439         estimate D2E/DX2                !
 ! D81   D(27,23,24,29)         -0.0854         estimate D2E/DX2                !
 --------------------------------------------------------------------------------
 Trust Radius=3.00D-01 FncErr=1.00D-07 GrdErr=1.00D-06 EigMax=2.50D+02 EigMin=1.00D-04
 Number of steps in this run=    173 maximum allowed number of steps=    174.
 GradGradGradGradGradGradGradGradGradGradGradGradGradGradGradGradGradGrad

                          Input orientation:                          
 ---------------------------------------------------------------------
 Center     Atomic      Atomic             Coordinates (Angstroms)
 Number     Number       Type             X           Y           Z
 ---------------------------------------------------------------------
      1          6           0       -2.756183   -0.245127    0.324182
      2          6           0       -1.384409   -0.885649    0.545035
      3          6           0       -0.610509   -0.445947   -0.715862
      4          8           0       -1.534470   -2.274445    0.662691
      5          1           0       -0.905793   -0.443739    1.430646
      6          8           0       -1.244521    0.681756   -1.236993
      7          1           0       -0.605056   -1.258720   -1.456782
      8          6           0        0.806803   -0.121197   -0.431529
      9          6           0       -2.423693    1.007404   -0.477505
     10          1           0       -3.247681   -0.001714    1.279698
     11          8           0       -3.569084   -1.080041   -0.466584
     12          6           0       -2.202376    2.262134    0.338189
     13          1           0       -3.229361    1.195816   -1.199643
     14          8           0       -1.196603    2.010145    1.306011
     15          1           0       -3.159689    2.540284    0.811448
     16          1           0       -1.903460    3.075557   -0.343707
     17          1           0       -3.302667   -1.987540   -0.259001
     18          1           0       -0.645404   -2.650395    0.541402
     19          1           0       -1.042249    2.808066    1.817955
     20          6           0        1.317879    1.142022   -0.565323
     21          7           0        2.619823    1.431163   -0.340401
     22          6           0        3.536850    0.384460    0.057599
     23          7           0        2.916813   -0.872660    0.166154
     24          6           0        1.599940   -1.178398   -0.040973
     25          1           0        0.589011    1.886071   -0.870743
     26          1           0        3.003474    2.440098   -0.455849
     27          1           0        3.505566   -1.644492    0.455893
     28          8           0        4.726625    0.498130    0.292886
     29          8           0        1.154812   -2.314878    0.111573
 ---------------------------------------------------------------------
                    Distance matrix (angstroms):
                    1          2          3          4          5
     1  C    0.000000
     2  C    1.529970   0.000000
     3  C    2.392893   1.543412   0.000000
     4  O    2.392760   1.401826   2.469315   0.000000
     5  H    2.165099   1.099393   2.166724   2.082420   0.000000
     6  O    2.362520   2.377383   1.394727   3.525903   2.915094
     7  H    2.970951   2.180331   1.099815   2.527385   3.015274
     8  C    3.644355   2.517831   1.481581   3.363830   2.550434
     9  C    1.523839   2.389424   2.335954   3.586265   2.837407
    10  H    1.101740   2.189259   3.336807   2.912232   2.388014
    11  O    1.408261   2.415360   3.036014   2.615629   3.331288
    12  C    2.567734   3.258894   3.313422   4.596950   3.193171
    13  H    2.149943   3.283328   3.128548   4.287616   3.873697
    14  O    2.912478   2.999996   3.234790   4.345771   2.474197
    15  H    2.856354   3.867766   4.212905   5.083806   3.790494
    16  H    3.492872   4.092729   3.769776   5.456328   4.065601
    17  H    1.916964   2.353795   3.135753   2.014535   3.314096
    18  H    3.207474   1.913235   2.538015   0.972876   2.393301
    19  H    3.806693   3.921853   4.146713   5.235345   3.277631
    20  C    4.394699   3.556221   2.502596   4.616943   3.382787
    21  N    5.670367   4.710147   3.754938   5.656490   4.368276
    22  C    6.330064   5.105836   4.299814   5.757968   4.723161
    23  N    5.709786   4.317897   3.660879   4.693130   4.049102
    24  C    4.469915   3.055396   2.424468   3.394258   2.997346
    25  H    4.142484   3.685274   2.627003   4.916349   3.599840
    26  H    6.402541   5.596059   4.632250   6.638598   5.211310
    27  H    6.417560   4.949307   4.444276   5.083460   4.674616
    28  O    7.519696   6.270818   5.513062   6.857495   5.822864
    29  O    4.430006   2.945883   2.700724   2.745470   3.080131
                    6          7          8          9         10
     6  O    0.000000
     7  H    2.054914   0.000000
     8  C    2.345514   2.082894   0.000000
     9  C    1.439901   3.066226   3.422274   0.000000
    10  H    3.288391   4.006476   4.402433   2.187473   0.000000
    11  O    3.016795   3.130157   4.479843   2.381064   2.077400
    12  C    2.428226   4.262601   3.915085   1.512840   2.665354
    13  H    2.050669   3.602478   4.314527   1.098218   2.753461
    14  O    2.869457   4.320698   3.402249   2.385827   2.873185
    15  H    3.364239   5.109153   4.935740   2.133732   2.586263
    16  H    2.638644   4.659479   4.191954   2.136774   3.729875
    17  H    3.509640   3.040224   4.516718   3.128902   2.512792
    18  H    3.824246   2.435390   3.074466   4.192848   3.785821
    19  H    3.727575   5.239636   4.130345   3.227988   3.612273
    20  C    2.688657   3.202490   1.369241   3.745023   5.055351
    21  N    4.037158   4.345299   2.388549   5.063144   6.253436
    22  C    4.962445   4.706249   2.819236   6.016849   6.904529
    23  N    4.658512   3.896989   2.318203   5.698240   6.324517
    24  C    3.602998   2.621636   1.378142   4.599773   5.160251
    25  H    2.224040   3.414520   2.066269   3.162764   4.786265
    26  H    4.663412   5.263517   3.374342   5.613129   6.931920
    27  H    5.553433   4.550204   3.223549   6.562004   6.998837
    28  O    6.166752   5.880024   4.034024   7.209709   8.050664
    29  O    4.068814   2.583088   2.286549   4.918360   5.108541
                   11         12         13         14         15
    11  O    0.000000
    12  C    3.699417   0.000000
    13  H    2.415018   2.134633   0.000000
    14  O    4.280188   1.418364   3.327693   0.000000
    15  H    3.861052   1.103535   2.420111   2.092689   0.000000
    16  H    4.478660   1.102719   2.454397   2.087180   1.788578
    17  H    0.968309   4.430238   3.320231   4.781867   4.654836
    18  H    3.468422   5.157364   4.949890   4.754901   5.773881
    19  H    5.169274   1.957969   4.060629   0.960515   2.359728
    20  C    5.369331   3.803049   4.591584   3.252407   4.888686
    21  N    6.680167   4.940101   5.916641   4.196546   5.996638
    22  C    7.274189   6.045089   6.929687   5.158194   7.075274
    23  N    6.519987   6.005217   6.627175   5.150731   6.999176
    24  C    5.187449   5.141851   5.504685   4.449924   6.099941
    25  H    5.123565   3.065091   3.894174   2.818168   4.160590
    26  H    7.455871   5.269065   6.399195   4.574894   6.292905
    27  H    7.156832   6.917816   7.494491   6.015768   7.878096
    28  O    8.478573   7.150162   8.124784   6.196551   8.162919
    29  O    4.916735   5.680766   5.767602   5.065734   6.532790
                   16         17         18         19         20
    16  H    0.000000
    17  H    5.253561   0.000000
    18  H    5.928967   2.853256   0.000000
    19  H    2.342225   5.693951   5.619775   0.000000
    20  C    3.763601   5.589046   4.411547   3.745120   0.000000
    21  N    4.812913   6.838863   5.300792   4.468236   1.352498
    22  C    6.082764   7.246076   5.189957   5.471825   2.426059
    23  N    6.251672   6.332902   3.998818   5.652465   2.674059
    24  C    5.519202   4.973711   2.747272   5.131147   2.395590
    25  H    2.811593   5.524875   4.908916   3.277222   1.085421
    26  H    4.949180   7.707797   6.342077   4.655476   2.130309
    27  H    7.223281   6.854254   4.271967   6.508695   3.686939
    28  O    7.141877   8.423340   6.231666   6.398558   3.573607
    29  O    6.214266   4.484818   1.880984   5.829526   3.526321
                   21         22         23         24         25
    21  N    0.000000
    22  C    1.447387   0.000000
    23  N    2.377478   1.405909   0.000000
    24  C    2.817734   2.490755   1.367674   0.000000
    25  H    2.147650   3.436046   3.755584   3.331886   0.000000
    26  H    1.085572   2.184895   3.371760   3.903273   2.511715
    27  H    3.298224   2.067913   1.013066   2.023742   4.767718
    28  O    2.389606   1.218132   2.273883   3.563477   4.516665
    29  O    4.047636   3.600478   2.277635   1.230039   4.351212
                   26         27         28         29
    26  H    0.000000
    27  H    4.215121   0.000000
    28  O    2.702054   2.471515   0.000000
    29  O    5.133158   2.468606   4.550136   0.000000
 Stoichiometry    C9H12N2O6
 Framework group  C1[X(C9H12N2O6)]
 Deg. of freedom    81
 Full point group                 C1      NOp   1
 Largest Abelian subgroup         C1      NOp   1
 Largest concise Abelian subgroup C1      NOp   1
                         Standard orientation:                         
 ---------------------------------------------------------------------
 Center     Atomic      Atomic             Coordinates (Angstroms)
 Number     Number       Type             X           Y           Z
 ---------------------------------------------------------------------
      1          6           0       -2.772576   -0.235922    0.320627
      2          6           0       -1.406148   -0.887976    0.540875
      3          6           0       -0.627742   -0.451188   -0.718260
      4          8           0       -1.567409   -2.275829    0.654775
      5          1           0       -0.924724   -0.452225    1.428015
      6          8           0       -1.252293    0.682911   -1.236932
      7          1           0       -0.628196   -1.262040   -1.461302
      8          6           0        0.791894   -0.138534   -0.431968
      9          6           0       -2.429432    1.015998   -0.477517
     10          1           0       -3.262878    0.008919    1.276392
     11          8           0       -3.591494   -1.062236   -0.472959
     12          6           0       -2.198740    2.266782    0.341634
     13          1           0       -3.232986    1.212738   -1.199789
     14          8           0       -1.195793    2.004225    1.309580
     15          1           0       -3.154177    2.551346    0.814870
     16          1           0       -1.892778    3.079566   -0.337895
     17          1           0       -3.332513   -1.972377   -0.267546
     18          1           0       -0.681282   -2.658563    0.533198
     19          1           0       -1.035472    2.799545    1.823732
     20          6           0        1.313167    1.120901   -0.562053
     21          7           0        2.617201    1.399025   -0.335356
     22          6           0        3.525505    0.343981    0.060619
     23          7           0        2.895344   -0.908416    0.165396
     24          6           0        1.576234   -1.203064   -0.043562
     25          1           0        0.590520    1.871554   -0.866094
     26          1           0        3.009004    2.405156   -0.447860
     27          1           0        3.477670   -1.685689    0.453573
     28          8           0        4.715962    0.447512    0.297134
     29          8           0        1.121906   -2.336341    0.105659
 ---------------------------------------------------------------------
 Rotational constants (GHZ):           0.8817768           0.3347745           0.2684216
 Standard basis: Aug-CC-pVDZ (5D, 7F)
 There are   533 symmetry adapted cartesian basis functions of A   symmetry.
 There are   499 symmetry adapted basis functions of A   symmetry.
   499 basis functions,   863 primitive gaussians,   533 cartesian basis functions
    64 alpha electrons       64 beta electrons
       nuclear repulsion energy      1339.9455622520 Hartrees.
 NAtoms=   29 NActive=   29 NUniq=   29 SFac= 1.00D+00 NAtFMM=   60 NAOKFM=F Big=F
 Integral buffers will be    131072 words long.
 Raffenetti 2 integral format.
 Two-electron integral symmetry is turned on.
 Nuclear repulsion after empirical dispersion term =     1339.9247719195 Hartrees.
 One-electron integrals computed using PRISM.
 NBasis=   499 RedAO= T EigKep=  2.55D-06  NBF=   499
 NBsUse=   499 1.00D-06 EigRej= -1.00D+00 NBFU=   499
 ExpMin= 2.97D-02 ExpMax= 1.17D+04 ExpMxC= 4.01D+02 IAcc=3 IRadAn=         5 AccDes= 0.00D+00
 Harris functional with IExCor= 1009 and IRadAn=       5 diagonalized for initial guess.
 HarFok:  IExCor= 1009 AccDes= 0.00D+00 IRadAn=         5 IDoV= 1 UseB2=F ITyADJ=14
 ICtDFT=  3500011 ScaDFX=  1.000000  1.000000  1.000000  1.000000
 FoFCou: FMM=F IPFlag=           0 FMFlag=      100000 FMFlg1=           0
         NFxFlg=           0 DoJE=T BraDBF=F KetDBF=T FulRan=T
         wScrn=  0.000000 ICntrl=       500 IOpCl=  0 I1Cent=   200000004 NGrid=           0
         NMat0=    1 NMatS0=      1 NMatT0=    0 NMatD0=    1 NMtDS0=    0 NMtDT0=    0
 Petite list used in FoFCou.
 Requested convergence on RMS density matrix=1.00D-08 within 128 cycles.
 Requested convergence on MAX density matrix=1.00D-06.
 Requested convergence on             energy=1.00D-06.
 No special actions if energy rises.
 SCF Done:  E(RPBE1PBE) =  -910.212140295     A.U. after   14 cycles
            NFock= 14  Conv=0.85D-08     -V/T= 2.0053

 **********************************************************************

            Population analysis using the SCF Density.

 **********************************************************************

 Orbital symmetries:
       Occupied  (A) (A) (A) (A) (A) (A) (A) (A) (A) (A) (A) (A)
                 (A) (A) (A) (A) (A) (A) (A) (A) (A) (A) (A) (A)
                 (A) (A) (A) (A) (A) (A) (A) (A) (A) (A) (A) (A)
                 (A) (A) (A) (A) (A) (A) (A) (A) (A) (A) (A) (A)
                 (A) (A) (A) (A) (A) (A) (A) (A) (A) (A) (A) (A)
                 (A) (A) (A) (A)
       Virtual   (A) (A) (A) (A) (A) (A) (A) (A) (A) (A) (A) (A)
                 (A) (A) (A) (A) (A) (A) (A) (A) (A) (A) (A) (A)
                 (A) (A) (A) (A) (A) (A) (A) (A) (A) (A) (A) (A)
                 (A) (A) (A) (A) (A) (A) (A) (A) (A) (A) (A) (A)
                 (A) (A) (A) (A) (A) (A) (A) (A) (A) (A) (A) (A)
                 (A) (A) (A) (A) (A) (A) (A) (A) (A) (A) (A) (A)
                 (A) (A) (A) (A) (A) (A) (A) (A) (A) (A) (A) (A)
                 (A) (A) (A) (A) (A) (A) (A) (A) (A) (A) (A) (A)
                 (A) (A) (A) (A) (A) (A) (A) (A) (A) (A) (A) (A)
                 (A) (A) (A) (A) (A) (A) (A) (A) (A) (A) (A) (A)
                 (A) (A) (A) (A) (A) (A) (A) (A) (A) (A) (A) (A)
                 (A) (A) (A) (A) (A) (A) (A) (A) (A) (A) (A) (A)
                 (A) (A) (A) (A) (A) (A) (A) (A) (A) (A) (A) (A)
                 (A) (A) (A) (A) (A) (A) (A) (A) (A) (A) (A) (A)
                 (A) (A) (A) (A) (A) (A) (A) (A) (A) (A) (A) (A)
                 (A) (A) (A) (A) (A) (A) (A) (A) (A) (A) (A) (A)
                 (A) (A) (A) (A) (A) (A) (A) (A) (A) (A) (A) (A)
                 (A) (A) (A) (A) (A) (A) (A) (A) (A) (A) (A) (A)
                 (A) (A) (A) (A) (A) (A) (A) (A) (A) (A) (A) (A)
                 (A) (A) (A) (A) (A) (A) (A) (A) (A) (A) (A) (A)
                 (A) (A) (A) (A) (A) (A) (A) (A) (A) (A) (A) (A)
                 (A) (A) (A) (A) (A) (A) (A) (A) (A) (A) (A) (A)
                 (A) (A) (A) (A) (A) (A) (A) (A) (A) (A) (A) (A)
                 (A) (A) (A) (A) (A) (A) (A) (A) (A) (A) (A) (A)
                 (A) (A) (A) (A) (A) (A) (A) (A) (A) (A) (A) (A)
                 (A) (A) (A) (A) (A) (A) (A) (A) (A) (A) (A) (A)
                 (A) (A) (A) (A) (A) (A) (A) (A) (A) (A) (A) (A)
                 (A) (A) (A) (A) (A) (A) (A) (A) (A) (A) (A) (A)
                 (A) (A) (A) (A) (A) (A) (A) (A) (A) (A) (A) (A)
                 (A) (A) (A) (A) (A) (A) (A) (A) (A) (A) (A) (A)
                 (A) (A) (A) (A) (A) (A) (A) (A) (A) (A) (A) (A)
                 (A) (A) (A) (A) (A) (A) (A) (A) (A) (A) (A) (A)
                 (A) (A) (A) (A) (A) (A) (A) (A) (A) (A) (A) (A)
                 (A) (A) (A) (A) (A) (A) (A) (A) (A) (A) (A) (A)
                 (A) (A) (A) (A) (A) (A) (A) (A) (A) (A) (A) (A)
                 (A) (A) (A) (A) (A) (A) (A) (A) (A) (A) (A) (A)
                 (A) (A) (A)
 The electronic state is 1-A.
 Alpha  occ. eigenvalues --  -19.25100 -19.23929 -19.22850 -19.22165 -19.21776
 Alpha  occ. eigenvalues --  -19.21352 -14.49539 -14.46864 -10.41044 -10.35271
 Alpha  occ. eigenvalues --  -10.31595 -10.29749 -10.29208 -10.28922 -10.28472
 Alpha  occ. eigenvalues --  -10.28318 -10.24773  -1.12463  -1.10443  -1.09361
 Alpha  occ. eigenvalues --   -1.07858  -1.06542  -1.04101  -1.02242  -0.97228
 Alpha  occ. eigenvalues --   -0.85529  -0.80952  -0.77794  -0.72855  -0.70839
 Alpha  occ. eigenvalues --   -0.69532  -0.64375  -0.62065  -0.60064  -0.58570
 Alpha  occ. eigenvalues --   -0.57195  -0.54753  -0.53733  -0.52773  -0.52186
 Alpha  occ. eigenvalues --   -0.50897  -0.50128  -0.49593  -0.48111  -0.46958
 Alpha  occ. eigenvalues --   -0.44991  -0.44175  -0.43882  -0.43322  -0.42681
 Alpha  occ. eigenvalues --   -0.40805  -0.39743  -0.38743  -0.37522  -0.36704
 Alpha  occ. eigenvalues --   -0.33443  -0.32884  -0.31835  -0.31480  -0.30168
 Alpha  occ. eigenvalues --   -0.28977  -0.28833  -0.28343  -0.25472
 Alpha virt. eigenvalues --   -0.05244  -0.02788  -0.01015  -0.00935   0.00362
 Alpha virt. eigenvalues --    0.00896   0.01777   0.02280   0.02895   0.03262
 Alpha virt. eigenvalues --    0.03459   0.04382   0.05095   0.05875   0.05922
 Alpha virt. eigenvalues --    0.06332   0.06864   0.07175   0.07806   0.08167
 Alpha virt. eigenvalues --    0.08431   0.09311   0.09455   0.09800   0.09996
 Alpha virt. eigenvalues --    0.10228   0.10369   0.10653   0.11106   0.11592
 Alpha virt. eigenvalues --    0.11711   0.12026   0.12189   0.12352   0.12500
 Alpha virt. eigenvalues --    0.13073   0.13441   0.13467   0.14102   0.14948
 Alpha virt. eigenvalues --    0.15329   0.15663   0.15815   0.16120   0.16637
 Alpha virt. eigenvalues --    0.16922   0.17055   0.17475   0.18173   0.18683
 Alpha virt. eigenvalues --    0.19149   0.19173   0.19606   0.19681   0.20024
 Alpha virt. eigenvalues --    0.21080   0.21180   0.21885   0.22227   0.22440
 Alpha virt. eigenvalues --    0.22816   0.23256   0.23429   0.23807   0.24010
 Alpha virt. eigenvalues --    0.24647   0.24758   0.25377   0.25567   0.25807
 Alpha virt. eigenvalues --    0.26179   0.26813   0.26896   0.27362   0.27539
 Alpha virt. eigenvalues --    0.27998   0.28295   0.28763   0.28994   0.29519
 Alpha virt. eigenvalues --    0.29867   0.29967   0.30512   0.30583   0.31108
 Alpha virt. eigenvalues --    0.31291   0.31577   0.32109   0.32405   0.33031
 Alpha virt. eigenvalues --    0.33205   0.33701   0.34243   0.34627   0.35182
 Alpha virt. eigenvalues --    0.35489   0.35684   0.35947   0.36674   0.36938
 Alpha virt. eigenvalues --    0.37189   0.38239   0.38338   0.39061   0.39336
 Alpha virt. eigenvalues --    0.40058   0.40466   0.40708   0.41120   0.41472
 Alpha virt. eigenvalues --    0.42093   0.42735   0.43051   0.44045   0.44223
 Alpha virt. eigenvalues --    0.44737   0.45632   0.45792   0.46076   0.47010
 Alpha virt. eigenvalues --    0.47510   0.47996   0.48460   0.48723   0.49624
 Alpha virt. eigenvalues --    0.49911   0.50279   0.51036   0.51754   0.52065
 Alpha virt. eigenvalues --    0.52213   0.53169   0.53606   0.54250   0.54872
 Alpha virt. eigenvalues --    0.55527   0.55558   0.55946   0.56422   0.57301
 Alpha virt. eigenvalues --    0.57882   0.58186   0.58873   0.59480   0.59886
 Alpha virt. eigenvalues --    0.60433   0.60524   0.61360   0.61494   0.62941
 Alpha virt. eigenvalues --    0.63387   0.63675   0.64097   0.64772   0.65374
 Alpha virt. eigenvalues --    0.65615   0.66179   0.66714   0.67296   0.67376
 Alpha virt. eigenvalues --    0.67928   0.68388   0.68650   0.69039   0.69598
 Alpha virt. eigenvalues --    0.70480   0.70794   0.71678   0.72009   0.72746
 Alpha virt. eigenvalues --    0.73501   0.73758   0.74260   0.74976   0.75602
 Alpha virt. eigenvalues --    0.76244   0.76694   0.76982   0.77480   0.78503
 Alpha virt. eigenvalues --    0.79271   0.79901   0.80179   0.80836   0.81443
 Alpha virt. eigenvalues --    0.81944   0.82562   0.83088   0.84480   0.84746
 Alpha virt. eigenvalues --    0.84895   0.85674   0.86710   0.87387   0.88044
 Alpha virt. eigenvalues --    0.88925   0.89289   0.89809   0.90099   0.91912
 Alpha virt. eigenvalues --    0.92190   0.92860   0.94403   0.94742   0.95758
 Alpha virt. eigenvalues --    0.96497   0.96856   0.97797   1.00018   1.00805
 Alpha virt. eigenvalues --    1.01051   1.02332   1.02737   1.03337   1.04420
 Alpha virt. eigenvalues --    1.05113   1.05862   1.06496   1.07580   1.07911
 Alpha virt. eigenvalues --    1.09089   1.10470   1.11384   1.13022   1.13097
 Alpha virt. eigenvalues --    1.13376   1.14349   1.15293   1.16377   1.17246
 Alpha virt. eigenvalues --    1.17649   1.18511   1.19601   1.20304   1.21292
 Alpha virt. eigenvalues --    1.21871   1.22347   1.23508   1.24211   1.24526
 Alpha virt. eigenvalues --    1.26502   1.26829   1.27930   1.28834   1.29524
 Alpha virt. eigenvalues --    1.31088   1.31901   1.32377   1.33685   1.34437
 Alpha virt. eigenvalues --    1.35085   1.36413   1.37332   1.38541   1.40288
 Alpha virt. eigenvalues --    1.41006   1.42081   1.44566   1.46134   1.46565
 Alpha virt. eigenvalues --    1.47098   1.48170   1.49280   1.49608   1.51440
 Alpha virt. eigenvalues --    1.51594   1.52265   1.53401   1.54145   1.55152
 Alpha virt. eigenvalues --    1.55691   1.56585   1.58148   1.58976   1.59213
 Alpha virt. eigenvalues --    1.60842   1.61911   1.62705   1.63018   1.63565
 Alpha virt. eigenvalues --    1.64217   1.65947   1.67062   1.68436   1.68997
 Alpha virt. eigenvalues --    1.71333   1.71988   1.72521   1.73251   1.73883
 Alpha virt. eigenvalues --    1.74188   1.75933   1.77259   1.77348   1.78393
 Alpha virt. eigenvalues --    1.79810   1.80101   1.81645   1.83183   1.84380
 Alpha virt. eigenvalues --    1.85127   1.86354   1.87999   1.88709   1.89777
 Alpha virt. eigenvalues --    1.90174   1.91093   1.93064   1.94321   1.95107
 Alpha virt. eigenvalues --    1.95162   1.96108   1.96503   1.98633   1.99301
 Alpha virt. eigenvalues --    1.99831   2.00302   2.01037   2.02006   2.03492
 Alpha virt. eigenvalues --    2.03782   2.05017   2.07409   2.08474   2.09786
 Alpha virt. eigenvalues --    2.10046   2.11196   2.11766   2.11906   2.13129
 Alpha virt. eigenvalues --    2.13998   2.15167   2.16039   2.16846   2.17800
 Alpha virt. eigenvalues --    2.19488   2.21682   2.22293   2.22898   2.24233
 Alpha virt. eigenvalues --    2.25811   2.26176   2.27237   2.28222   2.29560
 Alpha virt. eigenvalues --    2.30701   2.34132   2.35668   2.36935   2.37848
 Alpha virt. eigenvalues --    2.39620   2.41543   2.42467   2.43247   2.43782
 Alpha virt. eigenvalues --    2.44055   2.46406   2.46935   2.47671   2.49502
 Alpha virt. eigenvalues --    2.50355   2.50961   2.52500   2.52791   2.54330
 Alpha virt. eigenvalues --    2.55948   2.56802   2.58845   2.59926   2.62062
 Alpha virt. eigenvalues --    2.62491   2.64351   2.66539   2.68944   2.71559
 Alpha virt. eigenvalues --    2.73032   2.75573   2.76661   2.76750   2.78348
 Alpha virt. eigenvalues --    2.83425   2.84678   2.86307   2.87788   2.89380
 Alpha virt. eigenvalues --    2.91818   2.92544   2.93448   2.96203   2.98026
 Alpha virt. eigenvalues --    3.00678   3.09663   3.15082   3.20294   3.23350
 Alpha virt. eigenvalues --    3.26942   3.27608   3.32772   3.35214   3.36018
 Alpha virt. eigenvalues --    3.41997   3.42959   3.43989   3.45572   3.46354
 Alpha virt. eigenvalues --    3.47819   3.50676   3.52232   3.52610   3.53596
 Alpha virt. eigenvalues --    3.54598   3.56269   3.56635   3.57710   3.60956
 Alpha virt. eigenvalues --    3.63293   3.64910   3.66197   3.68022   3.69884
 Alpha virt. eigenvalues --    3.71263   3.74262   3.74519   3.77441   3.79897
 Alpha virt. eigenvalues --    3.82925   3.85863   3.88458   3.98646   4.00302
 Alpha virt. eigenvalues --    4.06854   4.13284   4.20125   4.39549   4.81535
          Condensed to atoms (all electrons):
               1          2          3          4          5          6
     1  C   10.647595  -2.980216  -0.277675   0.084712   0.295319  -0.032591
     2  C   -2.980216   9.175049  -0.693146  -0.594764  -0.830477  -0.234821
     3  C   -0.277675  -0.693146  16.147095   0.207865   0.064100  -0.616116
     4  O    0.084712  -0.594764   0.207865   8.748130  -0.172934   0.029409
     5  H    0.295319  -0.830477   0.064100  -0.172934   2.446891   0.004819
     6  O   -0.032591  -0.234821  -0.616116   0.029409   0.004819   9.618910
     7  H    0.002839   0.091100  -0.805563  -0.040027   0.095925  -0.135268
     8  C    0.518760  -0.041460  -3.611396  -0.004917  -0.162734   0.178443
     9  C   -2.087453   0.693658  -3.520678   0.074154  -0.202334   0.347458
    10  H   -1.079028   0.570750   0.206319   0.006178  -0.138937   0.027668
    11  O   -0.604668   0.288322  -0.146828  -0.031213  -0.017035  -0.003175
    12  C    0.009073  -0.121534   0.419143  -0.015118   0.076161  -0.059917
    13  H    0.273356   0.133333   0.589712  -0.008516  -0.003448  -0.259480
    14  O    0.061900   0.011462   0.008366  -0.001343  -0.014569  -0.044629
    15  H    0.013819  -0.008486   0.083864  -0.001430   0.018686   0.065789
    16  H    0.076712  -0.010300  -0.098517  -0.000141  -0.005279  -0.022600
    17  H    0.185621  -0.260445   0.082845   0.061021   0.031599   0.003167
    18  H   -0.010723   0.059243  -0.153593   0.323600  -0.045506   0.008198
    19  H   -0.007691  -0.004686  -0.025549  -0.000007  -0.003619  -0.000094
    20  C   -0.122070  -0.155740  -1.956571   0.014025   0.004258   0.085537
    21  N   -0.002436   0.011038   0.320924  -0.000378   0.002396   0.005367
    22  C    0.005182  -0.031790  -0.361194  -0.002057   0.002519   0.012207
    23  N   -0.007924   0.013272  -0.181999  -0.011322   0.026238  -0.000233
    24  C   -0.249946   0.049495  -0.423322   0.062983   0.022713  -0.087586
    25  H    0.121896  -0.090263   0.136780   0.001550   0.009089  -0.060989
    26  H   -0.001426  -0.000373  -0.012364  -0.000067   0.000424  -0.002017
    27  H   -0.000729   0.000744   0.027630  -0.000161   0.000198   0.001099
    28  O   -0.000278  -0.001670   0.014686   0.000079  -0.000175   0.000120
    29  O    0.014768   0.079722  -0.205137  -0.052727   0.028803  -0.006447
               7          8          9         10         11         12
     1  C    0.002839   0.518760  -2.087453  -1.079028  -0.604668   0.009073
     2  C    0.091100  -0.041460   0.693658   0.570750   0.288322  -0.121534
     3  C   -0.805563  -3.611396  -3.520678   0.206319  -0.146828   0.419143
     4  O   -0.040027  -0.004917   0.074154   0.006178  -0.031213  -0.015118
     5  H    0.095925  -0.162734  -0.202334  -0.138937  -0.017035   0.076161
     6  O   -0.135268   0.178443   0.347458   0.027668  -0.003175  -0.059917
     7  H    1.819004   0.219799   0.054843   0.006989   0.016658   0.011302
     8  C    0.219799  14.888411   0.954422  -0.075776   0.035374  -0.106732
     9  C    0.054843   0.954422  10.397732   0.041859   0.345782  -0.491740
    10  H    0.006989  -0.075776   0.041859   1.959361  -0.092719  -0.118278
    11  O    0.016658   0.035374   0.345782  -0.092719   8.738250  -0.021162
    12  C    0.011302  -0.106732  -0.491740  -0.118278  -0.021162   5.263154
    13  H    0.012412  -0.248823  -1.054202   0.039727  -0.065671  -0.040579
    14  O    0.006929  -0.010241  -0.171675   0.025569   0.003681   0.176461
    15  H    0.000484   0.009711  -0.215798  -0.031020   0.007020   0.248412
    16  H    0.002703   0.062995   0.082451   0.024136  -0.001099  -0.013237
    17  H    0.005808  -0.017570  -0.102380  -0.021558   0.270489   0.009220
    18  H    0.012759   0.116137   0.013787   0.003069   0.002452  -0.000214
    19  H   -0.001500   0.007182   0.092310  -0.007666  -0.000179  -0.097595
    20  C   -0.049963  -3.433195  -0.073749   0.013994  -0.010478  -0.160087
    21  N   -0.004011   0.390408   0.009211  -0.000635  -0.000279   0.002672
    22  C   -0.010264   0.007877   0.005078  -0.000368  -0.000251  -0.015649
    23  N    0.025316   0.084139  -0.020309  -0.000108   0.000085  -0.000623
    24  C   -0.010528  -4.920569   0.111925   0.014652   0.014344   0.029221
    25  H    0.033199   0.407824  -0.102753   0.003786  -0.002366   0.016159
    26  H   -0.000737   0.066208   0.000353  -0.000030  -0.000006   0.001284
    27  H   -0.000680   0.145071  -0.000109  -0.000020  -0.000077  -0.000225
    28  O    0.000781   0.012604   0.000028   0.000009   0.000001   0.000185
    29  O    0.045176  -0.051804   0.015918  -0.000599   0.000015  -0.003619
              13         14         15         16         17         18
     1  C    0.273356   0.061900   0.013819   0.076712   0.185621  -0.010723
     2  C    0.133333   0.011462  -0.008486  -0.010300  -0.260445   0.059243
     3  C    0.589712   0.008366   0.083864  -0.098517   0.082845  -0.153593
     4  O   -0.008516  -0.001343  -0.001430  -0.000141   0.061021   0.323600
     5  H   -0.003448  -0.014569   0.018686  -0.005279   0.031599  -0.045506
     6  O   -0.259480  -0.044629   0.065789  -0.022600   0.003167   0.008198
     7  H    0.012412   0.006929   0.000484   0.002703   0.005808   0.012759
     8  C   -0.248823  -0.010241   0.009711   0.062995  -0.017570   0.116137
     9  C   -1.054202  -0.171675  -0.215798   0.082451  -0.102380   0.013787
    10  H    0.039727   0.025569  -0.031020   0.024136  -0.021558   0.003069
    11  O   -0.065671   0.003681   0.007020  -0.001099   0.270489   0.002452
    12  C   -0.040579   0.176461   0.248412  -0.013237   0.009220  -0.000214
    13  H    2.166848   0.055627  -0.090690  -0.029154  -0.009041   0.000286
    14  O    0.055627   8.356549  -0.215257  -0.004740  -0.000597  -0.000822
    15  H   -0.090690  -0.215257   1.683085  -0.278207   0.001952  -0.000591
    16  H   -0.029154  -0.004740  -0.278207   1.479690   0.000452  -0.000131
    17  H   -0.009041  -0.000597   0.001952   0.000452   0.590246  -0.010144
    18  H    0.000286  -0.000822  -0.000591  -0.000131  -0.010144   0.575505
    19  H    0.003250   0.367163  -0.001347  -0.047711  -0.000043   0.000385
    20  C    0.019469  -0.045867  -0.008931  -0.016825   0.002525   0.015736
    21  N    0.000125   0.005644  -0.000213   0.003258  -0.000014  -0.001439
    22  C   -0.000005  -0.000514   0.000269  -0.002371   0.000426   0.001343
    23  N   -0.000876   0.001188  -0.000041  -0.000525   0.000364  -0.001101
    24  C    0.005029  -0.027166   0.002643   0.007723   0.003321  -0.086706
    25  H   -0.000697   0.022220   0.000457   0.034928   0.001370  -0.003100
    26  H    0.000135   0.000042   0.000408  -0.001095   0.000013  -0.000077
    27  H    0.000065  -0.000143   0.000024  -0.000048   0.000095  -0.001304
    28  O   -0.000012   0.000099  -0.000003   0.000000  -0.000012   0.000220
    29  O   -0.000194   0.001583  -0.000210  -0.000055   0.000490   0.022426
              19         20         21         22         23         24
     1  C   -0.007691  -0.122070  -0.002436   0.005182  -0.007924  -0.249946
     2  C   -0.004686  -0.155740   0.011038  -0.031790   0.013272   0.049495
     3  C   -0.025549  -1.956571   0.320924  -0.361194  -0.181999  -0.423322
     4  O   -0.000007   0.014025  -0.000378  -0.002057  -0.011322   0.062983
     5  H   -0.003619   0.004258   0.002396   0.002519   0.026238   0.022713
     6  O   -0.000094   0.085537   0.005367   0.012207  -0.000233  -0.087586
     7  H   -0.001500  -0.049963  -0.004011  -0.010264   0.025316  -0.010528
     8  C    0.007182  -3.433195   0.390408   0.007877   0.084139  -4.920569
     9  C    0.092310  -0.073749   0.009211   0.005078  -0.020309   0.111925
    10  H   -0.007666   0.013994  -0.000635  -0.000368  -0.000108   0.014652
    11  O   -0.000179  -0.010478  -0.000279  -0.000251   0.000085   0.014344
    12  C   -0.097595  -0.160087   0.002672  -0.015649  -0.000623   0.029221
    13  H    0.003250   0.019469   0.000125  -0.000005  -0.000876   0.005029
    14  O    0.367163  -0.045867   0.005644  -0.000514   0.001188  -0.027166
    15  H   -0.001347  -0.008931  -0.000213   0.000269  -0.000041   0.002643
    16  H   -0.047711  -0.016825   0.003258  -0.002371  -0.000525   0.007723
    17  H   -0.000043   0.002525  -0.000014   0.000426   0.000364   0.003321
    18  H    0.000385   0.015736  -0.001439   0.001343  -0.001101  -0.086706
    19  H    0.587714   0.001354   0.000809   0.000118  -0.000366   0.000078
    20  C    0.001354  15.053395  -1.369241  -0.003689   0.469958  -2.429949
    21  N    0.000809  -1.369241   7.967799  -0.046085  -0.105709   0.108212
    22  C    0.000118  -0.003689  -0.046085   6.215293  -0.012595  -0.341879
    23  N   -0.000366   0.469958  -0.105709  -0.012595   7.546993  -0.571953
    24  C    0.000078  -2.429949   0.108212  -0.341879  -0.571953  14.257338
    25  H   -0.005617  -1.113488   0.127708  -0.062155  -0.017767   0.080077
    26  H    0.000400  -0.205786   0.445944  -0.112011   0.010081  -0.058262
    27  H    0.000047  -0.145640   0.040604  -0.192508   0.364075  -0.199981
    28  O   -0.000046   0.095290  -0.106529   0.097452  -0.112314   0.023736
    29  O   -0.000219  -0.054746   0.005354   0.018893  -0.132677   0.303889
              25         26         27         28         29
     1  C    0.121896  -0.001426  -0.000729  -0.000278   0.014768
     2  C   -0.090263  -0.000373   0.000744  -0.001670   0.079722
     3  C    0.136780  -0.012364   0.027630   0.014686  -0.205137
     4  O    0.001550  -0.000067  -0.000161   0.000079  -0.052727
     5  H    0.009089   0.000424   0.000198  -0.000175   0.028803
     6  O   -0.060989  -0.002017   0.001099   0.000120  -0.006447
     7  H    0.033199  -0.000737  -0.000680   0.000781   0.045176
     8  C    0.407824   0.066208   0.145071   0.012604  -0.051804
     9  C   -0.102753   0.000353  -0.000109   0.000028   0.015918
    10  H    0.003786  -0.000030  -0.000020   0.000009  -0.000599
    11  O   -0.002366  -0.000006  -0.000077   0.000001   0.000015
    12  C    0.016159   0.001284  -0.000225   0.000185  -0.003619
    13  H   -0.000697   0.000135   0.000065  -0.000012  -0.000194
    14  O    0.022220   0.000042  -0.000143   0.000099   0.001583
    15  H    0.000457   0.000408   0.000024  -0.000003  -0.000210
    16  H    0.034928  -0.001095  -0.000048   0.000000  -0.000055
    17  H    0.001370   0.000013   0.000095  -0.000012   0.000490
    18  H   -0.003100  -0.000077  -0.001304   0.000220   0.022426
    19  H   -0.005617   0.000400   0.000047  -0.000046  -0.000219
    20  C   -1.113488  -0.205786  -0.145640   0.095290  -0.054746
    21  N    0.127708   0.445944   0.040604  -0.106529   0.005354
    22  C   -0.062155  -0.112011  -0.192508   0.097452   0.018893
    23  N   -0.017767   0.010081   0.364075  -0.112314  -0.132677
    24  C    0.080077  -0.058262  -0.199981   0.023736   0.303889
    25  H    2.104599  -0.006068  -0.004305   0.006455  -0.002809
    26  H   -0.006068   0.830382  -0.004827   0.005314   0.001953
    27  H   -0.004305  -0.004827   1.062818  -0.002677  -0.031232
    28  O    0.006455   0.005314  -0.002677   8.533030  -0.001455
    29  O   -0.002809   0.001953  -0.031232  -0.001455   8.889044
 Mulliken charges:
               1
     1  C    1.153301
     2  C    0.882982
     3  C    0.780320
     4  O   -0.676584
     5  H   -0.533089
     6  O   -0.822230
     7  H   -0.405483
     8  C    0.579852
     9  C    0.802210
    10  H   -0.377325
    11  O   -0.725266
    12  C    1.003862
    13  H   -0.487986
    14  O   -0.566919
    15  H   -0.284400
    16  H   -0.243011
    17  H    0.170782
    18  H    0.160304
    19  H    0.143126
    20  C    1.580472
    21  N   -0.810504
    22  C    0.828728
    23  N   -0.363269
    24  C    0.310469
    25  H   -0.635721
    26  H    0.042204
    27  H   -0.057803
    28  O   -0.564917
    29  O   -0.884104
 Sum of Mulliken charges =  -0.00000
 Mulliken charges with hydrogens summed into heavy atoms:
               1
     1  C    0.775976
     2  C    0.349893
     3  C    0.374837
     4  O   -0.516280
     6  O   -0.822230
     8  C    0.579852
     9  C    0.314224
    11  O   -0.554485
    12  C    0.476450
    14  O   -0.423793
    20  C    0.944751
    21  N   -0.768300
    22  C    0.828728
    23  N   -0.421072
    24  C    0.310469
    28  O   -0.564917
    29  O   -0.884104
 Electronic spatial extent (au):  <R**2>=           4002.5038
 Charge=              0.0000 electrons
 Dipole moment (field-independent basis, Debye):
    X=              0.2957    Y=              5.6015    Z=              0.6550  Tot=              5.6474
 Quadrupole moment (field-independent basis, Debye-Ang):
   XX=           -116.0573   YY=            -87.0904   ZZ=            -99.2948
   XY=             -5.6387   XZ=             -5.7530   YZ=              2.3861
 Traceless Quadrupole moment (field-independent basis, Debye-Ang):
   XX=            -15.2431   YY=             13.7238   ZZ=              1.5193
   XY=             -5.6387   XZ=             -5.7530   YZ=              2.3861
 Octapole moment (field-independent basis, Debye-Ang**2):
  XXX=            -75.9827  YYY=             55.7319  ZZZ=             11.5844  XYY=              6.2256
  XXY=              8.0464  XXZ=              1.3644  XZZ=              2.3493  YZZ=              5.7957
  YYZ=              4.9884  XYZ=            -12.7273
 Hexadecapole moment (field-independent basis, Debye-Ang**3):
 XXXX=          -4219.1703 YYYY=          -1122.0459 ZZZZ=           -338.7552 XXXY=           -150.2971
 XXXZ=            -90.6673 YYYX=             45.0389 YYYZ=             45.4208 ZZZX=             -0.2810
 ZZZY=             28.6715 XXYY=           -667.5037 XXZZ=           -636.9940 YYZZ=           -236.7440
 XXYZ=            -25.7902 YYXZ=             -6.1557 ZZXY=            -10.4046
 N-N= 1.339924771920D+03 E-N=-4.812541762160D+03  KE= 9.054070049371D+02
 Calling FoFJK, ICntrl=      2127 FMM=F ISym2X=0 I1Cent= 0 IOpClX= 0 NMat=1 NMatS=1 NMatT=0.
 ***** Axes restored to original set *****
 -------------------------------------------------------------------
 Center     Atomic                   Forces (Hartrees/Bohr)
 Number     Number              X              Y              Z
 -------------------------------------------------------------------
      1        6           0.000131974    0.000603703    0.000418892
      2        6          -0.002025173   -0.000456141   -0.002439554
      3        6           0.001593932   -0.002395678    0.001220188
      4        8          -0.000442214   -0.001971082    0.002322253
      5        1          -0.000991507   -0.000809065    0.000926920
      6        8          -0.015133710    0.013478059   -0.002583010
      7        1          -0.005787301   -0.002744780   -0.000610909
      8        6          -0.011146189    0.051028229   -0.014383132
      9        6           0.002404122   -0.002533007   -0.004837394
     10        1          -0.000528286   -0.000047972    0.000243622
     11        8          -0.000955380   -0.000206481   -0.000037956
     12        6          -0.000913768   -0.000638335   -0.000396782
     13        1          -0.001223193    0.000520296    0.000539566
     14        8           0.001128712    0.001257157    0.001039091
     15        1           0.000004300    0.000215623    0.000363720
     16        1           0.000104517    0.000077538   -0.000156909
     17        1           0.000624210    0.000271553   -0.000083178
     18        1          -0.000299286    0.000764048   -0.000736814
     19        1          -0.000846217   -0.000052293    0.000141659
     20        6          -0.021405912   -0.022601027   -0.001045669
     21        7           0.048434597    0.018456627    0.007459270
     22        6          -0.008557124   -0.000953635   -0.001606674
     23        7           0.015231605    0.013948181    0.000661944
     24        6           0.010950095   -0.023094706    0.007410220
     25        1           0.007330253    0.009806886   -0.000611333
     26        1          -0.015474369   -0.052516484    0.006933989
     27        1           0.004481733    0.003241135    0.000278255
     28        8          -0.015411272    0.013486882   -0.005931719
     29        8           0.008720853   -0.016135232    0.005501445
 -------------------------------------------------------------------
 Cartesian Forces:  Max     0.052516484 RMS     0.011960260

 GradGradGradGradGradGradGradGradGradGradGradGradGradGradGradGradGradGrad
 Berny optimization.
 FormGI is forming the generalized inverse of G from B-inverse, IUseBI=4.
 Internal  Forces:  Max     0.058143388 RMS     0.009017972
 Search for a local minimum.
 Step number   1 out of a maximum of  173
 All quantities printed in internal units (Hartrees-Bohrs-Radians)
 Mixed Optimization -- RFO/linear search
 Second derivative matrix not updated -- first step.
 ITU=  0
     Eigenvalues ---    0.00493   0.00596   0.00888   0.01010   0.01293
     Eigenvalues ---    0.01449   0.01551   0.01582   0.01668   0.01730
     Eigenvalues ---    0.01847   0.01909   0.02082   0.02247   0.02384
     Eigenvalues ---    0.02426   0.03148   0.03870   0.04368   0.05128
     Eigenvalues ---    0.05215   0.05404   0.05433   0.05688   0.05995
     Eigenvalues ---    0.06214   0.06244   0.06923   0.07790   0.08263
     Eigenvalues ---    0.09923   0.11048   0.13010   0.13686   0.15995
     Eigenvalues ---    0.16000   0.16000   0.16000   0.16000   0.16000
     Eigenvalues ---    0.16245   0.16870   0.18415   0.20137   0.22030
     Eigenvalues ---    0.22365   0.23426   0.24598   0.24996   0.25000
     Eigenvalues ---    0.25000   0.26120   0.28414   0.28920   0.31067
     Eigenvalues ---    0.33294   0.33383   0.33490   0.33703   0.33749
     Eigenvalues ---    0.33880   0.34389   0.35329   0.35347   0.37507
     Eigenvalues ---    0.37803   0.42581   0.42708   0.44130   0.44278
     Eigenvalues ---    0.45319   0.45463   0.47583   0.48665   0.50896
     Eigenvalues ---    0.52794   0.53594   0.53724   0.55363   0.91070
     Eigenvalues ---    0.96216
 RFO step:  Lambda=-3.43181519D-02 EMin= 4.92837421D-03
 Linear search not attempted -- first point.
 Maximum step size (   0.300) exceeded in Quadratic search.
    -- Step size scaled by   0.983
 Iteration  1 RMS(Cart)=  0.07192491 RMS(Int)=  0.00126944
 Iteration  2 RMS(Cart)=  0.00168976 RMS(Int)=  0.00018812
 Iteration  3 RMS(Cart)=  0.00000146 RMS(Int)=  0.00018812
 Iteration  4 RMS(Cart)=  0.00000000 RMS(Int)=  0.00018812
 Variable       Old X    -DE/DX   Delta X   Delta X   Delta X     New X
                                 (Linear)    (Quad)   (Total)
    R1        2.89122   0.00162   0.00000   0.00300   0.00298   2.89421
    R2        2.87964   0.00051   0.00000  -0.00154  -0.00169   2.87795
    R3        2.08199   0.00044   0.00000   0.00116   0.00116   2.08315
    R4        2.66123   0.00022   0.00000   0.00045   0.00045   2.66168
    R5        2.91663   0.00287   0.00000   0.01074   0.01091   2.92754
    R6        2.64907   0.00141   0.00000   0.00284   0.00284   2.65190
    R7        2.07755  -0.00001   0.00000  -0.00003  -0.00003   2.07753
    R8        2.63565   0.01795   0.00000   0.03737   0.03747   2.67313
    R9        2.07835   0.00241   0.00000   0.00638   0.00638   2.08473
   R10        2.79978   0.02187   0.00000   0.05683   0.05683   2.85661
   R11        1.83847  -0.00048   0.00000  -0.00083  -0.00083   1.83763
   R12        2.72102  -0.00270   0.00000  -0.00594  -0.00604   2.71498
   R13        2.58749  -0.01531   0.00000  -0.02547  -0.02508   2.56241
   R14        2.60431   0.05814   0.00000   0.11326   0.11324   2.71755
   R15        2.85885   0.00117   0.00000   0.00334   0.00334   2.86219
   R16        2.07533   0.00063   0.00000   0.00166   0.00166   2.07700
   R17        1.82984  -0.00010   0.00000  -0.00017  -0.00017   1.82967
   R18        2.68032   0.00079   0.00000   0.00169   0.00169   2.68201
   R19        2.08538   0.00021   0.00000   0.00055   0.00055   2.08593
   R20        2.08384   0.00018   0.00000   0.00049   0.00049   2.08433
   R21        1.81511  -0.00010   0.00000  -0.00017  -0.00017   1.81494
   R22        2.55585   0.01053   0.00000   0.01526   0.01567   2.57152
   R23        2.05115   0.00197   0.00000   0.00500   0.00500   2.05615
   R24        2.73517  -0.03998   0.00000  -0.10009  -0.10003   2.63513
   R25        2.05143  -0.05502   0.00000  -0.13947  -0.13947   1.91197
   R26        2.65678  -0.01827   0.00000  -0.03932  -0.03971   2.61707
   R27        2.30194  -0.01494   0.00000  -0.01473  -0.01473   2.28720
   R28        2.58453   0.01739   0.00000   0.03384   0.03342   2.61795
   R29        1.91442   0.00022   0.00000   0.00043   0.00043   1.91485
   R30        2.32444   0.01243   0.00000   0.01293   0.01293   2.33737
    A1        1.79715   0.00310   0.00000   0.00764   0.00751   1.80466
    A2        1.94689  -0.00054   0.00000   0.00222   0.00223   1.94912
    A3        1.92880  -0.00125   0.00000  -0.00519  -0.00516   1.92364
    A4        1.95197  -0.00065   0.00000   0.00182   0.00177   1.95374
    A5        1.89426  -0.00107   0.00000  -0.00384  -0.00373   1.89052
    A6        1.93957   0.00051   0.00000  -0.00223  -0.00226   1.93731
    A7        1.78480   0.00149   0.00000   0.00646   0.00666   1.79147
    A8        1.90805  -0.00139   0.00000  -0.00796  -0.00802   1.90003
    A9        1.91594   0.00009   0.00000   0.00281   0.00267   1.91861
   A10        1.98721   0.00031   0.00000   0.00330   0.00320   1.99041
   A11        1.90211   0.00004   0.00000   0.00426   0.00424   1.90636
   A12        1.95758  -0.00039   0.00000  -0.00755  -0.00752   1.95006
   A13        1.88353  -0.00507   0.00000  -0.01660  -0.01690   1.86663
   A14        1.92017  -0.00233   0.00000  -0.03013  -0.03047   1.88970
   A15        1.96636   0.00195   0.00000   0.01308   0.01304   1.97940
   A16        1.92630  -0.00029   0.00000  -0.01155  -0.01246   1.91384
   A17        1.90640   0.00558   0.00000   0.03534   0.03525   1.94165
   A18        1.86140   0.00030   0.00000   0.01019   0.01040   1.87179
   A19        1.84892  -0.00125   0.00000  -0.00634  -0.00634   1.84258
   A20        1.93697   0.00117   0.00000   0.00806   0.00825   1.94522
   A21        2.14186   0.00087   0.00000  -0.00341  -0.00359   2.13827
   A22        2.02282   0.01774   0.00000   0.05488   0.05470   2.07752
   A23        2.11835  -0.01861   0.00000  -0.05142  -0.05106   2.06729
   A24        1.84448   0.00009   0.00000   0.00000  -0.00008   1.84441
   A25        2.01527  -0.00001   0.00000   0.00096   0.00094   2.01621
   A26        1.90380  -0.00012   0.00000  -0.00284  -0.00282   1.90098
   A27        1.93068   0.00078   0.00000   0.00734   0.00736   1.93805
   A28        1.86789   0.00019   0.00000   0.00444   0.00448   1.87238
   A29        1.89607  -0.00089   0.00000  -0.00930  -0.00933   1.88675
   A30        1.85088  -0.00085   0.00000  -0.00430  -0.00430   1.84658
   A31        1.90106   0.00339   0.00000   0.01368   0.01368   1.91474
   A32        1.88954  -0.00073   0.00000  -0.00262  -0.00261   1.88693
   A33        1.89446  -0.00070   0.00000  -0.00150  -0.00151   1.89294
   A34        1.94690  -0.00132   0.00000  -0.00609  -0.00609   1.94081
   A35        1.93990  -0.00095   0.00000  -0.00249  -0.00252   1.93739
   A36        1.89064   0.00029   0.00000  -0.00100  -0.00102   1.88963
   A37        1.90715  -0.00088   0.00000  -0.00447  -0.00447   1.90268
   A38        2.14157  -0.00014   0.00000  -0.00328  -0.00251   2.13906
   A39        1.99245   0.01248   0.00000   0.06437   0.06399   2.05643
   A40        2.14916  -0.01233   0.00000  -0.06108  -0.06147   2.08769
   A41        2.09557   0.01939   0.00000   0.05659   0.05702   2.15259
   A42        2.11906  -0.00525   0.00000  -0.00578  -0.00600   2.11306
   A43        2.06854  -0.01415   0.00000  -0.05081  -0.05103   2.01751
   A44        1.96974   0.00285   0.00000  -0.00567  -0.00603   1.96371
   A45        2.21988  -0.01893   0.00000  -0.05767  -0.05749   2.16239
   A46        2.09356   0.01608   0.00000   0.06334   0.06352   2.15708
   A47        2.23044   0.00026   0.00000   0.00181   0.00105   2.23149
   A48        2.03423  -0.00543   0.00000  -0.02771  -0.02733   2.00691
   A49        2.01814   0.00517   0.00000   0.02587   0.02624   2.04438
   A50        2.01038  -0.00375   0.00000   0.00199   0.00154   2.01192
   A51        2.13607   0.01880   0.00000   0.05749   0.05771   2.19378
   A52        2.13673  -0.01505   0.00000  -0.05948  -0.05926   2.07747
    D1       -0.53121   0.00026   0.00000   0.00485   0.00473  -0.52649
    D2       -2.64284  -0.00025   0.00000   0.00125   0.00119  -2.64165
    D3        1.48616   0.00110   0.00000   0.01412   0.01408   1.50025
    D4       -2.62720  -0.00052   0.00000  -0.00290  -0.00298  -2.63017
    D5        1.54436  -0.00104   0.00000  -0.00651  -0.00652   1.53785
    D6       -0.60982   0.00031   0.00000   0.00636   0.00638  -0.60344
    D7        1.48896   0.00012   0.00000   0.00218   0.00210   1.49106
    D8       -0.62266  -0.00040   0.00000  -0.00142  -0.00144  -0.62410
    D9       -2.77684   0.00095   0.00000   0.01145   0.01146  -2.76539
   D10        0.52162  -0.00030   0.00000  -0.00776  -0.00778   0.51384
   D11       -1.61824  -0.00135   0.00000  -0.01776  -0.01776  -1.63600
   D12        2.52458  -0.00008   0.00000  -0.00396  -0.00396   2.52062
   D13        2.61410   0.00058   0.00000   0.00031   0.00028   2.61438
   D14        0.47424  -0.00048   0.00000  -0.00968  -0.00970   0.46454
   D15       -1.66613   0.00079   0.00000   0.00412   0.00410  -1.66202
   D16       -1.52317   0.00006   0.00000  -0.00398  -0.00399  -1.52717
   D17        2.62015  -0.00100   0.00000  -0.01397  -0.01397   2.60618
   D18        0.47979   0.00027   0.00000  -0.00017  -0.00017   0.47962
   D19        0.55106  -0.00152   0.00000  -0.00793  -0.00789   0.54317
   D20        2.50964   0.00093   0.00000  -0.00363  -0.00366   2.50599
   D21       -1.62016  -0.00028   0.00000  -0.00543  -0.00545  -1.62560
   D22        0.37449  -0.00219   0.00000  -0.00681  -0.00659   0.36790
   D23       -1.72816   0.00264   0.00000   0.03519   0.03492  -1.69324
   D24        2.48060   0.00258   0.00000   0.03429   0.03426   2.51487
   D25        2.43049  -0.00279   0.00000  -0.01076  -0.01052   2.41997
   D26        0.32784   0.00204   0.00000   0.03123   0.03099   0.35883
   D27       -1.74659   0.00198   0.00000   0.03034   0.03033  -1.71625
   D28       -1.65292  -0.00304   0.00000  -0.01491  -0.01471  -1.66762
   D29        2.52762   0.00179   0.00000   0.02709   0.02680   2.55442
   D30        0.45320   0.00173   0.00000   0.02619   0.02614   0.47934
   D31        2.86252   0.00032   0.00000  -0.00425  -0.00419   2.85833
   D32        0.87893  -0.00081   0.00000  -0.00907  -0.00914   0.86978
   D33       -1.29133  -0.00079   0.00000  -0.01130  -0.01129  -1.30262
   D34       -0.05096   0.00127   0.00000   0.00060   0.00043  -0.05053
   D35        2.04784  -0.00488   0.00000  -0.05324  -0.05307   1.99478
   D36       -2.19420  -0.00136   0.00000  -0.02658  -0.02657  -2.22077
   D37       -1.99781  -0.00041   0.00000  -0.01735  -0.01756  -2.01537
   D38        1.16222  -0.00039   0.00000  -0.02020  -0.02056   1.14167
   D39        0.09515  -0.00173   0.00000  -0.00575  -0.00545   0.08970
   D40       -3.02800  -0.00170   0.00000  -0.00859  -0.00844  -3.03644
   D41        2.17697   0.00111   0.00000   0.00534   0.00549   2.18246
   D42       -0.94618   0.00113   0.00000   0.00250   0.00249  -0.94368
   D43       -0.30019   0.00012   0.00000   0.00590   0.00596  -0.29422
   D44        1.89278   0.00065   0.00000   0.01161   0.01164   1.90442
   D45       -2.32772   0.00012   0.00000   0.00709   0.00715  -2.32057
   D46       -3.10968  -0.00057   0.00000  -0.00886  -0.00881  -3.11849
   D47        0.02754  -0.00050   0.00000  -0.00651  -0.00634   0.02120
   D48        0.01249  -0.00021   0.00000  -0.00474  -0.00474   0.00775
   D49       -3.13348  -0.00014   0.00000  -0.00239  -0.00227  -3.13575
   D50        3.09808   0.00041   0.00000   0.00612   0.00623   3.10432
   D51       -0.04474   0.00010   0.00000   0.00165   0.00153  -0.04321
   D52       -0.02534   0.00022   0.00000   0.00279   0.00288  -0.02246
   D53        3.11502  -0.00009   0.00000  -0.00168  -0.00183   3.11320
   D54        0.96011   0.00033   0.00000   0.00303   0.00299   0.96310
   D55       -1.15989   0.00035   0.00000   0.00384   0.00381  -1.15608
   D56        3.07459   0.00078   0.00000   0.00729   0.00726   3.08184
   D57       -1.13320  -0.00038   0.00000  -0.00328  -0.00326  -1.13646
   D58        3.02999  -0.00036   0.00000  -0.00247  -0.00245   3.02754
   D59        0.98127   0.00008   0.00000   0.00098   0.00100   0.98227
   D60        3.10458  -0.00053   0.00000  -0.00732  -0.00731   3.09727
   D61        0.98458  -0.00051   0.00000  -0.00651  -0.00649   0.97809
   D62       -1.06413  -0.00007   0.00000  -0.00306  -0.00304  -1.06717
   D63        3.12624   0.00048   0.00000   0.00921   0.00922   3.13546
   D64       -1.07228   0.00096   0.00000   0.01106   0.01104  -1.06124
   D65        1.03978  -0.00024   0.00000   0.00386   0.00387   1.04365
   D66        0.00150   0.00015   0.00000   0.00388   0.00401   0.00550
   D67        3.13818   0.00001   0.00000   0.00154   0.00157   3.13975
   D68       -3.13533   0.00001   0.00000   0.00099   0.00118  -3.13415
   D69        0.00135  -0.00013   0.00000  -0.00135  -0.00126   0.00009
   D70       -0.00088  -0.00018   0.00000  -0.00156  -0.00148  -0.00236
   D71       -3.14071  -0.00016   0.00000  -0.00159  -0.00163   3.14085
   D72       -3.13770  -0.00006   0.00000   0.00060   0.00072  -3.13698
   D73        0.00566  -0.00004   0.00000   0.00057   0.00058   0.00624
   D74       -0.01488  -0.00006   0.00000  -0.00068  -0.00078  -0.01566
   D75       -3.12566  -0.00001   0.00000   0.00033   0.00019  -3.12547
   D76        3.12509  -0.00012   0.00000  -0.00078  -0.00077   3.12431
   D77        0.01431  -0.00007   0.00000   0.00023   0.00020   0.01451
   D78        0.02785   0.00004   0.00000   0.00031   0.00026   0.02811
   D79       -3.11251   0.00032   0.00000   0.00469   0.00454  -3.10797
   D80        3.13887  -0.00016   0.00000  -0.00150  -0.00154   3.13733
   D81       -0.00149   0.00012   0.00000   0.00288   0.00274   0.00125
         Item               Value     Threshold  Converged?
 Maximum Force            0.058143     0.000450     NO 
 RMS     Force            0.009018     0.000300     NO 
 Maximum Displacement     0.337997     0.001800     NO 
 RMS     Displacement     0.071880     0.001200     NO 
 Predicted change in Energy=-1.891238D-02
 GradGradGradGradGradGradGradGradGradGradGradGradGradGradGradGradGradGrad

                          Input orientation:                          
 ---------------------------------------------------------------------
 Center     Atomic      Atomic             Coordinates (Angstroms)
 Number     Number       Type             X           Y           Z
 ---------------------------------------------------------------------
      1          6           0       -2.791000   -0.233109    0.322853
      2          6           0       -1.417984   -0.875147    0.542522
      3          6           0       -0.628931   -0.426102   -0.712760
      4          8           0       -1.578972   -2.265083    0.649702
      5          1           0       -0.944578   -0.449897    1.439006
      6          8           0       -1.285954    0.716693   -1.225900
      7          1           0       -0.667477   -1.241012   -1.455368
      8          6           0        0.829480   -0.141177   -0.435352
      9          6           0       -2.468939    1.025733   -0.471474
     10          1           0       -3.289513   -0.001023    1.278263
     11          8           0       -3.596088   -1.067389   -0.476950
     12          6           0       -2.277170    2.284074    0.349400
     13          1           0       -3.277735    1.208545   -1.192895
     14          8           0       -1.277991    2.065908    1.333439
     15          1           0       -3.244945    2.541864    0.813500
     16          1           0       -1.990337    3.104053   -0.330250
     17          1           0       -3.318471   -1.972947   -0.276104
     18          1           0       -0.691145   -2.641210    0.523520
     19          1           0       -1.160632    2.870833    1.844062
     20          6           0        1.368530    1.095917   -0.568310
     21          7           0        2.686803    1.348284   -0.344229
     22          6           0        3.601578    0.366062    0.033824
     23          7           0        3.017405   -0.883589    0.156472
     24          6           0        1.687542   -1.222627   -0.032578
     25          1           0        0.709032    1.907744   -0.868118
     26          1           0        3.065646    2.280271   -0.451725
     27          1           0        3.646616   -1.623819    0.444431
     28          8           0        4.775945    0.578939    0.234966
     29          8           0        1.333672   -2.392624    0.156521
 ---------------------------------------------------------------------
                    Distance matrix (angstroms):
                    1          2          3          4          5
     1  C    0.000000
     2  C    1.531548   0.000000
     3  C    2.405053   1.549186   0.000000
     4  O    2.388465   1.403327   2.478050   0.000000
     5  H    2.168426   1.099379   2.174924   2.078547   0.000000
     6  O    2.359221   2.383003   1.414558   3.534789   2.929026
     7  H    2.947420   2.165336   1.103191   2.512143   3.013311
     8  C    3.700162   2.558524   1.511655   3.389537   2.599193
     9  C    1.522945   2.397090   2.356199   3.588669   2.855012
    10  H    1.102355   2.192721   3.350158   2.906373   2.392916
    11  O    1.408501   2.412554   3.044811   2.602417   3.329067
    12  C    2.569229   3.279661   3.345135   4.612212   3.230734
    13  H    2.147735   3.288178   3.149407   4.283346   3.888567
    14  O    2.931887   3.048762   3.289122   4.394948   2.539997
    15  H    2.854343   3.884222   4.240498   5.090093   3.825387
    16  H    3.493458   4.113800   3.802858   5.473312   4.105416
    17  H    1.914161   2.342470   3.133213   1.992064   3.301008
    18  H    3.201344   1.909878   2.537511   0.972434   2.388345
    19  H    3.821863   3.973991   4.205927   5.289532   3.352313
    20  C    4.456699   3.589387   2.515404   4.633318   3.430644
    21  N    5.740394   4.751762   3.778671   5.678130   4.427223
    22  C    6.427099   5.195707   4.368308   5.842973   4.827821
    23  N    5.847083   4.452166   3.776325   4.824778   4.186919
    24  C    4.600306   3.177385   2.542272   3.496046   3.112993
    25  H    4.272222   3.776054   2.694646   4.995120   3.689948
    26  H    6.420074   5.572084   4.587210   6.591348   5.206782
    27  H    6.587242   5.120576   4.588455   5.268788   4.842141
    28  O    7.610901   6.369750   5.578618   6.974629   5.935706
    29  O    4.658765   3.165967   2.911128   2.956855   3.257204
                    6          7          8          9         10
     6  O    0.000000
     7  H    2.065860   0.000000
     8  C    2.415775   2.119186   0.000000
     9  C    1.436704   3.058013   3.498936   0.000000
[...]
 0344581,0.00107238,-0.00065468,-0.00477629,0.00077912,-0.00469107,0.00
 338205,0.00066685,0.00009817,0.00026503,-0.00008487,0.00260839,0.00001
 181,-0.00032617,0.00042088,0.00020750,0.00042426,0.02869523,0.02655429
 ,0.00097108,-0.00031850,-0.00027520,0.00058506,0.00008557,-0.00000418,
 0.00003941,-0.00021153,0.00058707,-0.00007493,0.00008551,-0.00006134,0
 .00000083,0.00021306,0.00002926,-0.00011041,0.00007935,0.00018384,0.00
 000216,0.00000491,-0.00003936,-0.00003086,0.00000070,0.00007059,-0.000
 00640,0.00054020,-0.00019220,0.00028687,0.00695835,-0.00079607,-0.0020
 0547,-0.00008882,-0.00002543,0.00000967,-0.02406707,-0.01141235,-0.001
 11587,0.01284482,-0.06188389,0.01484674,-0.05812160,-0.25764802,0.0273
 8994,-0.04597557,0.78322009,-0.00004336,0.00007927,0.00005022,-0.00048
 241,-0.00031523,-0.00015243,0.00057670,0.00249238,0.00252557,-0.000208
 74,0.00009024,-0.00001416,-0.00006710,0.00002195,-0.00003909,-0.000954
 02,-0.00007174,0.00001802,0.00043859,-0.00013920,-0.00010997,-0.011940
 30,-0.00011274,0.00824493,0.00007004,0.00002776,-0.00022896,-0.0000445
 7,0.00000631,0.00001174,0.00000157,-0.00004367,0.00001651,-0.00007689,
 -0.00002388,-0.00010329,-0.00009026,0.00004228,0.00003229,0.00006608,0
 .00001122,0.00014977,0.00000226,0.00001183,0.00003200,0.00001595,-0.00
 001773,0.00001187,-0.00000833,0.00002800,-0.00001103,0.00038891,0.0002
 9276,0.00039246,-0.00001836,0.00000832,-0.00003757,0.00137577,0.000727
 00,0.00008415,0.00176513,0.01377789,0.00666026,-0.00262191,0.03570794,
 -0.06492760,0.09737910,-0.14980301,0.10911599,-0.00038943,0.00041639,0
 .00006833,-0.00143135,0.00402927,-0.00087517,-0.01729274,0.02615408,-0
 .00639164,0.00330087,-0.00177531,-0.00023387,-0.00002222,0.00000359,0.
 00037912,-0.00459392,-0.00136236,0.00090092,-0.00083536,0.00013547,-0.
 00126358,-0.16930691,0.05684078,-0.02543090,-0.00103888,0.00096373,-0.
 00126417,0.00010386,-0.00002716,-0.00006169,0.00087542,-0.00043211,0.0
 0025973,-0.00024359,0.00008103,-0.00006094,-0.00027790,-0.00003296,0.0
 0027338,0.00023208,-0.00030470,-0.00027405,0.00013899,0.00002188,-0.00
 001918,-0.00008766,-0.00004559,0.00001413,-0.00090854,0.00005621,-0.00
 031677,-0.00650896,-0.00475046,0.00194256,0.00009923,0.00000943,0.0001
 5622,0.05966754,0.00338394,0.00695385,-0.04148049,0.02345485,-0.009431
 88,-0.01105531,-0.08980418,0.01780483,-0.26169471,0.03312575,-0.031446
 11,0.62312530,-0.00045872,0.00055359,0.00173908,-0.00264244,0.01300660
 ,-0.00304553,0.01093573,0.01180423,0.00141386,0.01616879,-0.01185211,-
 0.00139460,-0.00017877,-0.00066314,-0.00039022,-0.00777572,-0.00202007
 ,0.00099804,-0.00343922,-0.00155629,-0.00215686,0.07183187,-0.16497039
 ,0.02678889,0.00243910,0.00003668,-0.00160480,-0.00051371,-0.00005011,
 -0.00004685,0.00024593,-0.00242132,0.00013831,0.00014206,0.00011445,0.
 00035093,-0.00076410,-0.00000900,0.00021947,-0.00095825,-0.00039991,0.
 00023195,-0.00023632,0.00014468,0.00011180,0.00008887,-0.00028071,-0.0
 0004941,-0.00176177,0.00084837,-0.00101450,-0.02370070,-0.00024522,0.0
 0583156,0.00024780,0.00003393,-0.00020267,-0.01777852,-0.05223432,0.00
 855963,0.03096254,-0.00411186,0.00409946,-0.03525289,0.02548170,-0.011
 14022,-0.00515261,-0.13847009,0.01590263,0.09489514,0.88621724,0.00016
 830,-0.00021256,-0.00023611,0.00035749,-0.00165146,0.00138065,-0.00469
 002,0.00146286,-0.00059211,-0.00217370,0.00197366,-0.00001213,0.000135
 16,-0.00007439,-0.00013390,0.00110887,0.00001079,0.00092160,0.00051570
 ,0.00053940,0.00063775,-0.02778444,0.02471525,-0.09180395,-0.00071875,
 0.00033776,0.00062291,0.00007533,0.00000546,-0.00004543,-0.00011816,0.
 00036395,-0.00025688,-0.00010614,-0.00001771,0.00008311,0.00024562,0.0
 0000023,-0.00006446,0.00009451,0.00007365,-0.00021518,0.00004710,0.000
 00694,-0.00003683,-0.00002290,0.00009668,-0.00000817,0.00032036,-0.000
 13486,0.00024075,0.00376862,0.00067609,-0.00098047,-0.00001494,-0.0000
 2679,0.00006723,0.01108485,0.01141378,0.00231496,-0.01080352,0.0027883
 2,-0.00682028,0.00686648,-0.01874425,-0.00940069,-0.02316025,0.0210360
 3,-0.06057827,0.02860994,-0.13955721,0.24002550,-0.00000926,-0.0003208
 7,0.00012641,-0.00019290,0.00014936,-0.00006010,0.00029685,-0.00059548
 ,0.00073727,-0.00026873,0.00040833,-0.00016402,0.00005823,-0.00004506,
 -0.00001131,-0.00193911,-0.00088784,-0.00072130,0.00008248,0.00046212,
 -0.00004157,0.01424032,-0.01084567,0.00281485,-0.00115032,0.00042414,0
 .00058845,-0.00005329,0.00009886,-0.00006781,-0.00000652,0.00024837,-0
 .00000249,-0.00014436,-0.00011993,0.00023518,0.00024375,-0.00003397,-0
 .00004341,-0.00001299,0.00000116,-0.00032036,0.00007780,0.00002468,-0.
 00012041,-0.00010253,0.00018735,-0.00003534,0.00007167,-0.00003489,0.0
 0001940,0.00041417,-0.00002554,-0.00009166,0.00005788,0.00003414,0.000
 07264,-0.12676285,0.12083250,-0.03488542,-0.01838566,0.02812261,-0.007
 94636,-0.00223760,-0.00560454,0.00011576,0.00090937,0.00042433,0.00012
 587,-0.00309244,-0.00160911,-0.00161281,0.13871645,0.00013110,-0.00009
 459,-0.00018425,0.00016614,-0.00030431,0.00015845,0.00221771,-0.001232
 84,-0.00054078,-0.00013851,0.00028853,-0.00002923,0.00000223,-0.000004
 93,0.00002831,0.00132301,0.00081398,-0.00035405,-0.00029773,-0.0000374
 4,0.00004572,0.01376577,-0.01469400,0.00654766,-0.00059330,0.00067639,
 0.00029177,0.00006136,0.00005756,-0.00005802,0.00004087,0.00008157,0.0
 0001218,0.00003913,0.00020103,-0.00007824,0.00014191,-0.00001769,-0.00
 001385,-0.00005191,-0.00018734,-0.00004853,0.00000342,-0.00007498,-0.0
 0000833,0.00004001,-0.00007631,0.00006191,0.00001013,-0.00003045,0.000
 00814,0.00028418,-0.00002200,-0.00006534,0.00007378,0.00002740,-0.0000
 4978,0.12603010,-0.26692352,0.05911570,-0.00638138,0.00903232,-0.00208
 078,-0.00166087,0.00077598,0.00034334,-0.00022642,0.00036101,-0.000183
 72,-0.00439163,-0.00243820,0.00165906,-0.13153191,0.27437449,0.0002114
 8,0.00005220,-0.00036026,0.00096595,0.00016884,0.00060474,0.00055653,-
 0.00093860,-0.00492566,-0.00000770,-0.00000553,-0.00014318,0.00003066,
 0.00005443,-0.00004119,-0.00060783,-0.00060175,-0.00091494,-0.00094836
 ,-0.00005882,0.00004481,-0.00208274,0.00331965,0.00843001,-0.00005719,
 0.00023043,-0.00000051,0.00011468,0.00000469,-0.00000260,-0.00006083,-
 0.00002131,0.00001905,0.00049085,-0.00002309,0.00047716,-0.00001808,-0
 .00002112,-0.00001076,-0.00062455,-0.00010852,-0.00017406,-0.00008272,
 -0.00001642,-0.00007147,0.00001477,0.00002522,-0.00000970,0.00001383,0
 .00000562,-0.00000308,0.00002954,0.00003901,0.00006757,0.00008472,0.00
 000277,-0.00007212,-0.03595727,0.05823040,-0.05776308,-0.00157430,0.00
 295646,0.00199347,-0.00060023,-0.00012745,0.00386265,0.00016556,-0.000
 19522,-0.00058039,-0.00116140,0.00211446,0.01063281,0.04063777,-0.0640
 9133,0.04372050,-0.00002108,-0.00005641,0.00005799,-0.00011256,0.00008
 337,-0.00024088,0.00048461,-0.00152917,0.00003436,0.00009954,-0.000067
 09,0.00005054,0.00000690,-0.00001124,0.00003193,0.00020903,0.00031738,
 0.00005056,-0.00036569,-0.00000001,-0.00000481,-0.00527479,0.00252051,
 -0.00164700,0.00001309,-0.00001053,-0.00004229,-0.00003007,0.00001220,
 -0.00000714,-0.00000581,0.00003203,0.00002264,-0.00007890,-0.00005442,
 -0.00004301,-0.00000900,0.00000317,0.00000437,0.00013559,0.00007008,0.
 00001909,0.00002351,0.00001216,0.00000767,-0.00001565,0.00002098,-0.00
 000694,0.00000160,0.00000685,-0.00001295,-0.00016872,0.00002749,0.0000
 1249,-0.00005824,-0.00000853,0.00003271,-0.00947103,-0.03135272,0.0053
 1236,-0.14253610,-0.15389796,0.01017498,0.02154856,0.02068964,-0.00077
 664,-0.00367332,0.00439162,-0.00179658,-0.00140423,-0.00001647,-0.0000
 7699,0.00036407,0.00045889,0.00020707,0.14170513,-0.00002211,0.0000575
 2,-0.00006758,-0.00002106,-0.00012689,0.00021463,-0.00017744,0.0007319
 6,0.00015863,0.00020914,0.00001590,-0.00007118,-0.00003071,0.00001784,
 0.00000835,0.00041617,-0.00034188,-0.00003991,0.00023230,-0.00000879,0
 .00003539,0.00126053,0.00387877,0.00000546,-0.00025805,0.00010162,0.00
 012664,0.00006104,-0.00001159,-0.00001323,0.00015868,-0.00002282,0.000
 00415,0.00007216,0.00008362,0.00002238,0.00005660,-0.00001286,0.000006
 41,-0.00008219,-0.00013219,-0.00006068,0.00000245,-0.00002061,-0.00002
 310,-0.00000464,-0.00002597,0.00002221,-0.00009898,-0.00001745,-0.0000
 0610,-0.00024995,-0.00004898,0.00009217,0.00006948,0.00003383,-0.00001
 189,-0.00044431,0.00496149,-0.00211505,-0.15095644,-0.38421332,0.04800
 294,-0.01564889,-0.02201464,0.00179077,0.00395595,-0.00234437,0.001639
 20,0.00214664,-0.00208478,0.00059566,0.00038977,0.00074887,-0.00040771
 ,0.16059079,0.39654364,-0.00000107,-0.00000252,0.00021725,-0.00054794,
 0.00021101,-0.00020125,-0.00011853,0.00023789,0.00228796,0.00003991,-0
 .00012455,-0.00004390,0.00000661,-0.00000959,-0.00004802,0.00003611,-0
 .00001454,-0.00022504,0.00041678,-0.00000155,0.00001997,-0.00154904,0.
 00019190,0.00281103,-0.00005673,0.00000558,0.00006385,-0.00004319,0.00
 002826,-0.00003071,-0.00003110,-0.00005083,-0.00008741,0.00008266,-0.0
 0002216,0.00015454,-0.00000323,-0.00000215,-0.00000927,-0.00016300,-0.
 00003920,-0.00014701,-0.00002047,0.00000186,-0.00002207,0.00000129,0.0
 0002930,-0.00001040,0.00001736,0.00000989,0.00002129,-0.00004386,0.000
 02905,0.00000653,0.00007894,0.00000370,0.00001196,-0.00038733,-0.00652
 886,-0.00513184,0.00973235,0.04795193,-0.01669466,0.00581705,0.0064175
 5,-0.00119821,-0.00152023,0.00173416,0.00311671,-0.00053542,0.00015285
 ,-0.00078007,0.00018560,-0.00038585,-0.00158807,-0.01195785,-0.0482670
 5,0.02022213,-0.00003325,0.00003340,0.00001882,0.00002080,0.00034107,-
 0.00011994,0.00053771,0.00151658,-0.00017596,0.00055519,-0.00033646,-0
 .00005879,-0.00002895,-0.00001980,0.00003291,-0.00057547,0.00003876,0.
 00009212,-0.00003155,-0.00007060,-0.00005461,-0.00540112,-0.00366164,-
 0.00053191,0.00002568,0.00007069,-0.00017164,-0.00000491,-0.00000693,0
 .00000020,0.00006847,-0.00005570,0.00002629,-0.00005167,-0.00000615,-0
 .00002897,-0.00004980,0.00000316,0.00003202,0.00004191,-0.00001016,0.0
 0002273,0.00001233,0.00000887,0.00000852,-0.00000356,-0.00000666,0.000
 00204,-0.00008435,0.00001818,-0.00003804,-0.00074718,0.00002653,0.0002
 3977,-0.00000927,0.00000136,0.00000621,-0.00109864,-0.00078582,0.00006
 673,-0.00164884,-0.00523511,0.00015743,0.02097730,-0.01210550,0.005622
 48,-0.19549711,0.17030736,-0.05918514,-0.01497946,0.03223104,-0.009126
 55,-0.00002000,0.00006113,0.00003030,0.00096022,-0.00082732,0.00011280
 ,0.19504122,0.00004088,0.00002946,0.00005608,0.00003430,0.00017195,-0.
 00008784,0.00008359,0.00046909,0.00004284,-0.00002371,-0.00016906,0.00
 002927,0.00000151,-0.00002140,-0.00001310,-0.00047441,0.00009689,0.000
 00354,-0.00002302,-0.00001105,-0.00003218,-0.00268448,0.00085092,0.000
 39178,0.00014621,-0.00001176,-0.00010128,-0.00002620,0.00000047,0.0000
 0081,-0.00008994,-0.00006267,-0.00002978,-0.00000017,-0.00001289,0.000
 01529,-0.00004474,0.00001127,0.00000312,-0.00004136,0.00001131,0.00001
 470,-0.00001665,0.00000977,0.00001217,0.00000804,-0.00000178,-0.000005
 26,0.00003234,0.00003369,0.00000336,0.00006081,0.00009781,-0.00000284,
 0.00001147,-0.00000126,-0.00001223,-0.00085614,0.00010822,-0.00031071,
 -0.00473679,-0.00333555,0.00083586,0.02187142,-0.02065907,0.00712715,0
 .16673786,-0.30164638,0.08127826,0.00006731,0.01348216,-0.00258089,0.0
 0010282,0.00000765,-0.00007571,0.00096714,-0.00060764,0.00040239,-0.18
 155795,0.31018306,0.00001064,0.00000819,0.00000550,0.00003215,0.000028
 34,0.00007521,-0.00005721,0.00015401,0.00036521,0.00016052,-0.00002297
 ,-0.00010771,0.00000561,-0.00003452,-0.00001476,0.00005853,-0.00001456
 ,-0.00011301,-0.00004015,-0.00000415,-0.00001908,-0.00057537,0.0003828
 6,0.00431892,-0.00004745,-0.00000394,-0.00001056,0.00001419,-0.0000071
 5,-0.00000857,0.00000398,-0.00001875,-0.00003430,0.00003103,-0.0000002
 3,0.00004192,-0.00000956,0.00000303,0.00000453,-0.00002245,-0.00000473
 ,-0.00006597,-0.00000162,-0.00000505,-0.00000870,-0.00000511,0.0000059
 9,-0.00000664,-0.00001602,0.00000279,0.00001586,-0.00023496,-0.0000319
 7,0.00010538,0.00001067,-0.00000564,0.00001877,0.00018039,-0.00017828,
 -0.00069446,-0.00012610,0.00052591,0.00409101,-0.00145082,0.00122701,-
 0.00139380,-0.05900017,0.08350599,-0.04314074,-0.00222145,0.00112823,0
 .00049640,0.00003934,-0.00006778,-0.00042001,-0.00016332,0.00013526,0.
 00089630,0.06191893,-0.08513160,0.04308276,0.00031033,-0.00005958,0.00
 071314,-0.00034385,0.00107141,-0.00175903,0.00143758,-0.00208483,0.001
 17721,-0.00137740,-0.00050419,0.00073030,0.00015907,-0.00004464,-0.000
 11033,-0.00269147,0.00113159,0.00025755,-0.00089454,0.00018053,-0.0000
 0650,-0.00102936,0.00103459,0.00003531,0.00172578,-0.00060707,-0.00072
 583,-0.00041547,0.00007433,0.00003053,-0.00106588,-0.00028941,-0.00020
 913,-0.00002776,-0.00018384,-0.00007152,-0.00035148,0.00010730,-0.0000
 3458,-0.00017007,0.00033811,0.00043799,-0.00014403,0.00006718,0.000142
 20,0.00012117,0.00002027,-0.00003134,0.00057370,0.00020812,0.00004655,
 0.00171053,0.00040392,-0.00077869,-0.00005142,-0.00004309,-0.00018826,
 0.00303752,0.00424240,-0.00098550,-0.07058455,0.02935356,-0.01738573,-
 0.67682104,-0.06379235,-0.06810832,-0.05718018,-0.04217728,-0.00303018
 ,0.01154495,0.00169254,-0.00010239,-0.00169616,-0.00061276,-0.00012995
 ,-0.00290352,-0.00082348,0.00023347,-0.00332242,0.00004520,0.00034729,
 0.80612059,0.00003903,-0.00000090,-0.00019341,0.00028462,-0.00085596,0
 .00035323,0.00045770,0.00088035,-0.00032601,-0.00089973,0.00078461,0.0
 0008877,-0.00000140,0.00003317,0.00002000,-0.00022797,0.00033037,-0.00
 008070,0.00026716,0.00002646,0.00010740,-0.00136792,0.00838461,-0.0019
 3183,-0.00004360,0.00003171,-0.00006307,0.00004043,-0.00001891,0.00002
 162,-0.00002340,0.00016491,0.00000160,-0.00005345,-0.00005674,-0.00001
 977,-0.00001472,0.00001661,-0.00000039,0.00008308,0.00009110,0.0000299
 8,0.00001017,0.00000690,0.00000613,-0.00000092,0.00002655,-0.00001258,
 0.00011780,-0.00005842,0.00006043,0.00136457,-0.00018226,-0.00034227,-
 0.00005751,-0.00002136,0.00001307,-0.01115873,-0.00981925,0.00109103,0
 .05667090,0.01530268,0.00865212,-0.06259853,-0.10961069,-0.00335168,-0
 .07306053,-0.00633221,-0.00482452,0.02018939,-0.00755575,0.00506705,0.
 00142621,0.00026431,0.00011128,-0.00355214,0.00342651,-0.00175035,0.00
 204624,0.00404612,-0.00112181,0.07726652,0.10310670,0.00002474,-0.0000
 1404,0.00009254,0.00003181,0.00034636,-0.00039399,0.00008297,-0.000591
 00,-0.00018221,0.00006539,-0.00029995,0.00016931,0.00000331,-0.0000013
 6,0.00002614,-0.00033454,0.00011019,0.00003939,-0.00022161,0.00010596,
 -0.00000905,0.00031674,-0.00168739,-0.00073927,0.00027290,-0.00008215,
 -0.00011969,-0.00006491,0.00001659,0.00000676,-0.00011296,-0.00004808,
 0.00002920,-0.00004102,-0.00000933,-0.00009152,-0.00004218,0.00001212,
 0.00000016,0.00003575,0.00004468,0.00015440,-0.00000994,0.00000622,0.0
 0002972,0.00001823,-0.00001641,0.00000931,0.00004783,0.00003141,-0.000
 02758,-0.00014792,0.00007023,-0.00013129,-0.00003375,0.00000266,-0.000
 04867,0.00178789,0.00316395,0.00462457,-0.02237448,0.00498700,0.016874
 44,-0.06817617,-0.00351232,-0.08972567,0.00298146,-0.00035435,0.021137
 41,-0.00310314,0.00294216,0.00623294,-0.00046192,-0.00014734,-0.000205
 99,0.00074820,-0.00140070,-0.00336027,-0.00039580,-0.00156565,-0.00335
 494,0.08845607,-0.00132535,0.05023713,0.00039314,0.00014965,-0.0009264
 9,0.00124827,-0.01049763,0.00173055,0.00030419,-0.00287711,-0.00017527
 ,-0.02239460,0.00717510,0.00588897,0.00014287,0.00071531,0.00014192,0.
 00073300,0.00201962,-0.00051718,0.00143775,0.00047186,0.00103250,0.021
 67567,0.00537705,-0.00156137,-0.00012986,-0.00021022,0.00024717,0.0001
 3838,-0.00004624,0.00009267,-0.00082071,0.00133998,-0.00039152,-0.0001
 4269,-0.00020639,-0.00020597,0.00011410,0.00012504,-0.00014877,0.00031
 452,0.00042407,0.00023667,0.00000937,0.00000207,0.00005392,0.00004618,
 0.00015555,0.00000833,0.00168170,-0.00033421,0.00106694,0.00613190,0.0
 0540459,-0.00452942,-0.00015032,-0.00002969,-0.00004613,-0.00617041,0.
 00547990,-0.00258641,0.00434578,-0.00834903,0.00203255,-0.00037659,0.0
 2410717,-0.00512485,-0.04769899,-0.08458069,0.00980828,-0.16244414,-0.
 15964207,0.02711320,0.00054166,0.00103556,0.00035946,0.00057685,0.0000
 2386,0.00021803,0.00534670,0.00036468,0.00115849,-0.00567061,-0.007203
 26,0.00064702,0.20081690,0.00020358,-0.00003704,-0.00135636,0.00034696
 ,-0.00705632,0.00244733,-0.00678146,-0.00101511,-0.00230359,-0.0088751
 1,0.01043913,0.00049646,0.00012560,0.00051063,0.00023974,0.00257976,0.
 00176415,-0.00068977,0.00181196,0.00078781,0.00101923,-0.01235202,-0.0
 7024403,0.01852620,-0.00181385,0.00023847,0.00068760,0.00034608,0.0000
 0106,0.00008177,-0.00002691,0.00157246,0.00006022,-0.00018293,-0.00013
 025,-0.00022908,0.00036410,0.00003717,-0.00010087,0.00064664,0.0003049
 2,-0.00012350,0.00016106,-0.00006463,-0.00005999,-0.00005923,0.0002008
 0,0.00001535,0.00106718,-0.00063704,0.00057245,0.01603341,-0.00622420,
 -0.00368390,-0.00018778,-0.00003536,0.00014189,0.02031365,0.00761708,0
 .00208377,-0.01207837,-0.00256652,-0.00115840,0.00670463,0.00574265,0.
 00126682,-0.05554080,-0.02540454,0.00339020,-0.16304844,-0.56036039,0.
 09017752,-0.00168194,-0.00157248,-0.00062290,0.00035239,0.00143320,-0.
 00020811,-0.00201858,-0.00306931,-0.00045448,-0.00601507,-0.00241122,-
 0.00078409,0.21960549,0.65017888,-0.00025052,-0.00012255,0.00040691,0.
 00036321,0.00442072,-0.00178055,0.00177391,-0.00140235,-0.00238152,0.0
 0930932,-0.00376591,0.00216663,-0.00021282,-0.00004510,0.00017937,-0.0
 0117394,0.00031193,0.00063071,0.00010797,0.00003126,0.00019615,0.00305
 855,0.02137734,0.01851845,0.00102677,0.00006427,-0.00039488,-0.0001263
 5,0.00002375,0.00000969,0.00027813,-0.00063050,0.00045263,-0.00009008,
 0.00005072,-0.00001689,-0.00014718,-0.00008317,0.00006930,-0.00009716,
 -0.00013276,0.00014968,-0.00003655,0.00003856,0.00005438,0.00001206,-0
 .00010529,-0.00000014,-0.00065133,0.00015342,-0.00066371,-0.00749581,-
 0.00088330,-0.00371230,0.00003654,0.00001738,-0.00004846,-0.00614098,-
 0.00018787,0.00276599,0.00310173,-0.00009504,0.00065086,-0.00239022,0.
 00212359,0.00641470,0.00519581,0.00120150,0.01832358,0.02672835,0.0878
 7957,-0.09169168,0.00088776,0.00011499,-0.00256569,0.00000942,-0.00037
 606,-0.00025132,0.00149704,-0.00026757,-0.00412452,0.00104967,-0.00028
 000,-0.00127327,-0.03562327,-0.10943152,0.05791591\\-0.00000995,-0.000
 02885,-0.00002407,0.00000815,-0.00001290,-0.00000314,-0.00002529,0.000
 04309,0.00000303,-0.00000157,0.00000277,-0.00000869,-0.00000146,0.0000
 0464,-0.00000168,0.00003942,-0.00003057,0.00000152,0.00000288,-0.00000
 650,-0.00000611,0.00000946,-0.00001563,0.00001391,-0.00003486,0.000018
 37,0.00002059,-0.00000217,0.00000256,0.00000225,0.00001275,0.00001669,
 0.00002139,0.00000436,-0.00000988,-0.00000760,0.00000389,0.00000290,-0
 .00000053,0.00001040,0.00000592,-0.00000103,0.00000047,0.00000216,0.00
 000270,0.00000128,0.00000065,0.00000214,0.00000027,-0.00000135,-0.0000
 0515,0.00000103,-0.00000465,0.00000068,-0.00000703,-0.00000589,0.00000
 754,0.00001109,0.00000060,-0.00000086,-0.00003465,0.00001771,-0.000015
 64,-0.00003549,-0.00004119,0.00002491,0.00007402,0.00004391,0.00000143
 ,-0.00007798,-0.00005827,-0.00000795,0.00000223,-0.00000094,-0.0000003
 9,0.00001305,0.00000554,0.00000497,-0.00001549,-0.00001133,-0.00000426
 ,0.00002899,0.00000496,-0.00000685,0.00002221,0.00005548,-0.00001311\\
 \@
 The archive entry for this job was punched.


 THE TEST OF A FIRST RATE INTELLIGENCE IS THE ABILITY TO HOLD TWO OPPOSED
 IDEAS IN THE MIND AT THE SAME TIME, AND STILL RETAIN THE ABILITY TO FUNCTION.
 ONE SHOULD, FOR EXAMPLE, BE ABLE TO SEE THAT THINGS ARE HOPELESS AND YET BE
 DETERMINED TO MAKE THEM OTHERWISE.

                                                       -- F. SCOTT FITZGERALD
 Job cpu time:       0 days 10 hours 36 minutes 10.8 seconds.
 Elapsed time:       0 days  0 hours 16 minutes  2.6 seconds.
 File lengths (MBytes):  RWF=    632 Int=      0 D2E=      0 Chk=     21 Scr=      1
 Normal termination of Gaussian 16 at Thu Oct 24 14:44:55 2024.
