 Entering Gaussian System, Link 0=g16
 Input=UridineRNsrrgPBE0aVDZ.gjf
 Output=UridineRNsrrgPBE0aVDZ.log
 Initial command:
 /sw/contrib/chem-src/g16/c01/g16/l1.exe "/scr/Gau-65600.inp" -scrdir="/scr/"
 Entering Link 1 = /sw/contrib/chem-src/g16/c01/g16/l1.exe PID=     65601.
  
 Copyright (c) 1988-2019, Gaussian, Inc.  All Rights Reserved.
  
 This is part of the Gaussian(R) 16 program.  It is based on
 the Gaussian(R) 09 system (copyright 2009, Gaussian, Inc.),
 the Gaussian(R) 03 system (copyright 2003, Gaussian, Inc.),
 the Gaussian(R) 98 system (copyright 1998, Gaussian, Inc.),
 the Gaussian(R) 94 system (copyright 1995, Gaussian, Inc.),
 the Gaussian 92(TM) system (copyright 1992, Gaussian, Inc.),
 the Gaussian 90(TM) system (copyright 1990, Gaussian, Inc.),
 the Gaussian 88(TM) system (copyright 1988, Gaussian, Inc.),
 the Gaussian 86(TM) system (copyright 1986, Carnegie Mellon
 University), and the Gaussian 82(TM) system (copyright 1983,
 Carnegie Mellon University). Gaussian is a federally registered
 trademark of Gaussian, Inc.
  
 This software contains proprietary and confidential information,
 including trade secrets, belonging to Gaussian, Inc.
  
 This software is provided under written license and may be
 used, copied, transmitted, or stored only in accord with that
 written license.
  
 The following legend is applicable only to US Government
 contracts under FAR:
  
                    RESTRICTED RIGHTS LEGEND
  
 Use, reproduction and disclosure by the US Government is
 subject to restrictions as set forth in subparagraphs (a)
 and (c) of the Commercial Computer Software - Restricted
 Rights clause in FAR 52.227-19.
  
 Gaussian, Inc.
 340 Quinnipiac St., Bldg. 40, Wallingford CT 06492
  
  
 ---------------------------------------------------------------
 Warning -- This program may not be used in any manner that
 competes with the business of Gaussian, Inc. or will provide
 assistance to any competitor of Gaussian, Inc.  The licensee
 of this program is prohibited from giving any competitor of
 Gaussian, Inc. access to this program.  By using this program,
 the user acknowledges that Gaussian, Inc. is engaged in the
 business of creating and licensing software in the field of
 computational chemistry and represents and warrants to the
 licensee that it is not a competitor of Gaussian, Inc. and that
 it will not use this program in any manner prohibited above.
 ---------------------------------------------------------------
  

 Cite this work as:
 Gaussian 16, Revision C.01,
 M. J. Frisch, G. W. Trucks, H. B. Schlegel, G. E. Scuseria, 
 M. A. Robb, J. R. Cheeseman, G. Scalmani, V. Barone, 
 G. A. Petersson, H. Nakatsuji, X. Li, M. Caricato, A. V. Marenich, 
 J. Bloino, B. G. Janesko, R. Gomperts, B. Mennucci, H. P. Hratchian, 
 J. V. Ortiz, A. F. Izmaylov, J. L. Sonnenberg, D. Williams-Young, 
 F. Ding, F. Lipparini, F. Egidi, J. Goings, B. Peng, A. Petrone, 
 T. Henderson, D. Ranasinghe, V. G. Zakrzewski, J. Gao, N. Rega, 
 G. Zheng, W. Liang, M. Hada, M. Ehara, K. Toyota, R. Fukuda, 
 J. Hasegawa, M. Ishida, T. Nakajima, Y. Honda, O. Kitao, H. Nakai, 
 T. Vreven, K. Throssell, J. A. Montgomery, Jr., J. E. Peralta, 
 F. Ogliaro, M. J. Bearpark, J. J. Heyd, E. N. Brothers, K. N. Kudin, 
 V. N. Staroverov, T. A. Keith, R. Kobayashi, J. Normand, 
 K. Raghavachari, A. P. Rendell, J. C. Burant, S. S. Iyengar, 
 J. Tomasi, M. Cossi, J. M. Millam, M. Klene, C. Adamo, R. Cammi, 
 J. W. Ochterski, R. L. Martin, K. Morokuma, O. Farkas, 
 J. B. Foresman, and D. J. Fox, Gaussian, Inc., Wallingford CT, 2019.
 
 ******************************************
 Gaussian 16:  EM64L-G16RevC.01  3-Jul-2019
                26-Oct-2024 
 ******************************************
 %nprocshared=40
 Will use up to   40 processors via shared memory.
 %mem=50gb
 ------------------------------------------------------
 # PBE1PBE/aug-cc-pVDZ opt freq EmpiricalDispersion=GD3
 ------------------------------------------------------
 1/18=20,19=15,26=3,38=1/1,3;
 2/9=110,12=2,17=6,18=5,40=1/2;
 3/5=16,7=10,11=2,25=1,30=1,71=1,74=-13,124=31/1,2,3;
 4//1;
 5/5=2,38=5/2;
 6/7=2,8=2,9=2,10=2,28=1/1;
 7//1,2,3,16;
 1/18=20,19=15,26=3/3(2);
 2/9=110/2;
 99//99;
 2/9=110/2;
 3/5=16,7=10,11=2,25=1,30=1,71=1,74=-13,124=31/1,2,3;
 4/5=5,16=3,69=1/1;
 5/5=2,38=5/2;
 7//1,2,3,16;
 1/18=20,19=15,26=3/3(-5);
 2/9=110/2;
 6/7=2,8=2,9=2,10=2,19=2,28=1/1;
 99/9=1/99;
 ----
 blah
 ----
 Symbolic Z-matrix:
 Charge =  0 Multiplicity = 2
 C                    -2.24609  -0.01107   0.77493 
 C                    -1.25054  -1.17508   0.78515 
 C                    -0.32921  -0.87375  -0.41072 
 O                    -1.9413   -2.3877    0.54689 
 H                    -0.66651  -1.2401    1.71661 
 O                    -1.05539   0.09152  -1.22132 
 H                    -0.1545   -1.78412  -0.99434 
 N                     0.96188  -0.37109  -0.08826 
 C                    -2.35413   0.30276  -0.71178 
 H                    -1.83949   0.86356   1.30102 
 O                    -3.52628  -0.35652   1.2968 
 C                    -2.74455   1.73427  -1.02675 
 H                    -3.08837  -0.38946  -1.16546 
 O                    -1.80111   2.65531  -0.52129 
 H                    -3.71191   1.96028  -0.55633 
 H                    -2.85773   1.84287  -2.11947 
 H                    -3.51456  -0.20378   2.24543 
 H                    -2.83558  -2.25677   0.88964 
 H                    -0.93478   2.3331   -0.80701 
 C                     1.10724   0.75296   0.68281 
 C                     2.32412   1.259     0.95626 
 C                     3.5191    0.58751   0.41251 
 N                     3.34021  -0.5133   -0.37309 
 C                     2.1339   -1.01419  -0.65932 
 H                     0.18981   1.21658   1.048 
 H                     2.44584   2.1513    1.56745 
 O                     4.64432   1.04074   0.68136 
 O                     1.91653  -2.00301  -1.37178 
 

 GradGradGradGradGradGradGradGradGradGradGradGradGradGradGradGradGradGrad
 Berny optimization.
 Initialization pass.
                           ----------------------------
                           !    Initial Parameters    !
                           ! (Angstroms and Degrees)  !
 --------------------------                            --------------------------
 ! Name  Definition              Value          Derivative Info.                !
 --------------------------------------------------------------------------------
 ! R1    R(1,2)                  1.5317         estimate D2E/DX2                !
 ! R2    R(1,9)                  1.5233         estimate D2E/DX2                !
 ! R3    R(1,10)                 1.0987         estimate D2E/DX2                !
 ! R4    R(1,11)                 1.425          estimate D2E/DX2                !
 ! R5    R(2,3)                  1.5394         estimate D2E/DX2                !
 ! R6    R(2,4)                  1.4158         estimate D2E/DX2                !
 ! R7    R(2,5)                  1.1013         estimate D2E/DX2                !
 ! R8    R(3,6)                  1.4547         estimate D2E/DX2                !
 ! R9    R(3,7)                  1.0954         estimate D2E/DX2                !
 ! R10   R(3,8)                  1.4225         estimate D2E/DX2                !
 ! R11   R(4,18)                 0.9666         estimate D2E/DX2                !
 ! R12   R(6,9)                  1.411          estimate D2E/DX2                !
 ! R13   R(8,20)                 1.3708         estimate D2E/DX2                !
 ! R14   R(8,24)                 1.4537         estimate D2E/DX2                !
 ! R15   R(9,12)                 1.5169         estimate D2E/DX2                !
 ! R16   R(9,13)                 1.1064         estimate D2E/DX2                !
 ! R17   R(11,17)                0.9609         estimate D2E/DX2                !
 ! R18   R(12,14)                1.412          estimate D2E/DX2                !
 ! R19   R(12,15)                1.0992         estimate D2E/DX2                !
 ! R20   R(12,16)                1.1039         estimate D2E/DX2                !
 ! R21   R(14,19)                0.9675         estimate D2E/DX2                !
 ! R22   R(20,21)                1.346          estimate D2E/DX2                !
 ! R23   R(20,25)                1.0909         estimate D2E/DX2                !
 ! R24   R(21,22)                1.4746         estimate D2E/DX2                !
 ! R25   R(21,26)                1.0884         estimate D2E/DX2                !
 ! R26   R(22,23)                1.3642         estimate D2E/DX2                !
 ! R27   R(22,27)                1.2425         estimate D2E/DX2                !
 ! R28   R(23,24)                1.3372         estimate D2E/DX2                !
 ! R29   R(24,28)                1.238          estimate D2E/DX2                !
 ! A1    A(2,1,9)              102.0735         estimate D2E/DX2                !
 ! A2    A(2,1,10)             111.176          estimate D2E/DX2                !
 ! A3    A(2,1,11)             113.4062         estimate D2E/DX2                !
 ! A4    A(9,1,10)             109.2433         estimate D2E/DX2                !
 ! A5    A(9,1,11)             110.1            estimate D2E/DX2                !
 ! A6    A(10,1,11)            110.494          estimate D2E/DX2                !
 ! A7    A(1,2,3)              103.5954         estimate D2E/DX2                !
 ! A8    A(1,2,4)              109.43           estimate D2E/DX2                !
 ! A9    A(1,2,5)              113.277          estimate D2E/DX2                !
 ! A10   A(3,2,4)              109.2041         estimate D2E/DX2                !
 ! A11   A(3,2,5)              110.5605         estimate D2E/DX2                !
 ! A12   A(4,2,5)              110.5182         estimate D2E/DX2                !
 ! A13   A(2,3,6)              105.3074         estimate D2E/DX2                !
 ! A14   A(2,3,7)              110.2839         estimate D2E/DX2                !
 ! A15   A(2,3,8)              115.8662         estimate D2E/DX2                !
 ! A16   A(6,3,7)              109.5236         estimate D2E/DX2                !
 ! A17   A(6,3,8)              110.1767         estimate D2E/DX2                !
 ! A18   A(7,3,8)              105.6457         estimate D2E/DX2                !
 ! A19   A(2,4,18)             106.0038         estimate D2E/DX2                !
 ! A20   A(3,6,9)              110.9521         estimate D2E/DX2                !
 ! A21   A(3,8,20)             120.8968         estimate D2E/DX2                !
 ! A22   A(3,8,24)             119.1019         estimate D2E/DX2                !
 ! A23   A(20,8,24)            119.8818         estimate D2E/DX2                !
 ! A24   A(1,9,6)              104.8517         estimate D2E/DX2                !
 ! A25   A(1,9,12)             114.5404         estimate D2E/DX2                !
 ! A26   A(1,9,13)             108.5646         estimate D2E/DX2                !
 ! A27   A(6,9,12)             107.6504         estimate D2E/DX2                !
 ! A28   A(6,9,13)             111.6593         estimate D2E/DX2                !
 ! A29   A(12,9,13)            109.5418         estimate D2E/DX2                !
 ! A30   A(1,11,17)            108.183          estimate D2E/DX2                !
 ! A31   A(9,12,14)            111.6705         estimate D2E/DX2                !
 ! A32   A(9,12,15)            109.3723         estimate D2E/DX2                !
 ! A33   A(9,12,16)            108.9512         estimate D2E/DX2                !
 ! A34   A(14,12,15)           107.4997         estimate D2E/DX2                !
 ! A35   A(14,12,16)           111.0181         estimate D2E/DX2                !
 ! A36   A(15,12,16)           108.2513         estimate D2E/DX2                !
 ! A37   A(12,14,19)           105.9825         estimate D2E/DX2                !
 ! A38   A(8,20,21)            121.2265         estimate D2E/DX2                !
 ! A39   A(8,20,25)            116.5911         estimate D2E/DX2                !
 ! A40   A(21,20,25)           122.1781         estimate D2E/DX2                !
 ! A41   A(20,21,22)           119.1124         estimate D2E/DX2                !
 ! A42   A(20,21,26)           121.562          estimate D2E/DX2                !
 ! A43   A(22,21,26)           119.3256         estimate D2E/DX2                !
 ! A44   A(21,22,23)           118.2642         estimate D2E/DX2                !
 ! A45   A(21,22,27)           119.2082         estimate D2E/DX2                !
 ! A46   A(23,22,27)           122.5276         estimate D2E/DX2                !
 ! A47   A(22,23,24)           122.9459         estimate D2E/DX2                !
 ! A48   A(8,24,23)            118.5239         estimate D2E/DX2                !
 ! A49   A(8,24,28)            115.9666         estimate D2E/DX2                !
 ! A50   A(23,24,28)           125.5064         estimate D2E/DX2                !
 ! D1    D(9,1,2,3)             32.0939         estimate D2E/DX2                !
 ! D2    D(9,1,2,4)            -84.2758         estimate D2E/DX2                !
 ! D3    D(9,1,2,5)            151.9203         estimate D2E/DX2                !
 ! D4    D(10,1,2,3)           -84.2849         estimate D2E/DX2                !
 ! D5    D(10,1,2,4)           159.3454         estimate D2E/DX2                !
 ! D6    D(10,1,2,5)            35.5415         estimate D2E/DX2                !
 ! D7    D(11,1,2,3)           150.488          estimate D2E/DX2                !
 ! D8    D(11,1,2,4)            34.1184         estimate D2E/DX2                !
 ! D9    D(11,1,2,5)           -89.6856         estimate D2E/DX2                !
 ! D10   D(2,1,9,6)            -36.1523         estimate D2E/DX2                !
 ! D11   D(2,1,9,12)          -153.9215         estimate D2E/DX2                !
 ! D12   D(2,1,9,13)            83.3108         estimate D2E/DX2                !
 ! D13   D(10,1,9,6)            81.6184         estimate D2E/DX2                !
 ! D14   D(10,1,9,12)          -36.1508         estimate D2E/DX2                !
 ! D15   D(10,1,9,13)         -158.9185         estimate D2E/DX2                !
 ! D16   D(11,1,9,6)          -156.8731         estimate D2E/DX2                !
 ! D17   D(11,1,9,12)           85.3577         estimate D2E/DX2                !
 ! D18   D(11,1,9,13)          -37.41           estimate D2E/DX2                !
 ! D19   D(2,1,11,17)           88.8374         estimate D2E/DX2                !
 ! D20   D(9,1,11,17)         -157.515          estimate D2E/DX2                !
 ! D21   D(10,1,11,17)         -36.7547         estimate D2E/DX2                !
 ! D22   D(1,2,3,6)            -17.4222         estimate D2E/DX2                !
 ! D23   D(1,2,3,7)           -135.4926         estimate D2E/DX2                !
 ! D24   D(1,2,3,8)            104.5918         estimate D2E/DX2                !
 ! D25   D(4,2,3,6)             99.1067         estimate D2E/DX2                !
 ! D26   D(4,2,3,7)            -18.9637         estimate D2E/DX2                !
 ! D27   D(4,2,3,8)           -138.8794         estimate D2E/DX2                !
 ! D28   D(5,2,3,6)           -139.0864         estimate D2E/DX2                !
 ! D29   D(5,2,3,7)            102.8432         estimate D2E/DX2                !
 ! D30   D(5,2,3,8)            -17.0725         estimate D2E/DX2                !
 ! D31   D(1,2,4,18)           -28.9011         estimate D2E/DX2                !
 ! D32   D(3,2,4,18)          -141.6575         estimate D2E/DX2                !
 ! D33   D(5,2,4,18)            96.51           estimate D2E/DX2                !
 ! D34   D(2,3,6,9)             -5.567          estimate D2E/DX2                !
 ! D35   D(7,3,6,9)            113.0141         estimate D2E/DX2                !
 ! D36   D(8,3,6,9)           -131.1914         estimate D2E/DX2                !
 ! D37   D(2,3,8,20)           -55.529          estimate D2E/DX2                !
 ! D38   D(2,3,8,24)           128.4507         estimate D2E/DX2                !
 ! D39   D(6,3,8,20)            63.8601         estimate D2E/DX2                !
 ! D40   D(6,3,8,24)          -112.1602         estimate D2E/DX2                !
 ! D41   D(7,3,8,20)          -177.9328         estimate D2E/DX2                !
 ! D42   D(7,3,8,24)             6.0469         estimate D2E/DX2                !
 ! D43   D(3,6,9,1)             26.5337         estimate D2E/DX2                !
 ! D44   D(3,6,9,12)           148.8975         estimate D2E/DX2                !
 ! D45   D(3,6,9,13)           -90.8346         estimate D2E/DX2                !
 ! D46   D(3,8,20,21)         -177.839          estimate D2E/DX2                !
 ! D47   D(3,8,20,25)            1.4197         estimate D2E/DX2                !
 ! D48   D(24,8,20,21)          -1.8495         estimate D2E/DX2                !
 ! D49   D(24,8,20,25)         177.4092         estimate D2E/DX2                !
 ! D50   D(3,8,24,23)          178.4828         estimate D2E/DX2                !
 ! D51   D(3,8,24,28)           -2.1131         estimate D2E/DX2                !
 ! D52   D(20,8,24,23)           2.4212         estimate D2E/DX2                !
 ! D53   D(20,8,24,28)        -178.1747         estimate D2E/DX2                !
 ! D54   D(1,9,12,14)           60.5425         estimate D2E/DX2                !
 ! D55   D(1,9,12,15)          -58.3196         estimate D2E/DX2                !
 ! D56   D(1,9,12,16)         -176.467          estimate D2E/DX2                !
 ! D57   D(6,9,12,14)          -55.6232         estimate D2E/DX2                !
 ! D58   D(6,9,12,15)         -174.4853         estimate D2E/DX2                !
 ! D59   D(6,9,12,16)           67.3673         estimate D2E/DX2                !
 ! D60   D(13,9,12,14)        -177.2195         estimate D2E/DX2                !
 ! D61   D(13,9,12,15)          63.9184         estimate D2E/DX2                !
 ! D62   D(13,9,12,16)         -54.229          estimate D2E/DX2                !
 ! D63   D(9,12,14,19)          49.0831         estimate D2E/DX2                !
 ! D64   D(15,12,14,19)        169.0524         estimate D2E/DX2                !
 ! D65   D(16,12,14,19)        -72.7228         estimate D2E/DX2                !
 ! D66   D(8,20,21,22)           0.0403         estimate D2E/DX2                !
 ! D67   D(8,20,21,26)         179.9746         estimate D2E/DX2                !
 ! D68   D(25,20,21,22)       -179.1765         estimate D2E/DX2                !
 ! D69   D(25,20,21,26)          0.7578         estimate D2E/DX2                !
 ! D70   D(20,21,22,23)          1.2448         estimate D2E/DX2                !
 ! D71   D(20,21,22,27)       -178.8644         estimate D2E/DX2                !
 ! D72   D(26,21,22,23)       -178.691          estimate D2E/DX2                !
 ! D73   D(26,21,22,27)          1.1998         estimate D2E/DX2                !
 ! D74   D(21,22,23,24)         -0.6434         estimate D2E/DX2                !
 ! D75   D(27,22,23,24)        179.4697         estimate D2E/DX2                !
 ! D76   D(22,23,24,8)          -1.1354         estimate D2E/DX2                !
 ! D77   D(22,23,24,28)        179.5227         estimate D2E/DX2                !
 --------------------------------------------------------------------------------
 Trust Radius=3.00D-01 FncErr=1.00D-07 GrdErr=1.00D-06 EigMax=2.50D+02 EigMin=1.00D-04
 Number of steps in this run=    166 maximum allowed number of steps=    168.
 GradGradGradGradGradGradGradGradGradGradGradGradGradGradGradGradGradGrad

                          Input orientation:                          
 ---------------------------------------------------------------------
 Center     Atomic      Atomic             Coordinates (Angstroms)
 Number     Number       Type             X           Y           Z
 ---------------------------------------------------------------------
      1          6           0       -2.246094   -0.011066    0.774933
      2          6           0       -1.250538   -1.175077    0.785152
      3          6           0       -0.329210   -0.873748   -0.410719
      4          8           0       -1.941302   -2.387698    0.546888
      5          1           0       -0.666507   -1.240097    1.716614
      6          8           0       -1.055389    0.091518   -1.221319
      7          1           0       -0.154499   -1.784122   -0.994344
      8          7           0        0.961881   -0.371087   -0.088255
      9          6           0       -2.354129    0.302758   -0.711780
     10          1           0       -1.839491    0.863555    1.301016
     11          8           0       -3.526281   -0.356515    1.296803
     12          6           0       -2.744554    1.734273   -1.026750
     13          1           0       -3.088372   -0.389464   -1.165460
     14          8           0       -1.801109    2.655309   -0.521294
     15          1           0       -3.711914    1.960282   -0.556326
     16          1           0       -2.857732    1.842867   -2.119474
     17          1           0       -3.514557   -0.203783    2.245425
     18          1           0       -2.835579   -2.256767    0.889643
     19          1           0       -0.934775    2.333096   -0.807013
     20          6           0        1.107237    0.752959    0.682810
     21          6           0        2.324123    1.258999    0.956258
     22          6           0        3.519095    0.587514    0.412510
     23          7           0        3.340210   -0.513301   -0.373085
     24          6           0        2.133905   -1.014187   -0.659315
     25          1           0        0.189808    1.216579    1.047999
     26          1           0        2.445835    2.151304    1.567449
     27          8           0        4.644322    1.040737    0.681355
     28          8           0        1.916526   -2.003012   -1.371776
 ---------------------------------------------------------------------
                    Distance matrix (angstroms):
                    1          2          3          4          5
     1  C    0.000000
     2  C    1.531717   0.000000
     3  C    2.413387   1.539400   0.000000
     4  O    2.406924   1.415759   2.409958   0.000000
     5  H    2.211871   1.101336   2.184840   2.076138   0.000000
     6  O    2.326655   2.380813   1.454698   3.171421   3.248981
     7  H    3.263256   2.176888   1.095410   2.435645   2.812011
     8  N    3.341528   2.510784   1.422521   3.591462   2.581546
     9  C    1.523310   2.375440   2.361165   2.998871   3.335501
    10  H    1.098659   2.183804   2.868659   3.339120   2.444170
    11  O    1.424978   2.472011   3.661205   2.683325   3.022460
    12  C    2.557486   3.738902   3.607652   4.484662   4.548758
    13  H    2.148893   2.792796   2.901231   2.870687   3.859450
    14  O    2.997961   4.084334   3.825305   5.156800   4.633545
    15  H    2.794117   4.205759   4.415384   4.822559   4.968218
    16  H    3.491241   4.486414   4.085739   5.083996   5.387180
    17  H    1.951534   2.863842   4.201237   3.182710   3.076520
    18  H    2.324613   1.921803   3.144132   0.966621   2.534240
    19  H    3.117243   3.865485   3.287492   5.013187   4.382735
    20  C    3.440501   3.047441   2.430095   4.379017   2.861327
    21  C    4.746876   4.328072   3.668435   5.626707   3.970830
    22  C    5.807500   5.098528   4.197909   6.219797   4.749749
    23  N    5.725118   4.780630   3.687273   5.679268   4.576992
    24  C    4.716748   3.683317   2.479609   4.466405   3.679454
    25  H    2.741404   2.804230   2.601289   4.217055   2.686183
    26  H    5.226674   5.033882   4.556859   6.394611   4.605488
    27  O    6.970859   6.298411   5.440027   7.425813   5.871871
    28  O    5.089559   3.920218   2.691133   4.325748   4.097835
                    6          7          8          9         10
     6  O    0.000000
     7  H    2.093119   0.000000
     8  N    2.359495   2.015929   0.000000
     9  C    1.411020   3.045207   3.440752   0.000000
    10  H    2.751914   3.888196   3.361860   2.151905   0.000000
    11  O    3.556259   4.319297   4.697041   2.417227   2.081790
    12  C    2.364271   4.369043   4.364742   1.516863   2.644954
    13  H    2.089853   3.252993   4.191093   1.106395   3.035336
    14  O    2.760282   4.758534   4.120766   2.424172   2.555909
    15  H    3.315361   5.183399   5.243923   2.148286   2.856308
    16  H    2.668772   4.661377   4.859721   2.146428   3.700759
    17  H    4.260637   4.927836   5.050995   3.216868   2.199310
    18  H    3.624870   3.310739   4.351181   3.057371   3.301186
    19  H    2.282733   4.194688   3.380314   2.479094   2.724307
    20  C    2.956377   3.292659   1.370821   3.758805   3.012908
    21  C    4.186401   4.382807   2.367254   5.057943   4.196536
    22  C    4.882757   4.593385   2.776513   5.986641   5.438758
    23  N    4.517366   3.770138   2.399542   5.762479   5.614949
    24  C    3.421992   2.437588   1.453729   4.677558   4.812140
    25  H    2.822425   3.646083   2.099489   3.225447   2.075259
    26  H    4.927323   5.367690   3.362429   5.625981   4.482555
    27  O    6.083411   5.815194   4.018198   7.173824   6.515766
    28  O    3.638952   2.116486   2.285159   4.898027   5.428507
                   11         12         13         14         15
    11  O    0.000000
    12  C    3.222016   0.000000
    13  H    2.501118   2.155855   0.000000
    14  O    3.918262   1.412049   3.367883   0.000000
    15  H    2.972557   1.099165   2.506223   2.033584   0.000000
    16  H    4.117668   1.103924   2.438573   2.081032   1.785174
    17  H    0.960910   3.880218   3.442419   4.331864   3.545693
    18  H    2.062476   4.428233   2.788220   5.214342   4.543379
    19  H    4.286718   1.918899   3.489813   0.967466   2.813243
    20  C    4.803895   4.326877   4.724867   3.677945   5.120284
    21  C    6.078905   5.463487   6.042700   4.598954   6.262064
    22  C    7.163134   6.528386   6.863169   5.783800   7.423653
    23  N    7.068367   6.519449   6.478415   6.041127   7.475603
    24  C    6.024669   5.611453   5.283809   5.382247   6.559853
    25  H    4.043000   3.630850   4.269103   2.914854   4.283735
    26  H    6.482945   5.817553   6.674709   4.759559   6.516501
    27  O    8.312030   7.615386   8.077794   6.752539   8.497299
    28  O    6.281434   5.984314   5.262614   6.020306   6.931955
                   16         17         18         19         20
    16  H    0.000000
    17  H    4.865443   0.000000
    18  H    5.085497   2.552234   0.000000
    19  H    2.379210   4.733752   5.249623   0.000000
    20  C    4.976110   4.971730   4.964577   2.980976   0.000000
    21  C    6.054143   6.155637   6.244003   3.857878   1.345980
    22  C    6.975011   7.311497   6.978501   4.936725   2.432590
    23  N    6.856813   7.344401   6.540224   5.154199   2.775698
    24  C    5.933908   6.403077   5.351546   4.543447   2.445026
    25  H    4.439890   4.144102   4.608923   2.439747   1.090863
    26  H    6.466557   6.444560   6.912586   4.135171   2.128333
    27  O    8.047911   8.400146   8.177153   5.917073   3.548773
    28  O    6.176032   6.768902   5.268862   5.220221   3.531522
                   21         22         23         24         25
    21  C    0.000000
    22  C    1.474623   0.000000
    23  N    2.437341   1.364168   0.000000
    24  C    2.795288   2.373396   1.337156   0.000000
    25  H    2.136707   3.447277   3.864841   3.416248   0.000000
    26  H    1.088382   2.220633   3.415509   3.882797   2.496637
    27  O    2.346600   1.242507   2.286391   3.510314   4.473035
    28  O    4.028225   3.530259   2.289869   1.237994   4.382081
                   26         27         28
    26  H    0.000000
    27  O    2.617607   0.000000
    28  O    5.116400   4.573907   0.000000
 Stoichiometry    C9H11N2O6(2)
 Framework group  C1[X(C9H11N2O6)]
 Deg. of freedom    78
 Full point group                 C1      NOp   1
 Largest Abelian subgroup         C1      NOp   1
 Largest concise Abelian subgroup C1      NOp   1
                         Standard orientation:                         
 ---------------------------------------------------------------------
 Center     Atomic      Atomic             Coordinates (Angstroms)
 Number     Number       Type             X           Y           Z
 ---------------------------------------------------------------------
      1          6           0        2.246094   -0.011066   -0.774933
      2          6           0        1.250538   -1.175077   -0.785152
      3          6           0        0.329210   -0.873748    0.410719
      4          8           0        1.941302   -2.387698   -0.546888
      5          1           0        0.666507   -1.240097   -1.716614
      6          8           0        1.055389    0.091518    1.221319
      7          1           0        0.154499   -1.784122    0.994344
      8          7           0       -0.961881   -0.371087    0.088255
      9          6           0        2.354129    0.302758    0.711780
     10          1           0        1.839491    0.863555   -1.301016
     11          8           0        3.526281   -0.356515   -1.296803
     12          6           0        2.744554    1.734273    1.026750
     13          1           0        3.088372   -0.389464    1.165460
     14          8           0        1.801109    2.655309    0.521294
     15          1           0        3.711914    1.960282    0.556326
     16          1           0        2.857732    1.842867    2.119474
     17          1           0        3.514557   -0.203783   -2.245425
     18          1           0        2.835579   -2.256767   -0.889643
     19          1           0        0.934775    2.333096    0.807013
     20          6           0       -1.107237    0.752959   -0.682810
     21          6           0       -2.324123    1.258999   -0.956258
     22          6           0       -3.519095    0.587514   -0.412510
     23          7           0       -3.340210   -0.513301    0.373085
     24          6           0       -2.133905   -1.014187    0.659315
     25          1           0       -0.189808    1.216579   -1.047999
     26          1           0       -2.445835    2.151304   -1.567449
     27          8           0       -4.644322    1.040737   -0.681355
     28          8           0       -1.916526   -2.003012    1.371776
 ---------------------------------------------------------------------
 Rotational constants (GHZ):           0.8301527           0.3036021           0.2642832
 Standard basis: Aug-CC-pVDZ (5D, 7F)
 There are   524 symmetry adapted cartesian basis functions of A   symmetry.
 There are   490 symmetry adapted basis functions of A   symmetry.
   490 basis functions,   852 primitive gaussians,   524 cartesian basis functions
    64 alpha electrons       63 beta electrons
       nuclear repulsion energy      1299.3776944173 Hartrees.
 NAtoms=   28 NActive=   28 NUniq=   28 SFac= 1.00D+00 NAtFMM=   60 NAOKFM=F Big=F
 Integral buffers will be    131072 words long.
 Raffenetti 2 integral format.
 Two-electron integral symmetry is turned on.
 Nuclear repulsion after empirical dispersion term =     1299.3582542309 Hartrees.
 One-electron integrals computed using PRISM.
 NBasis=   490 RedAO= T EigKep=  3.14D-06  NBF=   490
 NBsUse=   490 1.00D-06 EigRej= -1.00D+00 NBFU=   490
 ExpMin= 2.97D-02 ExpMax= 1.17D+04 ExpMxC= 4.01D+02 IAcc=3 IRadAn=         5 AccDes= 0.00D+00
 Harris functional with IExCor= 1009 and IRadAn=       5 diagonalized for initial guess.
 HarFok:  IExCor= 1009 AccDes= 0.00D+00 IRadAn=         5 IDoV= 1 UseB2=F ITyADJ=14
 ICtDFT=  3500011 ScaDFX=  1.000000  1.000000  1.000000  1.000000
 FoFCou: FMM=F IPFlag=           0 FMFlag=      100000 FMFlg1=           0
         NFxFlg=           0 DoJE=T BraDBF=F KetDBF=T FulRan=T
         wScrn=  0.000000 ICntrl=       500 IOpCl=  0 I1Cent=   200000004 NGrid=           0
         NMat0=    1 NMatS0=      1 NMatT0=    0 NMatD0=    1 NMtDS0=    0 NMtDT0=    0
 Petite list used in FoFCou.
 Initial guess <Sx>= 0.0000 <Sy>= 0.0000 <Sz>= 0.5000 <S**2>= 0.7500 S= 0.5000
 Requested convergence on RMS density matrix=1.00D-08 within 128 cycles.
 Requested convergence on MAX density matrix=1.00D-06.
 Requested convergence on             energy=1.00D-06.
 No special actions if energy rises.
 Restarting incremental Fock formation.
 SCF Done:  E(UPBE1PBE) =  -909.499428251     A.U. after   40 cycles
            NFock= 40  Conv=0.90D-08     -V/T= 2.0055
 <Sx>= 0.0000 <Sy>= 0.0000 <Sz>= 0.5000 <S**2>= 0.7586 S= 0.5043
 <L.S>= 0.000000000000E+00
 Annihilation of the first spin contaminant:
 S**2 before annihilation     0.7586,   after     0.7501

 **********************************************************************

            Population analysis using the SCF Density.

 **********************************************************************

 Orbital symmetries:
 Alpha Orbitals:
       Occupied  (A) (A) (A) (A) (A) (A) (A) (A) (A) (A) (A) (A)
                 (A) (A) (A) (A) (A) (A) (A) (A) (A) (A) (A) (A)
                 (A) (A) (A) (A) (A) (A) (A) (A) (A) (A) (A) (A)
                 (A) (A) (A) (A) (A) (A) (A) (A) (A) (A) (A) (A)
                 (A) (A) (A) (A) (A) (A) (A) (A) (A) (A) (A) (A)
                 (A) (A) (A) (A)
       Virtual   (A) (A) (A) (A) (A) (A) (A) (A) (A) (A) (A) (A)
                 (A) (A) (A) (A) (A) (A) (A) (A) (A) (A) (A) (A)
                 (A) (A) (A) (A) (A) (A) (A) (A) (A) (A) (A) (A)
                 (A) (A) (A) (A) (A) (A) (A) (A) (A) (A) (A) (A)
                 (A) (A) (A) (A) (A) (A) (A) (A) (A) (A) (A) (A)
                 (A) (A) (A) (A) (A) (A) (A) (A) (A) (A) (A) (A)
                 (A) (A) (A) (A) (A) (A) (A) (A) (A) (A) (A) (A)
                 (A) (A) (A) (A) (A) (A) (A) (A) (A) (A) (A) (A)
                 (A) (A) (A) (A) (A) (A) (A) (A) (A) (A) (A) (A)
                 (A) (A) (A) (A) (A) (A) (A) (A) (A) (A) (A) (A)
                 (A) (A) (A) (A) (A) (A) (A) (A) (A) (A) (A) (A)
                 (A) (A) (A) (A) (A) (A) (A) (A) (A) (A) (A) (A)
                 (A) (A) (A) (A) (A) (A) (A) (A) (A) (A) (A) (A)
                 (A) (A) (A) (A) (A) (A) (A) (A) (A) (A) (A) (A)
                 (A) (A) (A) (A) (A) (A) (A) (A) (A) (A) (A) (A)
                 (A) (A) (A) (A) (A) (A) (A) (A) (A) (A) (A) (A)
                 (A) (A) (A) (A) (A) (A) (A) (A) (A) (A) (A) (A)
                 (A) (A) (A) (A) (A) (A) (A) (A) (A) (A) (A) (A)
                 (A) (A) (A) (A) (A) (A) (A) (A) (A) (A) (A) (A)
                 (A) (A) (A) (A) (A) (A) (A) (A) (A) (A) (A) (A)
                 (A) (A) (A) (A) (A) (A) (A) (A) (A) (A) (A) (A)
                 (A) (A) (A) (A) (A) (A) (A) (A) (A) (A) (A) (A)
                 (A) (A) (A) (A) (A) (A) (A) (A) (A) (A) (A) (A)
                 (A) (A) (A) (A) (A) (A) (A) (A) (A) (A) (A) (A)
                 (A) (A) (A) (A) (A) (A) (A) (A) (A) (A) (A) (A)
                 (A) (A) (A) (A) (A) (A) (A) (A) (A) (A) (A) (A)
                 (A) (A) (A) (A) (A) (A) (A) (A) (A) (A) (A) (A)
                 (A) (A) (A) (A) (A) (A) (A) (A) (A) (A) (A) (A)
                 (A) (A) (A) (A) (A) (A) (A) (A) (A) (A) (A) (A)
                 (A) (A) (A) (A) (A) (A) (A) (A) (A) (A) (A) (A)
                 (A) (A) (A) (A) (A) (A) (A) (A) (A) (A) (A) (A)
                 (A) (A) (A) (A) (A) (A) (A) (A) (A) (A) (A) (A)
                 (A) (A) (A) (A) (A) (A) (A) (A) (A) (A) (A) (A)
                 (A) (A) (A) (A) (A) (A) (A) (A) (A) (A) (A) (A)
                 (A) (A) (A) (A) (A) (A) (A) (A) (A) (A) (A) (A)
                 (A) (A) (A) (A) (A) (A)
 Beta  Orbitals:
       Occupied  (A) (A) (A) (A) (A) (A) (A) (A) (A) (A) (A) (A)
                 (A) (A) (A) (A) (A) (A) (A) (A) (A) (A) (A) (A)
                 (A) (A) (A) (A) (A) (A) (A) (A) (A) (A) (A) (A)
                 (A) (A) (A) (A) (A) (A) (A) (A) (A) (A) (A) (A)
                 (A) (A) (A) (A) (A) (A) (A) (A) (A) (A) (A) (A)
                 (A) (A) (A)
       Virtual   (A) (A) (A) (A) (A) (A) (A) (A) (A) (A) (A) (A)
                 (A) (A) (A) (A) (A) (A) (A) (A) (A) (A) (A) (A)
                 (A) (A) (A) (A) (A) (A) (A) (A) (A) (A) (A) (A)
                 (A) (A) (A) (A) (A) (A) (A) (A) (A) (A) (A) (A)
                 (A) (A) (A) (A) (A) (A) (A) (A) (A) (A) (A) (A)
                 (A) (A) (A) (A) (A) (A) (A) (A) (A) (A) (A) (A)
                 (A) (A) (A) (A) (A) (A) (A) (A) (A) (A) (A) (A)
                 (A) (A) (A) (A) (A) (A) (A) (A) (A) (A) (A) (A)
                 (A) (A) (A) (A) (A) (A) (A) (A) (A) (A) (A) (A)
                 (A) (A) (A) (A) (A) (A) (A) (A) (A) (A) (A) (A)
                 (A) (A) (A) (A) (A) (A) (A) (A) (A) (A) (A) (A)
                 (A) (A) (A) (A) (A) (A) (A) (A) (A) (A) (A) (A)
                 (A) (A) (A) (A) (A) (A) (A) (A) (A) (A) (A) (A)
                 (A) (A) (A) (A) (A) (A) (A) (A) (A) (A) (A) (A)
                 (A) (A) (A) (A) (A) (A) (A) (A) (A) (A) (A) (A)
                 (A) (A) (A) (A) (A) (A) (A) (A) (A) (A) (A) (A)
                 (A) (A) (A) (A) (A) (A) (A) (A) (A) (A) (A) (A)
                 (A) (A) (A) (A) (A) (A) (A) (A) (A) (A) (A) (A)
                 (A) (A) (A) (A) (A) (A) (A) (A) (A) (A) (A) (A)
                 (A) (A) (A) (A) (A) (A) (A) (A) (A) (A) (A) (A)
                 (A) (A) (A) (A) (A) (A) (A) (A) (A) (A) (A) (A)
                 (A) (A) (A) (A) (A) (A) (A) (A) (A) (A) (A) (A)
                 (A) (A) (A) (A) (A) (A) (A) (A) (A) (A) (A) (A)
                 (A) (A) (A) (A) (A) (A) (A) (A) (A) (A) (A) (A)
                 (A) (A) (A) (A) (A) (A) (A) (A) (A) (A) (A) (A)
                 (A) (A) (A) (A) (A) (A) (A) (A) (A) (A) (A) (A)
                 (A) (A) (A) (A) (A) (A) (A) (A) (A) (A) (A) (A)
                 (A) (A) (A) (A) (A) (A) (A) (A) (A) (A) (A) (A)
                 (A) (A) (A) (A) (A) (A) (A) (A) (A) (A) (A) (A)
                 (A) (A) (A) (A) (A) (A) (A) (A) (A) (A) (A) (A)
                 (A) (A) (A) (A) (A) (A) (A) (A) (A) (A) (A) (A)
                 (A) (A) (A) (A) (A) (A) (A) (A) (A) (A) (A) (A)
                 (A) (A) (A) (A) (A) (A) (A) (A) (A) (A) (A) (A)
                 (A) (A) (A) (A) (A) (A) (A) (A) (A) (A) (A) (A)
                 (A) (A) (A) (A) (A) (A) (A) (A) (A) (A) (A) (A)
                 (A) (A) (A) (A) (A) (A) (A)
 The electronic state is 2-A.
 Alpha  occ. eigenvalues --  -19.29865 -19.28252 -19.27067 -19.25084 -19.24822
 Alpha  occ. eigenvalues --  -19.22419 -14.49251 -14.43294 -10.38840 -10.38780
 Alpha  occ. eigenvalues --  -10.34877 -10.34225 -10.32479 -10.32177 -10.31126
 Alpha  occ. eigenvalues --  -10.29932 -10.29908  -1.14932  -1.13532  -1.11391
 Alpha  occ. eigenvalues --   -1.10341  -1.08108  -1.07419  -1.02796  -0.96803
 Alpha  occ. eigenvalues --   -0.86213  -0.83243  -0.80745  -0.73969  -0.71404
 Alpha  occ. eigenvalues --   -0.69169  -0.66411  -0.64035  -0.61572  -0.60589
 Alpha  occ. eigenvalues --   -0.58263  -0.56305  -0.54639  -0.54092  -0.52761
 Alpha  occ. eigenvalues --   -0.51221  -0.50819  -0.50307  -0.50052  -0.48748
 Alpha  occ. eigenvalues --   -0.48111  -0.45950  -0.45678  -0.44559  -0.43106
 Alpha  occ. eigenvalues --   -0.41679  -0.40298  -0.39374  -0.39041  -0.38419
 Alpha  occ. eigenvalues --   -0.37863  -0.34567  -0.32953  -0.32728  -0.32012
 Alpha  occ. eigenvalues --   -0.31481  -0.31205  -0.30359  -0.28714
 Alpha virt. eigenvalues --   -0.07287  -0.03282  -0.01922  -0.01257  -0.00021
 Alpha virt. eigenvalues --    0.00707   0.01669   0.01867   0.02442   0.03197
 Alpha virt. eigenvalues --    0.03482   0.04511   0.04714   0.05460   0.05800
 Alpha virt. eigenvalues --    0.05973   0.06731   0.06859   0.07390   0.07538
 Alpha virt. eigenvalues --    0.08101   0.08529   0.08804   0.08953   0.09252
 Alpha virt. eigenvalues --    0.09715   0.10210   0.10405   0.10949   0.11002
 Alpha virt. eigenvalues --    0.11173   0.11629   0.11792   0.12111   0.12536
 Alpha virt. eigenvalues --    0.12896   0.13212   0.13351   0.13903   0.14202
 Alpha virt. eigenvalues --    0.14801   0.15402   0.15608   0.16121   0.16326
 Alpha virt. eigenvalues --    0.16701   0.17022   0.17712   0.17819   0.17875
 Alpha virt. eigenvalues --    0.18232   0.18842   0.19246   0.19748   0.20010
 Alpha virt. eigenvalues --    0.20840   0.21246   0.21603   0.21996   0.22099
 Alpha virt. eigenvalues --    0.22179   0.22736   0.23209   0.23499   0.23811
 Alpha virt. eigenvalues --    0.24039   0.24319   0.25015   0.25102   0.25447
 Alpha virt. eigenvalues --    0.25787   0.26014   0.26132   0.26797   0.27081
 Alpha virt. eigenvalues --    0.27697   0.27998   0.28215   0.28473   0.28897
 Alpha virt. eigenvalues --    0.29093   0.29483   0.29546   0.30312   0.30474
 Alpha virt. eigenvalues --    0.30820   0.30906   0.31579   0.32063   0.32323
 Alpha virt. eigenvalues --    0.32461   0.32882   0.33412   0.33701   0.34032
 Alpha virt. eigenvalues --    0.35102   0.35420   0.36341   0.36427   0.36733
 Alpha virt. eigenvalues --    0.37202   0.37660   0.38400   0.38779   0.39049
 Alpha virt. eigenvalues --    0.39341   0.40137   0.40301   0.41205   0.41396
 Alpha virt. eigenvalues --    0.41980   0.42443   0.42590   0.43256   0.44492
 Alpha virt. eigenvalues --    0.44761   0.45025   0.45391   0.45720   0.46173
 Alpha virt. eigenvalues --    0.46740   0.47406   0.48606   0.49175   0.50074
 Alpha virt. eigenvalues --    0.50261   0.51024   0.51642   0.52234   0.52638
 Alpha virt. eigenvalues --    0.53123   0.53839   0.54026   0.54795   0.54922
 Alpha virt. eigenvalues --    0.55532   0.55935   0.56293   0.57056   0.57751
 Alpha virt. eigenvalues --    0.58383   0.58986   0.59642   0.60151   0.60380
 Alpha virt. eigenvalues --    0.60645   0.61248   0.61452   0.62132   0.62577
 Alpha virt. eigenvalues --    0.62976   0.64130   0.64380   0.64871   0.65385
 Alpha virt. eigenvalues --    0.65844   0.66287   0.67252   0.67486   0.67892
 Alpha virt. eigenvalues --    0.68412   0.68898   0.69672   0.70023   0.70378
 Alpha virt. eigenvalues --    0.71539   0.72093   0.72245   0.72639   0.73150
 Alpha virt. eigenvalues --    0.74140   0.74661   0.75021   0.75528   0.76665
 Alpha virt. eigenvalues --    0.77049   0.77701   0.78231   0.78623   0.79408
 Alpha virt. eigenvalues --    0.79966   0.80914   0.81403   0.82156   0.82328
 Alpha virt. eigenvalues --    0.82738   0.83449   0.85254   0.85313   0.86622
 Alpha virt. eigenvalues --    0.87383   0.87933   0.88426   0.89755   0.90122
 Alpha virt. eigenvalues --    0.90825   0.91030   0.92130   0.92981   0.94096
 Alpha virt. eigenvalues --    0.95134   0.95511   0.96796   0.97722   0.98580
 Alpha virt. eigenvalues --    0.98886   1.00472   1.00843   1.01557   1.02246
 Alpha virt. eigenvalues --    1.02522   1.03323   1.04027   1.05374   1.05546
 Alpha virt. eigenvalues --    1.06970   1.07242   1.08157   1.10365   1.10984
 Alpha virt. eigenvalues --    1.12395   1.13526   1.14423   1.15139   1.15566
 Alpha virt. eigenvalues --    1.16772   1.16952   1.17290   1.18657   1.20088
 Alpha virt. eigenvalues --    1.20555   1.21046   1.21132   1.22076   1.23666
 Alpha virt. eigenvalues --    1.24602   1.25739   1.26080   1.27100   1.27757
 Alpha virt. eigenvalues --    1.29284   1.31539   1.31894   1.32715   1.33046
 Alpha virt. eigenvalues --    1.34265   1.34345   1.37121   1.38085   1.38740
 Alpha virt. eigenvalues --    1.40367   1.41026   1.41452   1.42807   1.43360
 Alpha virt. eigenvalues --    1.44307   1.46458   1.46899   1.47549   1.48200
 Alpha virt. eigenvalues --    1.49431   1.49872   1.50731   1.51764   1.52809
 Alpha virt. eigenvalues --    1.53171   1.53913   1.54836   1.55963   1.56368
 Alpha virt. eigenvalues --    1.57706   1.57939   1.59634   1.60691   1.61133
 Alpha virt. eigenvalues --    1.62269   1.63524   1.64624   1.65651   1.67645
 Alpha virt. eigenvalues --    1.68231   1.69486   1.69871   1.70713   1.71384
 Alpha virt. eigenvalues --    1.71834   1.72938   1.73882   1.74795   1.76339
 Alpha virt. eigenvalues --    1.77596   1.78155   1.78760   1.79784   1.80561
 Alpha virt. eigenvalues --    1.81344   1.82382   1.82945   1.84123   1.85558
 Alpha virt. eigenvalues --    1.86213   1.86818   1.87349   1.89625   1.90205
 Alpha virt. eigenvalues --    1.90566   1.91941   1.93039   1.93721   1.94860
 Alpha virt. eigenvalues --    1.95385   1.98340   1.99555   2.00354   2.01327
 Alpha virt. eigenvalues --    2.02641   2.03696   2.03936   2.04279   2.05662
 Alpha virt. eigenvalues --    2.07835   2.08253   2.10342   2.11888   2.12409
 Alpha virt. eigenvalues --    2.13517   2.15060   2.16147   2.16700   2.17861
 Alpha virt. eigenvalues --    2.18583   2.19694   2.21347   2.22109   2.24124
 Alpha virt. eigenvalues --    2.25022   2.26657   2.28258   2.29476   2.30784
 Alpha virt. eigenvalues --    2.31407   2.33328   2.33932   2.35081   2.37199
 Alpha virt. eigenvalues --    2.39288   2.40114   2.40985   2.41880   2.42580
 Alpha virt. eigenvalues --    2.43496   2.44293   2.47141   2.50021   2.50743
 Alpha virt. eigenvalues --    2.51508   2.53442   2.55076   2.57414   2.58774
 Alpha virt. eigenvalues --    2.59876   2.62322   2.62778   2.63813   2.64575
 Alpha virt. eigenvalues --    2.65555   2.66816   2.69542   2.71595   2.73033
 Alpha virt. eigenvalues --    2.73532   2.75699   2.78109   2.81114   2.83046
 Alpha virt. eigenvalues --    2.84347   2.86090   2.87434   2.88275   2.92868
 Alpha virt. eigenvalues --    2.95962   3.00105   3.01007   3.09006   3.12867
 Alpha virt. eigenvalues --    3.15071   3.19122   3.23422   3.29640   3.30499
 Alpha virt. eigenvalues --    3.33221   3.36786   3.37215   3.39370   3.41698
 Alpha virt. eigenvalues --    3.42773   3.43593   3.44052   3.45737   3.46837
 Alpha virt. eigenvalues --    3.47381   3.49691   3.50270   3.52962   3.54256
 Alpha virt. eigenvalues --    3.55869   3.57941   3.59143   3.60036   3.61291
 Alpha virt. eigenvalues --    3.64427   3.65481   3.66939   3.68975   3.71092
 Alpha virt. eigenvalues --    3.74297   3.79707   3.82097   3.88371   3.89093
 Alpha virt. eigenvalues --    3.98145   4.02414   4.03203   4.15677   4.24492
 Alpha virt. eigenvalues --    4.59554
  Beta  occ. eigenvalues --  -19.28428 -19.28248 -19.27052 -19.25082 -19.24821
  Beta  occ. eigenvalues --  -19.22045 -14.49163 -14.42840 -10.38919 -10.38887
  Beta  occ. eigenvalues --  -10.34875 -10.34245 -10.32477 -10.32163 -10.31127
  Beta  occ. eigenvalues --  -10.29908 -10.29580  -1.13557  -1.12229  -1.11078
  Beta  occ. eigenvalues --   -1.09855  -1.08093  -1.07399  -1.02336  -0.95590
  Beta  occ. eigenvalues --   -0.85617  -0.83223  -0.80506  -0.73592  -0.70941
  Beta  occ. eigenvalues --   -0.68640  -0.66107  -0.63943  -0.60953  -0.59977
  Beta  occ. eigenvalues --   -0.58219  -0.56245  -0.54296  -0.53557  -0.52273
  Beta  occ. eigenvalues --   -0.51188  -0.50700  -0.49935  -0.48831  -0.48482
  Beta  occ. eigenvalues --   -0.47759  -0.45586  -0.45439  -0.44087  -0.43008
  Beta  occ. eigenvalues --   -0.41625  -0.39768  -0.39198  -0.38397  -0.37836
  Beta  occ. eigenvalues --   -0.34472  -0.32587  -0.31787  -0.31352  -0.31087
  Beta  occ. eigenvalues --   -0.30198  -0.29776  -0.27569
  Beta virt. eigenvalues --   -0.22117  -0.06899  -0.03277  -0.01546  -0.01224
  Beta virt. eigenvalues --   -0.00017   0.00726   0.01708   0.01883   0.02481
  Beta virt. eigenvalues --    0.03200   0.03511   0.04533   0.04741   0.05481
  Beta virt. eigenvalues --    0.05909   0.05982   0.06775   0.06887   0.07421
  Beta virt. eigenvalues --    0.07602   0.08198   0.08585   0.08841   0.09017
  Beta virt. eigenvalues --    0.09301   0.09748   0.10254   0.10412   0.10992
  Beta virt. eigenvalues --    0.11045   0.11223   0.11687   0.11819   0.12185
  Beta virt. eigenvalues --    0.12593   0.12942   0.13232   0.13408   0.13970
  Beta virt. eigenvalues --    0.14239   0.14822   0.15430   0.15633   0.16150
  Beta virt. eigenvalues --    0.16361   0.16756   0.17098   0.17759   0.17882
  Beta virt. eigenvalues --    0.17899   0.18278   0.18973   0.19342   0.19805
  Beta virt. eigenvalues --    0.20051   0.20882   0.21293   0.21652   0.22047
  Beta virt. eigenvalues --    0.22181   0.22369   0.22777   0.23257   0.23559
  Beta virt. eigenvalues --    0.23858   0.24098   0.24397   0.25104   0.25203
  Beta virt. eigenvalues --    0.25535   0.25931   0.26107   0.26210   0.26831
  Beta virt. eigenvalues --    0.27168   0.27823   0.28090   0.28260   0.28573
  Beta virt. eigenvalues --    0.28996   0.29305   0.29512   0.29680   0.30422
  Beta virt. eigenvalues --    0.30510   0.30965   0.31041   0.31713   0.32223
  Beta virt. eigenvalues --    0.32424   0.32522   0.33034   0.33522   0.33879
  Beta virt. eigenvalues --    0.34097   0.35158   0.35610   0.36405   0.36574
  Beta virt. eigenvalues --    0.36798   0.37285   0.37780   0.38465   0.38850
  Beta virt. eigenvalues --    0.39222   0.39391   0.40177   0.40348   0.41316
  Beta virt. eigenvalues --    0.41485   0.42153   0.42494   0.42678   0.43349
  Beta virt. eigenvalues --    0.44597   0.44825   0.45144   0.45458   0.45873
  Beta virt. eigenvalues --    0.46256   0.46839   0.47554   0.48731   0.49290
  Beta virt. eigenvalues --    0.50110   0.50363   0.51128   0.51700   0.52301
  Beta virt. eigenvalues --    0.52722   0.53259   0.53905   0.54107   0.54861
  Beta virt. eigenvalues --    0.54976   0.55614   0.56040   0.56339   0.57144
  Beta virt. eigenvalues --    0.57836   0.58485   0.59024   0.59719   0.60332
  Beta virt. eigenvalues --    0.60573   0.60753   0.61325   0.61625   0.62202
  Beta virt. eigenvalues --    0.62649   0.63012   0.64207   0.64413   0.64987
  Beta virt. eigenvalues --    0.65443   0.66062   0.66317   0.67278   0.67602
  Beta virt. eigenvalues --    0.68052   0.68510   0.68981   0.69739   0.70050
  Beta virt. eigenvalues --    0.70418   0.71673   0.72167   0.72348   0.72768
  Beta virt. eigenvalues --    0.73277   0.74366   0.74792   0.75140   0.75641
  Beta virt. eigenvalues --    0.76866   0.77111   0.77742   0.78413   0.78790
  Beta virt. eigenvalues --    0.79522   0.80050   0.80997   0.81575   0.82383
  Beta virt. eigenvalues --    0.82463   0.82847   0.83579   0.85349   0.85532
  Beta virt. eigenvalues --    0.86967   0.87587   0.88061   0.88612   0.89929
  Beta virt. eigenvalues --    0.90315   0.90894   0.91229   0.92336   0.93216
  Beta virt. eigenvalues --    0.94168   0.95355   0.95747   0.96981   0.97935
  Beta virt. eigenvalues --    0.98671   0.99066   1.00612   1.01125   1.01699
  Beta virt. eigenvalues --    1.02410   1.02658   1.03450   1.04159   1.05553
  Beta virt. eigenvalues --    1.05670   1.07077   1.07398   1.08439   1.10452
  Beta virt. eigenvalues --    1.11276   1.12521   1.13663   1.14745   1.15351
  Beta virt. eigenvalues --    1.15687   1.17000   1.17138   1.17542   1.18825
  Beta virt. eigenvalues --    1.20313   1.20732   1.21185   1.21204   1.22233
  Beta virt. eigenvalues --    1.23882   1.24720   1.25977   1.26242   1.27259
  Beta virt. eigenvalues --    1.27836   1.29353   1.31654   1.31982   1.32908
  Beta virt. eigenvalues --    1.33171   1.34377   1.34612   1.37251   1.38285
  Beta virt. eigenvalues --    1.38954   1.40451   1.41197   1.41558   1.42968
  Beta virt. eigenvalues --    1.43481   1.44567   1.46618   1.47013   1.47831
  Beta virt. eigenvalues --    1.48540   1.49573   1.50031   1.50862   1.51896
  Beta virt. eigenvalues --    1.52931   1.53366   1.54152   1.54937   1.56103
  Beta virt. eigenvalues --    1.56515   1.57833   1.58033   1.59796   1.60905
  Beta virt. eigenvalues --    1.61254   1.62428   1.63691   1.64660   1.65732
  Beta virt. eigenvalues --    1.67750   1.68360   1.69692   1.70001   1.71130
  Beta virt. eigenvalues --    1.71850   1.72020   1.73367   1.74151   1.75124
  Beta virt. eigenvalues --    1.76456   1.77690   1.78325   1.78859   1.79897
  Beta virt. eigenvalues --    1.80602   1.81494   1.82438   1.83029   1.84172
  Beta virt. eigenvalues --    1.85677   1.86456   1.86870   1.87410   1.89968
  Beta virt. eigenvalues --    1.90308   1.90625   1.92002   1.93104   1.93797
  Beta virt. eigenvalues --    1.94993   1.95836   1.98434   1.99682   2.00645
  Beta virt. eigenvalues --    2.01577   2.02677   2.03802   2.04049   2.04528
  Beta virt. eigenvalues --    2.05691   2.07923   2.08395   2.10710   2.12075
  Beta virt. eigenvalues --    2.12473   2.13597   2.15391   2.16197   2.16880
  Beta virt. eigenvalues --    2.17937   2.18743   2.19795   2.21616   2.22229
  Beta virt. eigenvalues --    2.24471   2.25135   2.26834   2.28314   2.29519
  Beta virt. eigenvalues --    2.30906   2.31479   2.33468   2.34073   2.35138
  Beta virt. eigenvalues --    2.37308   2.39364   2.40289   2.41238   2.42022
  Beta virt. eigenvalues --    2.42857   2.43587   2.44844   2.47330   2.50094
  Beta virt. eigenvalues --    2.51132   2.51545   2.53578   2.55206   2.57494
  Beta virt. eigenvalues --    2.58883   2.60000   2.62466   2.63112   2.63972
  Beta virt. eigenvalues --    2.64711   2.65594   2.66994   2.69646   2.71791
  Beta virt. eigenvalues --    2.73123   2.73616   2.75855   2.78216   2.81254
  Beta virt. eigenvalues --    2.83290   2.84776   2.86279   2.87721   2.88703
  Beta virt. eigenvalues --    2.92961   2.96240   3.00622   3.01405   3.09502
  Beta virt. eigenvalues --    3.13212   3.15114   3.19367   3.23487   3.29695
  Beta virt. eigenvalues --    3.34109   3.35733   3.37597   3.37946   3.39881
  Beta virt. eigenvalues --    3.42140   3.42973   3.43971   3.44369   3.46084
  Beta virt. eigenvalues --    3.47166   3.47852   3.49941   3.50624   3.53061
  Beta virt. eigenvalues --    3.54502   3.57303   3.58966   3.59634   3.60150
  Beta virt. eigenvalues --    3.61381   3.65011   3.65950   3.67131   3.69080
  Beta virt. eigenvalues --    3.71327   3.74749   3.79772   3.82299   3.88459
  Beta virt. eigenvalues --    3.89629   3.98272   4.02427   4.03236   4.15692
  Beta virt. eigenvalues --    4.24506   4.59577
          Condensed to atoms (all electrons):
               1          2          3          4          5          6
     1  C   11.733640  -3.650795   0.862480   0.205423   0.391910  -0.271288
     2  C   -3.650795  10.241963  -2.159907  -0.573963  -1.153147   0.128678
     3  C    0.862480  -2.159907  10.879188   0.223289   0.239972  -0.419589
     4  O    0.205423  -0.573963   0.223289   8.728932  -0.115844   0.023033
     5  H    0.391910  -1.153147   0.239972  -0.115844   2.094175   0.070849
     6  O   -0.271288   0.128678  -0.419589   0.023033   0.070849   9.527195
     7  H    0.122339   0.192971  -0.580719  -0.068348  -0.000052  -0.208431
     8  N   -0.120926   0.359092  -0.596522   0.035482  -0.175019  -0.015452
     9  C   -2.304926   0.587757  -1.953506  -0.102527   0.213804  -0.099857
    10  H   -1.203926   0.608196  -0.288985  -0.012244  -0.108882   0.068827
    11  O   -0.749871   0.418774   0.044300  -0.044939  -0.061604   0.010804
    12  C   -0.175616  -0.190749   0.230414   0.039284  -0.012011  -0.045573
    13  H    0.584038  -0.272779   0.255514   0.042577   0.009613  -0.058800
    14  O   -0.100400   0.032699  -0.017936  -0.000438  -0.003332  -0.046648
    15  H    0.008037   0.084321  -0.033204   0.000954   0.001931   0.094205
    16  H   -0.083047   0.001337   0.032040  -0.000165  -0.000546  -0.062573
    17  H    0.337281  -0.225477   0.031380   0.008619   0.018573  -0.004452
    18  H   -0.261358   0.198133  -0.079036   0.287069  -0.009394   0.011585
    19  H    0.097065  -0.020826  -0.005006  -0.000051   0.001295   0.037944
    20  C    0.221000   0.091547  -1.535845  -0.015369   0.123855   0.152941
    21  C   -0.224739   0.039544  -0.156206   0.011597  -0.003900   0.028981
    22  C    0.003168   0.037604  -0.023883  -0.001656   0.005475  -0.005631
    23  N   -0.001740  -0.025479  -0.023886   0.000685   0.000342   0.000863
    24  C   -0.011453   0.015594  -0.030620  -0.008871  -0.041026  -0.077126
    25  H    0.030495  -0.045998   0.137366  -0.001986  -0.064954   0.052720
    26  H    0.005269   0.006477   0.054598   0.000141  -0.000620  -0.001084
    27  O    0.000803  -0.000157  -0.014081  -0.000005   0.000042  -0.000045
    28  O   -0.008604   0.022137   0.124346  -0.000087  -0.009243   0.008671
               7          8          9         10         11         12
     1  C    0.122339  -0.120926  -2.304926  -1.203926  -0.749871  -0.175616
     2  C    0.192971   0.359092   0.587757   0.608196   0.418774  -0.190749
     3  C   -0.580719  -0.596522  -1.953506  -0.288985   0.044300   0.230414
     4  O   -0.068348   0.035482  -0.102527  -0.012244  -0.044939   0.039284
     5  H   -0.000052  -0.175019   0.213804  -0.108882  -0.061604  -0.012011
     6  O   -0.208431  -0.015452  -0.099857   0.068827   0.010804  -0.045573
     7  H    1.955451  -0.102261   0.190044  -0.000242  -0.008091  -0.031935
     8  N   -0.102261   8.203027  -0.108652   0.031979   0.009461   0.111091
     9  C    0.190044  -0.108652  11.300971  -0.582618   0.105325  -0.569024
    10  H   -0.000242   0.031979  -0.582618   2.954227  -0.081232   0.021657
    11  O   -0.008091   0.009461   0.105325  -0.081232   8.625254   0.021222
    12  C   -0.031935   0.111091  -0.569024   0.021657   0.021222   5.153785
    13  H    0.007596  -0.000974  -1.472794   0.140955  -0.056661   0.057082
    14  O   -0.000199   0.017509   0.053735   0.032068   0.015054   0.114074
    15  H   -0.003059   0.005666  -0.186102  -0.034408   0.024221   0.121634
    16  H    0.001343  -0.004405   0.342918   0.017529   0.005814   0.063420
    17  H    0.001629  -0.006030  -0.003227  -0.144573   0.292313  -0.010179
    18  H   -0.008373  -0.004290   0.037691   0.022651   0.062357  -0.000798
    19  H    0.001699  -0.006061  -0.107413   0.002903  -0.003697  -0.048722
    20  C   -0.019253   0.171765   0.101159   0.242046  -0.020626  -0.097443
    21  C   -0.006276  -0.500097   0.075543   0.021838   0.006046  -0.026459
    22  C    0.000934   0.001385   0.009511   0.015146  -0.000117  -0.009994
    23  N   -0.025001  -0.021996  -0.000560  -0.008682  -0.000014   0.004815
    24  C    0.058494  -0.044017  -0.122743   0.007167   0.003320   0.003471
    25  H   -0.006885   0.063380  -0.139166  -0.270654   0.004801   0.086438
    26  H    0.001001   0.066916  -0.001350   0.003248   0.000255  -0.001506
    27  O   -0.000568  -0.030822   0.000974  -0.000304  -0.000005  -0.000110
    28  O   -0.019107  -0.178646  -0.014117  -0.004445   0.000330   0.005087
              13         14         15         16         17         18
     1  C    0.584038  -0.100400   0.008037  -0.083047   0.337281  -0.261358
     2  C   -0.272779   0.032699   0.084321   0.001337  -0.225477   0.198133
     3  C    0.255514  -0.017936  -0.033204   0.032040   0.031380  -0.079036
     4  O    0.042577  -0.000438   0.000954  -0.000165   0.008619   0.287069
     5  H    0.009613  -0.003332   0.001931  -0.000546   0.018573  -0.009394
     6  O   -0.058800  -0.046648   0.094205  -0.062573  -0.004452   0.011585
     7  H    0.007596  -0.000199  -0.003059   0.001343   0.001629  -0.008373
     8  N   -0.000974   0.017509   0.005666  -0.004405  -0.006030  -0.004290
     9  C   -1.472794   0.053735  -0.186102   0.342918  -0.003227   0.037691
    10  H    0.140955   0.032068  -0.034408   0.017529  -0.144573   0.022651
    11  O   -0.056661   0.015054   0.024221   0.005814   0.292313   0.062357
    12  C    0.057082   0.114074   0.121634   0.063420  -0.010179  -0.000798
    13  H    2.361759   0.013812  -0.055738  -0.053763  -0.007550  -0.000110
    14  O    0.013812   8.342798  -0.141584  -0.032852  -0.002501   0.000085
    15  H   -0.055738  -0.141584   1.650583  -0.316095  -0.002886   0.001654
    16  H   -0.053763  -0.032852  -0.316095   1.332563  -0.001508  -0.000755
    17  H   -0.007550  -0.002501  -0.002886  -0.001508   0.592538  -0.008725
    18  H   -0.000110   0.000085   0.001654  -0.000755  -0.008725   0.586861
    19  H    0.012726   0.273365   0.022850  -0.043055   0.000580  -0.000165
    20  C    0.005852  -0.007677  -0.007445   0.004124  -0.007857   0.002240
    21  C   -0.002590   0.000976  -0.001061   0.002214  -0.002630  -0.001146
    22  C    0.001207   0.002628  -0.001050   0.000011  -0.000050   0.000193
    23  N    0.000005  -0.000288   0.000242   0.000385   0.000071  -0.000269
    24  C    0.000476   0.004046  -0.000762  -0.000689  -0.000828  -0.000581
    25  H   -0.007639   0.019902   0.009764   0.002583   0.003798   0.006187
    26  H    0.000061   0.001684  -0.000361   0.000075   0.000018   0.000002
    27  O    0.000044  -0.000080   0.000010  -0.000017   0.000008  -0.000016
    28  O   -0.000680   0.000363   0.000130   0.000522   0.000108   0.000124
              19         20         21         22         23         24
     1  C    0.097065   0.221000  -0.224739   0.003168  -0.001740  -0.011453
     2  C   -0.020826   0.091547   0.039544   0.037604  -0.025479   0.015594
     3  C   -0.005006  -1.535845  -0.156206  -0.023883  -0.023886  -0.030620
     4  O   -0.000051  -0.015369   0.011597  -0.001656   0.000685  -0.008871
     5  H    0.001295   0.123855  -0.003900   0.005475   0.000342  -0.041026
     6  O    0.037944   0.152941   0.028981  -0.005631   0.000863  -0.077126
     7  H    0.001699  -0.019253  -0.006276   0.000934  -0.025001   0.058494
     8  N   -0.006061   0.171765  -0.500097   0.001385  -0.021996  -0.044017
     9  C   -0.107413   0.101159   0.075543   0.009511  -0.000560  -0.122743
    10  H    0.002903   0.242046   0.021838   0.015146  -0.008682   0.007167
    11  O   -0.003697  -0.020626   0.006046  -0.000117  -0.000014   0.003320
    12  C   -0.048722  -0.097443  -0.026459  -0.009994   0.004815   0.003471
    13  H    0.012726   0.005852  -0.002590   0.001207   0.000005   0.000476
    14  O    0.273365  -0.007677   0.000976   0.002628  -0.000288   0.004046
    15  H    0.022850  -0.007445  -0.001061  -0.001050   0.000242  -0.000762
    16  H   -0.043055   0.004124   0.002214   0.000011   0.000385  -0.000689
    17  H    0.000580  -0.007857  -0.002630  -0.000050   0.000071  -0.000828
    18  H   -0.000165   0.002240  -0.001146   0.000193  -0.000269  -0.000581
    19  H    0.561205   0.027664   0.003097   0.007193  -0.003246   0.001540
    20  C    0.027664   9.223797  -2.040745   0.048854  -0.043715  -0.771391
    21  C    0.003097  -2.040745   9.676138  -1.494481   0.300551   0.538450
    22  C    0.007193   0.048854  -1.494481   7.872750  -0.231693  -0.683880
    23  N   -0.003246  -0.043715   0.300551  -0.231693   7.845357  -0.033226
    24  C    0.001540  -0.771391   0.538450  -0.683880  -0.033226   6.341511
    25  H   -0.030247  -1.215685  -0.397567  -0.280540   0.105656   0.031567
    26  H    0.001260   0.558186  -0.787729   0.072189  -0.098579  -0.094599
    27  O   -0.000188   0.100427  -0.175597   0.130891  -0.123266   0.040837
    28  O   -0.001623  -0.036356  -0.003151   0.022930  -0.155822   0.175427
              25         26         27         28
     1  C    0.030495   0.005269   0.000803  -0.008604
     2  C   -0.045998   0.006477  -0.000157   0.022137
     3  C    0.137366   0.054598  -0.014081   0.124346
     4  O   -0.001986   0.000141  -0.000005  -0.000087
     5  H   -0.064954  -0.000620   0.000042  -0.009243
     6  O    0.052720  -0.001084  -0.000045   0.008671
     7  H   -0.006885   0.001001  -0.000568  -0.019107
     8  N    0.063380   0.066916  -0.030822  -0.178646
     9  C   -0.139166  -0.001350   0.000974  -0.014117
    10  H   -0.270654   0.003248  -0.000304  -0.004445
    11  O    0.004801   0.000255  -0.000005   0.000330
    12  C    0.086438  -0.001506  -0.000110   0.005087
    13  H   -0.007639   0.000061   0.000044  -0.000680
    14  O    0.019902   0.001684  -0.000080   0.000363
    15  H    0.009764  -0.000361   0.000010   0.000130
    16  H    0.002583   0.000075  -0.000017   0.000522
    17  H    0.003798   0.000018   0.000008   0.000108
    18  H    0.006187   0.000002  -0.000016   0.000124
    19  H   -0.030247   0.001260  -0.000188  -0.001623
    20  C   -1.215685   0.558186   0.100427  -0.036356
    21  C   -0.397567  -0.787729  -0.175597  -0.003151
    22  C   -0.280540   0.072189   0.130891   0.022930
    23  N    0.105656  -0.098579  -0.123266  -0.155822
    24  C    0.031567  -0.094599   0.040837   0.175427
    25  H    3.926663  -0.275540   0.008075   0.018245
    26  H   -0.275540   2.119599  -0.037619   0.001255
    27  O    0.008075  -0.037619   8.626696  -0.003289
    28  O    0.018245   0.001255  -0.003289   8.672281
          Atomic-Atomic Spin Densities.
               1          2          3          4          5          6
     1  C    0.020381  -0.000386  -0.023650   0.000787  -0.006995  -0.000240
     2  C   -0.000386   0.003108   0.009692   0.000613  -0.003494  -0.004083
     3  C   -0.023650   0.009692  -0.008438  -0.000312   0.007796   0.006257
     4  O    0.000787   0.000613  -0.000312   0.000292  -0.000104   0.000136
     5  H   -0.006995  -0.003494   0.007796  -0.000104   0.006273   0.000859
     6  O   -0.000240  -0.004083   0.006257   0.000136   0.000859   0.007607
     7  H   -0.003730  -0.004771   0.007808   0.000040   0.001752  -0.000014
     8  N    0.014037   0.000829  -0.019130  -0.000160  -0.005186  -0.005567
     9  C   -0.000585   0.003590  -0.003989  -0.000193  -0.000180  -0.000118
    10  H    0.001518   0.001028  -0.002814  -0.000057  -0.000164  -0.000061
    11  O   -0.001790   0.000526   0.001728  -0.000109   0.000273  -0.000054
    12  C    0.004389  -0.002535  -0.004628   0.000077  -0.001001  -0.000501
    13  H   -0.001902   0.001544   0.001092  -0.000124   0.000268   0.000112
    14  O   -0.000992   0.000332   0.000617  -0.000010   0.000118   0.000019
    15  H   -0.000105  -0.000005   0.000047   0.000009  -0.000045  -0.000004
    16  H   -0.000249  -0.000039   0.000309   0.000004  -0.000036  -0.000163
    17  H    0.000624  -0.000460  -0.000451   0.000068  -0.000251  -0.000017
    18  H    0.001428  -0.000924  -0.000883   0.000155  -0.000523  -0.000041
    19  H   -0.000256   0.000526   0.000127  -0.000027   0.000173   0.000246
    20  C    0.001704  -0.001301   0.004775  -0.000260  -0.001259  -0.000234
    21  C    0.000028   0.007774   0.005133  -0.000354   0.000489   0.001158
    22  C   -0.006533  -0.000600   0.003995  -0.000039   0.004219   0.002047
    23  N    0.001382  -0.000338   0.010218  -0.000012  -0.000772  -0.000782
    24  C   -0.003196   0.000974  -0.000154   0.000051   0.001630   0.001191
    25  H    0.007247  -0.002478  -0.004581   0.000161  -0.004558  -0.002427
    26  H   -0.002424  -0.000027   0.001727  -0.000019   0.001087   0.000418
    27  O    0.000003  -0.000000   0.000058   0.000001  -0.000017  -0.000000
    28  O    0.001505  -0.001067   0.005901  -0.000184  -0.001124  -0.000806
               7          8          9         10         11         12
     1  C   -0.003730   0.014037  -0.000585   0.001518  -0.001790   0.004389
     2  C   -0.004771   0.000829   0.003590   0.001028   0.000526  -0.002535
     3  C    0.007808  -0.019130  -0.003989  -0.002814   0.001728  -0.004628
     4  O    0.000040  -0.000160  -0.000193  -0.000057  -0.000109   0.000077
     5  H    0.001752  -0.005186  -0.000180  -0.000164   0.000273  -0.001001
     6  O   -0.000014  -0.005567  -0.000118  -0.000061  -0.000054  -0.000501
     7  H    0.008000  -0.009426   0.000229  -0.000262   0.000058  -0.000650
     8  N   -0.009426   0.087628   0.000673   0.001291  -0.000592   0.004741
     9  C    0.000229   0.000673   0.005615  -0.000292  -0.000460  -0.001130
    10  H   -0.000262   0.001291  -0.000292  -0.000410   0.000097   0.000866
    11  O    0.000058  -0.000592  -0.000460   0.000097   0.001714  -0.000481
    12  C   -0.000650   0.004741  -0.001130   0.000866  -0.000481   0.004230
    13  H    0.000086  -0.000837  -0.000743  -0.000010   0.000262  -0.000740
    14  O    0.000023  -0.000556  -0.000001   0.000008   0.000071  -0.000406
    15  H   -0.000021   0.000072   0.000117   0.000098   0.000006  -0.000351
    16  H   -0.000027   0.000048   0.000074  -0.000012   0.000021  -0.000393
    17  H   -0.000019   0.000233   0.000060   0.000010  -0.000128   0.000127
    18  H   -0.000099   0.000528   0.000167   0.000021  -0.000065   0.000134
    19  H    0.000047  -0.000476   0.000030  -0.000138   0.000005  -0.000080
    20  C   -0.001076  -0.020835  -0.000730   0.000712   0.000158  -0.001699
    21  C    0.000631  -0.012387  -0.000632  -0.001274  -0.000041   0.000234
    22  C    0.002297   0.026307  -0.001987  -0.001038   0.000087  -0.001090
    23  N    0.000348  -0.009369   0.000439   0.000663  -0.000008   0.000169
    24  C    0.005466  -0.012341  -0.000145  -0.001249   0.000135  -0.000838
    25  H   -0.001144   0.005673  -0.000899   0.001902  -0.000183   0.001940
    26  H    0.000202   0.004049  -0.000242  -0.000530   0.000036  -0.000486
    27  O   -0.000030  -0.003798   0.000043   0.000047  -0.000000  -0.000008
    28  O   -0.006528   0.003644   0.000335   0.000102  -0.000008   0.000105
              13         14         15         16         17         18
     1  C   -0.001902  -0.000992  -0.000105  -0.000249   0.000624   0.001428
     2  C    0.001544   0.000332  -0.000005  -0.000039  -0.000460  -0.000924
     3  C    0.001092   0.000617   0.000047   0.000309  -0.000451  -0.000883
     4  O   -0.000124  -0.000010   0.000009   0.000004   0.000068   0.000155
     5  H    0.000268   0.000118  -0.000045  -0.000036  -0.000251  -0.000523
     6  O    0.000112   0.000019  -0.000004  -0.000163  -0.000017  -0.000041
     7  H    0.000086   0.000023  -0.000021  -0.000027  -0.000019  -0.000099
     8  N   -0.000837  -0.000556   0.000072   0.000048   0.000233   0.000528
     9  C   -0.000743  -0.000001   0.000117   0.000074   0.000060   0.000167
    10  H   -0.000010   0.000008   0.000098  -0.000012   0.000010   0.000021
    11  O    0.000262   0.000071   0.000006   0.000021  -0.000128  -0.000065
    12  C   -0.000740  -0.000406  -0.000351  -0.000393   0.000127   0.000134
    13  H    0.001150   0.000072   0.000001   0.000105  -0.000050  -0.000059
    14  O    0.000072   0.000091   0.000059   0.000044  -0.000019  -0.000010
    15  H    0.000001   0.000059   0.000008   0.000080  -0.000007   0.000011
    16  H    0.000105   0.000044   0.000080   0.000105  -0.000000   0.000002
    17  H   -0.000050  -0.000019  -0.000007  -0.000000   0.000037   0.000068
    18  H   -0.000059  -0.000010   0.000011   0.000002   0.000068   0.000486
    19  H   -0.000024   0.000034  -0.000004   0.000044  -0.000004  -0.000006
    20  C    0.000234   0.000161   0.000067   0.000029  -0.000023  -0.000109
    21  C   -0.000019   0.000482  -0.000007   0.000026   0.000003   0.000028
    22  C    0.000027   0.000113  -0.000064  -0.000062  -0.000049  -0.000054
    23  N    0.000010  -0.000000   0.000006   0.000023   0.000004   0.000004
    24  C    0.000276   0.000063   0.000014   0.000061  -0.000050  -0.000231
    25  H   -0.000218  -0.000174   0.000019   0.000014   0.000174   0.000153
    26  H    0.000012   0.000005  -0.000036  -0.000018  -0.000033  -0.000017
    27  O    0.000001  -0.000002  -0.000001   0.000001  -0.000002  -0.000001
    28  O   -0.000030   0.000000   0.000003   0.000001   0.000014   0.000013
              19         20         21         22         23         24
     1  C   -0.000256   0.001704   0.000028  -0.006533   0.001382  -0.003196
     2  C    0.000526  -0.001301   0.007774  -0.000600  -0.000338   0.000974
     3  C    0.000127   0.004775   0.005133   0.003995   0.010218  -0.000154
     4  O   -0.000027  -0.000260  -0.000354  -0.000039  -0.000012   0.000051
     5  H    0.000173  -0.001259   0.000489   0.004219  -0.000772   0.001630
     6  O    0.000246  -0.000234   0.001158   0.002047  -0.000782   0.001191
     7  H    0.000047  -0.001076   0.000631   0.002297   0.000348   0.005466
     8  N   -0.000476  -0.020835  -0.012387   0.026307  -0.009369  -0.012341
     9  C    0.000030  -0.000730  -0.000632  -0.001987   0.000439  -0.000145
    10  H   -0.000138   0.000712  -0.001274  -0.001038   0.000663  -0.001249
    11  O    0.000005   0.000158  -0.000041   0.000087  -0.000008   0.000135
    12  C   -0.000080  -0.001699   0.000234  -0.001090   0.000169  -0.000838
    13  H   -0.000024   0.000234  -0.000019   0.000027   0.000010   0.000276
    14  O    0.000034   0.000161   0.000482   0.000113  -0.000000   0.000063
    15  H   -0.000004   0.000067  -0.000007  -0.000064   0.000006   0.000014
    16  H    0.000044   0.000029   0.000026  -0.000062   0.000023   0.000061
    17  H   -0.000004  -0.000023   0.000003  -0.000049   0.000004  -0.000050
    18  H   -0.000006  -0.000109   0.000028  -0.000054   0.000004  -0.000231
    19  H   -0.000020   0.000360  -0.000210   0.000389  -0.000045  -0.000342
    20  C    0.000360  -0.077082   0.081012   0.002298   0.002401   0.034463
    21  C   -0.000210   0.081012   0.112377  -0.014572   0.007104   0.011512
    22  C    0.000389   0.002298  -0.014572   0.079146  -0.068948  -0.092852
    23  N   -0.000045   0.002401   0.007104  -0.068948   0.206884   0.075929
    24  C   -0.000342   0.034463   0.011512  -0.092852   0.075929  -0.051697
    25  H   -0.000508   0.001961  -0.001822  -0.018264   0.003448   0.007834
    26  H    0.000272  -0.036233   0.008191   0.019409  -0.012362  -0.009310
    27  O   -0.000036  -0.001888  -0.007034  -0.116989   0.039448   0.014989
    28  O    0.000030  -0.002295  -0.000632   0.008875  -0.011801  -0.019131
              25         26         27         28
     1  C    0.007247  -0.002424   0.000003   0.001505
     2  C   -0.002478  -0.000027  -0.000000  -0.001067
     3  C   -0.004581   0.001727   0.000058   0.005901
     4  O    0.000161  -0.000019   0.000001  -0.000184
     5  H   -0.004558   0.001087  -0.000017  -0.001124
     6  O   -0.002427   0.000418  -0.000000  -0.000806
     7  H   -0.001144   0.000202  -0.000030  -0.006528
     8  N    0.005673   0.004049  -0.003798   0.003644
     9  C   -0.000899  -0.000242   0.000043   0.000335
    10  H    0.001902  -0.000530   0.000047   0.000102
    11  O   -0.000183   0.000036  -0.000000  -0.000008
    12  C    0.001940  -0.000486  -0.000008   0.000105
    13  H   -0.000218   0.000012   0.000001  -0.000030
    14  O   -0.000174   0.000005  -0.000002   0.000000
    15  H    0.000019  -0.000036  -0.000001   0.000003
    16  H    0.000014  -0.000018   0.000001   0.000001
    17  H    0.000174  -0.000033  -0.000002   0.000014
    18  H    0.000153  -0.000017  -0.000001   0.000013
    19  H   -0.000508   0.000272  -0.000036   0.000030
    20  C    0.001961  -0.036233  -0.001888  -0.002295
    21  C   -0.001822   0.008191  -0.007034  -0.000632
    22  C   -0.018264   0.019409  -0.116989   0.008875
    23  N    0.003448  -0.012362   0.039448  -0.011801
    24  C    0.007834  -0.009310   0.014989  -0.019131
    25  H    0.025836  -0.012930  -0.000871   0.000123
    26  H   -0.012930   0.030070   0.016471   0.000150
    27  O   -0.000871   0.016471   0.631482  -0.001298
    28  O    0.000123   0.000150  -0.001298   0.162747
 Mulliken charges and spin densities:
               1          2
     1  C    0.565739   0.002002
     2  C    1.252451   0.008028
     3  C    0.804041  -0.001752
     4  O   -0.660593   0.000430
     5  H   -0.412261  -0.000770
     6  O   -0.900747   0.004938
     7  H   -0.444703  -0.000810
     8  N   -0.160584   0.049096
     9  C    0.749149  -0.000954
    10  H   -0.449243   0.000049
    11  O   -0.622794   0.001259
    12  C    1.186645  -0.000006
    13  H   -0.503241   0.000494
    14  O   -0.570863   0.000143
    15  H   -0.242446  -0.000032
    16  H   -0.207407  -0.000010
    17  H    0.141559  -0.000138
    18  H    0.158185   0.000178
    19  H    0.217916   0.000108
    20  C    0.743948  -0.014689
    21  C    1.119398   0.197198
    22  C    0.500905  -0.173933
    23  N   -0.461511   0.244042
    24  C    0.699912  -0.036946
    25  H   -0.770780   0.005427
    26  H   -0.593249   0.007433
    27  O   -0.522637   0.570566
    28  O   -0.616788   0.138646
 Sum of Mulliken charges =  -0.00000   1.00000
 Mulliken charges and spin densities with hydrogens summed into heavy atoms:
               1          2
     1  C    0.116496   0.002051
     2  C    0.840190   0.007258
     3  C    0.359338  -0.002561
     4  O   -0.502408   0.000608
     6  O   -0.900747   0.004938
     8  N   -0.160584   0.049096
     9  C    0.245908  -0.000459
    11  O   -0.481235   0.001121
    12  C    0.736792  -0.000047
    14  O   -0.352947   0.000251
    20  C   -0.026832  -0.009262
    21  C    0.526148   0.204631
    22  C    0.500905  -0.173933
    23  N   -0.461511   0.244042
    24  C    0.699912  -0.036946
    27  O   -0.522637   0.570566
    28  O   -0.616788   0.138646
 Electronic spatial extent (au):  <R**2>=           4176.5602
 Charge=             -0.0000 electrons
 Dipole moment (field-independent basis, Debye):
    X=              5.1736    Y=              2.9442    Z=             -4.3918  Tot=              7.3974
 Quadrupole moment (field-independent basis, Debye-Ang):
   XX=           -111.6108   YY=           -111.4988   ZZ=            -92.8954
   XY=             -6.9638   XZ=             -0.0565   YZ=              3.3918
 Traceless Quadrupole moment (field-independent basis, Debye-Ang):
   XX=             -6.2758   YY=             -6.1638   ZZ=             12.4396
   XY=             -6.9638   XZ=             -0.0565   YZ=              3.3918
 Octapole moment (field-independent basis, Debye-Ang**2):
  XXX=            131.7747  YYY=              3.1866  ZZZ=            -21.7467  XYY=              0.9290
  XXY=              3.4144  XXZ=            -14.5617  XZZ=             34.3953  YZZ=              8.8507
  YYZ=            -11.4440  XYZ=             -5.1380
 Hexadecapole moment (field-independent basis, Debye-Ang**3):
 XXXX=          -4025.3651 YYYY=          -1253.0023 ZZZZ=           -503.8267 XXXY=             18.5142
 XXXZ=            -63.7685 YYYX=            -82.6357 YYYZ=              2.0836 ZZZX=            -59.7891
 ZZZY=             16.8336 XXYY=           -827.3346 XXZZ=           -626.1734 YYZZ=           -272.6071
 XXYZ=             45.9390 YYXZ=             19.6002 ZZXY=            -21.2174
 N-N= 1.299358254231D+03 E-N=-4.727655165612D+03  KE= 9.045049342194D+02
                          Isotropic Fermi Contact Couplings
        Atom                 a.u.       MegaHertz       Gauss      10(-4) cm-1
     1  C(13)              0.00033       0.37458       0.13366       0.12495
     2  C(13)              0.00224       2.52316       0.90033       0.84164
     3  C(13)             -0.00065      -0.72964      -0.26035      -0.24338
     4  O(17)              0.00028      -0.17031      -0.06077      -0.05681
     5  H(1)              -0.00009      -0.39000      -0.13916      -0.13009
     6  O(17)              0.00020      -0.12258      -0.04374      -0.04089
     7  H(1)               0.00085       3.78738       1.35143       1.26333
     8  N(14)              0.00450       1.45263       0.51833       0.48455
     9  C(13)             -0.00030      -0.33728      -0.12035      -0.11250
    10  H(1)              -0.00002      -0.07859      -0.02804      -0.02622
    11  O(17)              0.00009      -0.05644      -0.02014      -0.01883
    12  C(13)             -0.00003      -0.03190      -0.01138      -0.01064
    13  H(1)               0.00016       0.70520       0.25163       0.23523
    14  O(17)              0.00000      -0.00024      -0.00008      -0.00008
    15  H(1)              -0.00001      -0.05408      -0.01930      -0.01804
    16  H(1)              -0.00000      -0.00711      -0.00254      -0.00237
    17  H(1)              -0.00001      -0.05769      -0.02059      -0.01924
    18  H(1)               0.00010       0.44413       0.15848       0.14814
    19  H(1)               0.00000       0.00586       0.00209       0.00196
    20  C(13)             -0.00682      -7.66768      -2.73602      -2.55766
[...]
 ,0.00003092,-0.00001045,-0.00009836,0.00003383,0.00018005,0.00023003,-
 0.00035410,-0.04090385,-0.05030005,-0.07516632,-0.01723261,0.26231637,
 0.25018191,-0.00095581,0.00037155,0.00032028,-0.00072554,-0.00100610,0
 .00019257,-0.00824580,-0.00045963,-0.00031602,0.00144189,0.00085590,-0
 .00015959,0.00002305,-0.00005259,0.00035649,0.00388119,-0.00175318,0.0
 0094326,-0.00051252,0.00033506,0.00010110,-0.00008424,0.00844335,-0.00
 355854,-0.00197875,0.00033544,0.00080347,-0.00004655,0.00011404,0.0000
 2435,0.00146057,-0.00009918,-0.00059251,0.00003581,0.00027737,-0.00036
 493,0.00043417,0.00004288,-0.00003804,0.00059274,-0.00094622,0.0005064
 8,0.00010918,-0.00013599,-0.00002866,-0.00000291,0.00001403,0.00015254
 ,-0.00024839,0.00009142,0.00021507,-0.00029914,0.00000105,0.00002544,-
 0.00038930,0.00099698,-0.00068082,-0.04329626,-0.00820697,0.00954366,-
 0.13847740,0.07645245,0.04221242,0.77445875,0.00006576,0.00068703,0.00
 028092,0.00016514,0.00011726,0.00095878,0.00050355,-0.00014676,-0.0043
 2127,0.00073217,-0.00011388,-0.00026088,0.00001760,0.00012724,0.000069
 12,0.00168093,-0.00186647,0.00039192,-0.00096246,-0.00011769,-0.000011
 40,0.02165917,-0.02137138,-0.00892288,-0.00048988,0.00038667,0.0003810
 9,0.00004906,-0.00019032,-0.00023255,0.00025111,-0.00049912,-0.0001807
 8,0.00055962,0.00062932,0.00030079,0.00011950,-0.00006800,-0.00007918,
 -0.00092816,-0.00027855,-0.00049890,-0.00008614,-0.00009413,-0.0000439
 5,-0.00007408,-0.00007964,-0.00006465,-0.00000738,0.00012105,0.0000135
 5,-0.00013375,0.00022481,-0.00003072,0.00042307,-0.00001327,0.00042965
 ,-0.00012461,0.03705259,0.02139507,0.02314445,-0.12124001,-0.04219011,
 0.21207456,0.49462559,0.00021448,0.00017844,-0.00005832,0.00048915,0.0
 0011905,0.00066095,0.00318828,0.00227818,-0.00198677,-0.00015080,-0.00
 020779,-0.00010926,-0.00000112,0.00009223,-0.00017506,-0.00144601,0.00
 046370,-0.00031225,0.00010671,-0.00044491,-0.00016997,-0.00213786,-0.0
 0192461,-0.00440881,0.00028269,-0.00016537,-0.00034128,0.00007248,-0.0
 0020582,-0.00004411,-0.00033103,-0.00009354,0.00000316,-0.00008774,-0.
 00012856,0.00006207,-0.00015519,0.00004286,0.00001584,0.00001760,0.000
 23938,-0.00010798,0.00000852,0.00004120,0.00000678,-0.00000765,0.00000
 904,-0.00003553,0.00008522,-0.00001175,-0.00004373,0.00006260,0.000050
 01,-0.00002081,0.00000121,-0.00019908,0.00015781,-0.00248689,0.0079969
 2,0.00460894,0.03550141,-0.05488284,-0.10719462,-0.10302660,0.02787419
 ,0.22666862,0.00025168,-0.00017622,-0.00045877,-0.00008225,-0.00085197
 ,-0.00065606,0.00418817,0.00441855,0.00272961,-0.00072505,-0.00002258,
 0.00050694,0.00005967,-0.00007674,-0.00015827,-0.00328686,0.00141890,-
 0.00113974,0.00130779,-0.00075883,-0.00044981,-0.06335440,0.02085076,0
 .01093265,0.00105559,-0.00041782,-0.00071132,-0.00007983,0.00006961,0.
 00009410,-0.00034689,0.00020138,0.00033451,-0.00033143,-0.00044039,-0.
 00007640,-0.00027164,0.00001538,0.00008750,0.00035975,0.00047248,0.000
 23203,0.00001360,0.00010887,0.00003711,0.00006029,0.00002158,0.0000244
 9,0.00002710,-0.00008079,-0.00005073,0.00007965,-0.00012633,-0.0000663
 1,-0.00021387,-0.00030343,-0.00018741,-0.01272669,-0.02186448,-0.01369
 599,0.00258522,0.00496227,0.00894991,-0.00909684,-0.00699988,-0.024365
 51,0.30061717,0.00010504,-0.00033740,-0.00013394,0.00005437,0.00037111
 ,-0.00064109,0.00359852,0.00259797,0.00235119,-0.00049464,-0.00019487,
 0.00011718,0.00002904,-0.00003340,-0.00004773,-0.00220298,0.00086067,-
 0.00098378,0.00018260,-0.00049177,-0.00052909,-0.00932054,0.01490644,-
 0.00715868,0.00052264,-0.00048185,-0.00058429,0.00000721,0.00005940,0.
 00006611,-0.00032484,0.00017617,0.00018382,-0.00024783,-0.00036294,-0.
 00007504,-0.00021308,0.00007016,0.00008077,0.00034035,0.00033663,0.000
 12868,0.00002232,0.00006492,0.00002715,0.00003671,0.00003149,0.0000118
 3,0.00002522,-0.00006220,-0.00003840,0.00009535,-0.00010216,0.00003114
 ,-0.00019209,-0.00015208,-0.00011867,-0.00259408,-0.01379231,-0.004646
 65,0.03157087,-0.02556458,-0.01419208,0.00252509,-0.16773982,-0.016648
 91,0.12550601,0.34188056,-0.00000553,-0.00004640,0.00000959,-0.0005786
 9,-0.00048080,-0.00110430,0.00081110,-0.00073244,0.00461558,-0.0004383
 9,-0.00006056,0.00027762,0.00002743,-0.00001072,-0.00005126,0.00066142
 ,0.00019327,-0.00002137,0.00019155,-0.00057092,-0.00035100,-0.00510914
 ,0.00236042,0.00654871,0.00004804,-0.00016583,0.00009045,-0.00001600,0
 .00004912,-0.00000368,-0.00005915,0.00004255,0.00007491,0.00000803,-0.
 00005581,-0.00004221,-0.00000014,0.00000852,0.00000496,0.00006434,0.00
 005913,0.00004329,0.00000054,-0.00000291,0.00000862,0.00000874,0.00000
 707,0.00000878,-0.00001365,-0.00000367,-0.00001138,-0.00001188,-0.0001
 2674,0.00000957,-0.00005377,-0.00003378,-0.00006294,-0.00027070,-0.008
 32997,-0.00360260,0.01579863,-0.01542694,0.00620447,-0.01792852,-0.024
 01949,-0.05137312,0.08207281,0.07986293,0.08907065,-0.00094060,0.00034
 166,0.00081018,0.00013878,0.00048004,-0.00177416,-0.04627468,0.0026969
 4,0.00568128,0.00154610,0.00085860,-0.00044816,0.00005523,0.00002032,0
 .00114679,0.00720995,-0.00362654,0.00294092,-0.00067944,0.00201087,0.0
 0044002,-0.18646209,-0.00037194,-0.00401565,-0.00252857,0.00095687,0.0
 0133897,0.00003843,0.00005867,0.00003019,0.00116845,-0.00001796,-0.000
 68198,0.00025363,0.00049697,-0.00015689,0.00069208,0.00002400,-0.00018
 029,-0.00000496,-0.00080167,0.00004276,0.00003556,-0.00021964,-0.00007
 899,-0.00005956,-0.00001537,0.00005951,-0.00013388,0.00007647,0.000156
 92,-0.00009097,-0.00001576,0.00014763,0.00016264,0.00066390,0.00000206
 ,0.03661690,0.06419520,0.03534976,-0.02836302,0.00345074,0.00410734,-0
 .01846022,-0.04866850,-0.01042021,-0.18756349,-0.05815608,-0.05207258,
 0.50479262,0.00099890,-0.00046645,0.00007560,-0.00341307,-0.00022695,-
 0.00340250,0.00684181,0.01216501,0.01713491,-0.00285127,-0.00186331,0.
 00074544,0.00015194,0.00010686,-0.00082150,-0.00407668,0.00038800,-0.0
 0194619,-0.00458818,-0.00097707,-0.00048735,0.03465317,-0.11458390,-0.
 01851878,0.00122625,-0.00030754,-0.00082001,-0.00006327,-0.00009340,-0
 .00006888,-0.00131459,-0.00007965,0.00044344,0.00014871,-0.00000175,0.
 00035990,-0.00050202,-0.00002617,0.00004038,-0.00061168,0.00028978,-0.
 00039261,-0.00007446,0.00008782,0.00001377,-0.00002210,0.00002555,-0.0
 0013402,0.00013003,0.00001636,-0.00016196,-0.00006322,-0.00045592,0.00
 001189,0.00038978,-0.00042613,0.00038848,0.02559784,-0.02818486,-0.021
 39834,-0.00000531,-0.00146400,0.00311300,-0.02153739,-0.02015734,-0.00
 669213,-0.02905365,-0.05369232,0.02201321,0.02307069,0.63441887,0.0009
 2719,-0.00030650,-0.00023057,0.00079955,0.00092242,-0.00086554,0.00681
 227,0.00965085,0.01104220,-0.00145997,-0.00137802,-0.00014193,-0.00002
 730,0.00008726,-0.00059410,-0.00782320,0.00153180,-0.00393354,-0.00338
 843,-0.00045838,0.00043145,0.03495305,-0.04740680,-0.06999799,0.000692
 43,0.00017071,-0.00144180,-0.00001950,-0.00015563,-0.00005550,-0.00087
 948,-0.00010581,0.00023875,-0.00006712,-0.00008826,0.00040075,-0.00050
 254,0.00000398,0.00007589,-0.00045630,0.00028367,-0.00044805,-0.000052
 87,0.00012671,0.00001158,-0.00003471,0.00003506,-0.00014244,0.00016045
 ,-0.00000144,-0.00011780,0.00010838,-0.00006039,0.00008252,0.00025400,
 -0.00030116,0.00052415,0.01946094,-0.00403557,-0.01048411,-0.00719968,
 0.00177770,0.00227476,-0.00526950,-0.00598342,0.00231228,-0.03571050,0
 .01966908,-0.03154591,0.02131844,0.30277966,0.40660343,-0.00224336,-0.
 00204630,-0.00088343,0.00058186,-0.00009696,0.00060964,0.00033348,0.00
 005450,-0.00074062,-0.00019061,0.00027120,-0.00007710,0.00002401,0.000
 19557,-0.00015354,-0.00059755,-0.00065960,-0.00011942,0.00002316,0.000
 09018,-0.00002727,0.00712603,-0.00294890,-0.00183861,0.00022275,0.0000
 7627,-0.00046886,-0.00134246,0.00005184,0.00092454,0.00038547,0.000577
 42,-0.00007960,-0.00057163,-0.00011475,-0.00023648,-0.00004419,0.00004
 787,0.00015864,-0.00014735,-0.00026586,0.00032320,-0.00001654,0.000014
 04,-0.00003258,0.00005933,0.00002904,0.00008939,-0.00004306,-0.0001017
 1,0.00014974,0.00004413,-0.00013394,-0.00002292,0.00033056,0.00028115,
 -0.00010770,-0.27067164,0.10701841,0.07895699,-0.01471085,0.01216002,0
 .00858508,-0.00216780,-0.00312213,-0.00187347,0.00060625,-0.00008205,-
 0.00013858,0.00083950,-0.00133317,-0.00034192,0.28235580,-0.00076743,-
 0.00090487,-0.00048014,-0.00097366,-0.00082781,-0.00040030,0.00208570,
 -0.00013207,0.00075890,0.00022428,0.00025695,0.00017398,0.00008794,-0.
 00026378,0.00026674,-0.00012962,0.00054144,0.00034230,0.00008166,-0.00
 009731,0.00018780,0.02747218,-0.01517238,-0.01240227,-0.00051401,0.000
 10390,-0.00039180,-0.00028141,0.00109522,0.00025947,0.00051211,0.00031
 465,0.00010679,0.00073741,0.00097343,0.00015559,0.00006761,-0.00009938
 ,0.00011566,-0.00100260,-0.00097878,-0.00051127,-0.00008526,-0.0000454
 1,-0.00001607,-0.00016789,-0.00020730,-0.00010767,-0.00010729,0.000017
 93,0.00008985,-0.00004082,-0.00001151,0.00004201,0.00049886,0.00000504
 ,0.00095631,0.10290057,-0.10493691,-0.04349670,-0.01330909,0.01122794,
 0.00267599,-0.00490209,0.00153083,-0.00422144,0.00171955,-0.00024757,0
 .00052248,-0.00704770,0.00001163,-0.00208217,-0.10961726,0.11138730,0.
 00028671,0.00043174,0.00022588,-0.00011283,-0.00041450,0.00034885,0.00
 129641,-0.00017361,-0.00058208,0.00001907,0.00013784,-0.00013472,-0.00
 005438,0.00006763,-0.00017230,-0.00008342,0.00086619,0.00008037,0.0001
 1028,0.00008700,-0.00002663,0.01336229,-0.00634681,-0.00059327,-0.0010
 5808,-0.00029885,-0.00022067,0.00037125,-0.00008369,0.00030852,0.00016
 046,-0.00000636,-0.00009565,-0.00080881,-0.00066836,-0.00046438,0.0001
 3005,0.00010399,-0.00004454,0.00145565,-0.00039897,0.00064928,0.000142
 78,0.00003538,0.00003182,0.00008847,0.00011187,0.00010108,0.00003907,0
 .00006540,0.00003184,-0.00001896,-0.00002162,0.00000049,-0.00075372,0.
 00108218,-0.00154034,0.07225195,-0.04636321,-0.07273378,-0.00183485,0.
 00132237,0.00953405,0.00200707,-0.00628343,0.00732183,-0.00118120,0.00
 166700,-0.00016394,-0.00012492,-0.00461906,0.00112443,-0.08301787,0.05
 550339,0.06236824,0.00001771,-0.00008197,-0.00001670,0.00006418,0.0000
 4969,-0.00017818,0.00106358,-0.00130603,0.00004937,-0.00011202,-0.0000
 3868,0.00005034,-0.00001270,-0.00000022,0.00001547,-0.00010098,0.00027
 043,-0.00006046,-0.00060677,-0.00007849,-0.00010244,-0.00390277,-0.003
 96262,-0.00132115,0.00014532,-0.00001023,-0.00004359,-0.00001570,-0.00
 000905,0.00002033,-0.00003297,0.00004632,0.00002378,-0.00010680,-0.000
 11550,-0.00001712,-0.00001986,0.00000384,0.00000420,0.00014235,0.00014
 802,0.00008087,0.00000639,0.00001791,0.00000050,0.00002004,0.00002065,
 0.00001425,-0.00000397,-0.00001831,-0.00000316,0.00000171,-0.00003092,
 0.00001908,-0.00005318,-0.00008993,-0.00008729,0.00253151,-0.02314113,
 -0.01309249,-0.05013804,-0.02055218,-0.00706311,-0.00135195,0.02570086
 ,0.01609025,0.00270778,-0.00059532,0.00032523,-0.00624480,0.00176331,0
 .00106428,0.00075869,0.00015792,-0.00044410,0.05090160,0.00000195,-0.0
 0001099,-0.00002633,0.00005340,-0.00001801,0.00009726,0.00066864,0.000
 23656,-0.00105494,0.00003795,0.00004944,0.00002095,-0.00000496,-0.0000
 1860,0.00000688,-0.00021036,0.00014272,0.00006349,-0.00016985,-0.00012
 375,0.00000571,-0.00396784,0.00525212,-0.00148443,0.00000669,-0.000052
 33,-0.00009097,0.00002128,0.00000055,-0.00003037,0.00001265,0.00002182
 ,0.00000925,-0.00003053,-0.00001791,-0.00002795,-0.00001838,0.00000976
 ,0.00001446,0.00005733,-0.00006804,0.00007133,0.00000747,0.00000789,0.
 00000034,0.00000481,0.00000115,0.00000954,-0.00000998,-0.00000345,-0.0
 0000629,-0.00000025,0.00000192,-0.00001240,-0.00002715,0.00006090,-0.0
 0006222,0.00183674,-0.00883531,-0.00444457,-0.02465403,-0.27881867,-0.
 13969722,-0.00068125,-0.00871106,-0.00614021,-0.00027396,0.00119515,-0
 .00092014,0.00323760,-0.00001890,0.00072391,-0.00002694,-0.00066301,0.
 00249698,0.02589300,0.28850518,0.00000930,0.00001626,0.00006526,-0.000
 08613,-0.00003906,-0.00029517,-0.00040105,-0.00142957,0.00198196,-0.00
 009328,-0.00001933,0.00002034,0.00001712,0.00000884,0.00000428,0.00045
 410,0.00005446,-0.00009000,0.00006546,0.00022324,-0.00001704,0.0042232
 5,-0.00344219,0.00606187,0.00003672,0.00004111,0.00014762,0.00000057,0
 .00000295,-0.00002542,0.00001690,0.00001767,-0.00000812,-0.00002864,-0
 .00008541,-0.00003248,0.00002738,-0.00000930,-0.00001735,0.00005515,0.
 00018001,-0.00004125,0.00000849,0.00000530,0.00000743,-0.00000300,0.00
 001006,-0.00000121,0.00000703,0.00000497,0.00000978,0.00000338,-0.0000
 2140,0.00002709,-0.00014291,-0.00017602,-0.00000853,0.00356861,0.00327
 030,-0.00011981,-0.01014686,-0.13771074,-0.10297465,-0.00674082,-0.006
 07223,0.00146165,0.00159518,-0.00554763,0.00012998,-0.00237850,-0.0007
 2908,-0.00223603,-0.00012252,0.00219478,-0.00373768,0.00899922,0.14760
 578,0.10154622,0.00077713,-0.00014931,0.00001616,0.00042075,0.00105702
 ,-0.00064347,0.00509884,0.00071921,0.00190975,-0.00115665,-0.00079654,
 0.00011641,-0.00000863,0.00007798,-0.00023132,-0.00265706,0.00105068,-
 0.00091721,0.00002728,-0.00010944,-0.00008561,-0.00296862,-0.00673346,
 -0.00250133,0.00139119,-0.00019782,-0.00050236,0.00004254,-0.00017835,
 -0.00012737,-0.00120073,-0.00003598,0.00039958,0.00005842,-0.00017581,
 0.00029225,-0.00030894,-0.00003322,0.00000124,-0.00054711,0.00075536,-
 0.00051113,-0.00007677,0.00008839,0.00002276,-0.00001673,-0.00000611,-
 0.00012934,0.00019572,-0.00004230,-0.00018520,0.00021084,-0.00001365,0
 .00000080,0.00020225,-0.00071126,0.00057938,0.00466803,0.01419816,0.00
 623462,-0.06831939,-0.02621689,0.02347364,-0.55288176,-0.23612850,0.08
 819329,-0.03455676,-0.06038459,0.00004998,0.00991154,0.00484139,0.0106
 1190,-0.00117833,0.00007746,-0.00196315,0.00286123,-0.00104939,0.00035
 224,0.64055603,0.00021440,-0.00028160,0.00000546,-0.00000274,0.0004533
 1,-0.00056483,0.00142350,0.00017391,0.00237345,-0.00057086,-0.00025136
 ,0.00009247,-0.00000765,0.00000005,-0.00007074,-0.00118533,0.00084504,
 -0.00046943,0.00016725,0.00007241,0.00000827,-0.00634905,-0.00016400,-
 0.00115801,0.00054809,-0.00013050,-0.00022376,0.00001667,-0.00001438,0
 .00001416,-0.00046910,0.00013049,0.00014951,-0.00016093,-0.00024302,0.
 00000849,-0.00011616,0.00000619,0.00001425,0.00010666,0.00034525,-0.00
 004186,0.00000199,0.00005201,0.00001678,0.00001181,0.00002310,-0.00002
 487,0.00006337,-0.00004736,-0.00006336,0.00009968,-0.00007792,0.000020
 67,-0.00005719,-0.00024603,0.00008999,0.00390893,0.00062650,-0.0031472
 5,0.00329247,0.02153008,-0.00047259,-0.26660148,-0.20131016,0.05486042
 ,-0.05409865,-0.06167922,-0.00183138,0.01319245,0.00003918,0.00347795,
 0.00020204,-0.00097412,0.00184912,-0.00395106,0.00165935,0.00150783,0.
 31503949,0.24285973,-0.00011189,-0.00008678,0.00000007,-0.00013964,-0.
 00001610,-0.00007500,-0.00099224,-0.00034258,-0.00008741,0.00016020,0.
 00010259,0.00000408,0.00000570,-0.00002339,0.00007103,0.00048443,-0.00
 022527,0.00019254,-0.00011159,0.00013926,0.00008553,0.00116891,-0.0009
 2967,-0.00050868,-0.00018966,0.00007476,0.00008420,-0.00001885,0.00008
 089,0.00003448,0.00017356,0.00002448,-0.00001939,0.00001518,0.00007307
 ,-0.00003953,0.00006323,-0.00000935,-0.00000191,0.00004342,-0.00018932
 ,0.00011320,-0.00000116,-0.00001864,-0.00000507,0.00001200,-0.00000422
 ,0.00002579,-0.00004128,0.00000702,0.00002111,-0.00003690,-0.00000329,
 -0.00000112,0.00002537,0.00016005,-0.00013363,0.00431689,-0.00340315,0
 .00090816,0.02959539,0.01197657,0.01545225,0.08154294,0.03816660,-0.08
 110915,0.00916553,0.00429289,0.01591682,-0.00326769,-0.00481766,-0.002
 93492,0.00094392,0.00110079,-0.00098711,-0.00384194,0.00235249,-0.0012
 8769,-0.11852050,-0.05089982,0.05351248,0.00021641,-0.00045687,-0.0000
 0094,0.00082817,0.00145485,0.00052991,-0.00181470,-0.00259785,0.000157
 20,-0.00024055,-0.00009321,0.00011239,-0.00019221,-0.00004831,0.000187
 45,-0.00116709,0.00251082,-0.00033282,-0.00092347,0.00362899,0.0023650
 5,0.00334848,0.04932926,0.04105035,0.00129101,0.00001023,-0.00009280,-
 0.00002350,0.00004422,0.00001898,-0.00064674,0.00021645,0.00029485,-0.
 00021317,-0.00028895,0.00001544,-0.00008481,-0.00007320,0.00001141,0.0
 0011547,0.00041612,0.00004536,-0.00000873,0.00009724,0.00002855,0.0000
 3452,0.00001975,-0.00001266,0.00005717,-0.00005760,-0.00009094,0.00014
 198,0.00006299,-0.00002485,-0.00015813,-0.00025787,-0.00002678,-0.0123
 6796,-0.01140123,-0.00509674,0.00636715,-0.00126694,-0.00087864,-0.003
 21618,0.01057893,0.00217618,-0.00128374,-0.02981323,-0.02337114,-0.085
 65515,-0.03030374,-0.03392983,0.00023437,0.00232290,-0.00026521,0.0014
 8042,-0.00071465,0.00070360,-0.00054431,-0.00471859,-0.00044334,0.0944
 2529,-0.00060845,-0.00002985,-0.00009981,0.00042819,-0.00073091,0.0008
 6554,-0.00980169,-0.00496694,-0.00507503,0.00113414,0.00120995,-0.0000
 6858,-0.00000473,-0.00012986,0.00046000,0.00247127,0.00025225,0.001462
 26,0.00279307,0.00001425,0.00043159,0.03162382,-0.03057204,-0.04687509
 ,-0.00062257,0.00037656,0.00057298,-0.00007881,0.00017571,0.00014042,0
 .00067482,0.00029684,-0.00016256,-0.00031935,-0.00020355,-0.00028524,0
 .00033246,-0.00001175,-0.00002245,0.00065693,-0.00007094,0.00044508,0.
 00005874,-0.00002128,-0.00000591,0.00004378,0.00002411,0.00010758,-0.0
 0009214,-0.00006031,0.00008776,0.00005246,0.00009903,-0.00000611,-0.00
 030092,0.00022558,-0.00040206,0.00460889,0.00578050,0.00097137,-0.0012
 3700,-0.00322670,-0.00077717,0.00345089,0.00849519,-0.00227865,-0.0442
 1962,-0.03761619,-0.05230019,0.00310915,-0.42452340,-0.27887719,-0.000
 51998,-0.00190406,-0.00014959,-0.00009032,0.00021552,0.00013841,-0.004
 94253,-0.00339692,0.00241775,0.01139951,0.49029922,-0.00053698,-0.0000
 4008,-0.00002458,-0.00002081,0.00007424,0.00072580,-0.00721556,-0.0025
 8339,-0.00463498,0.00099896,0.00071879,0.00000820,-0.00003960,-0.00007
 322,0.00042314,0.00233251,-0.00075259,0.00155503,0.00204134,0.00042665
 ,-0.00081686,0.02281887,-0.03975105,-0.01825632,-0.00030699,0.00000006
 ,0.00041933,-0.00003690,0.00012786,0.00012106,0.00047412,0.00015116,-0
 .00005924,-0.00021048,-0.00012733,-0.00027861,0.00023610,0.00000994,-0
 .00003556,0.00052410,-0.00009785,0.00044197,0.00004056,-0.00002143,0.0
 0000431,0.00005907,-0.00001795,0.00010999,-0.00009789,-0.00002488,0.00
 006204,-0.00003192,0.00007638,-0.00004424,-0.00020709,0.00017344,-0.00
 043021,0.00463804,0.00058063,0.00492988,0.00062039,-0.00147079,-0.0008
 2431,-0.00024259,0.00893418,0.00421083,-0.03785436,-0.05714377,-0.0346
 8032,0.00202726,-0.28210959,-0.29995195,-0.00045866,-0.00134301,-0.000
 62958,-0.00048544,0.00051968,-0.00057105,-0.00593601,-0.00552094,0.000
 76891,0.01686997,0.37928487,0.34745732\\-0.00000144,-0.00000402,0.0000
 0091,-0.00001001,-0.00000553,0.00000629,0.00001448,-0.00000190,-0.0000
 0122,0.00000897,0.00000032,0.00000808,0.00000208,-0.00000049,-0.000000
 53,0.00000039,0.00000848,0.00000574,-0.00000334,-0.00000366,0.00000206
 ,-0.00000836,-0.00000845,-0.00001550,-0.00000133,-0.00000188,-0.000001
 11,0.00000078,0.00000293,-0.00000251,-0.00000033,0.00000745,-0.0000041
 8,-0.00000651,0.00000324,-0.00000126,0.00000035,-0.00000231,0.00000085
 ,0.00000685,-0.00000299,-0.00000121,-0.00000163,-0.00000089,-0.0000023
 0,0.00000157,-0.00000190,-0.00000043,0.00000167,-0.00000211,0.00000186
 ,0.,0.00000551,-0.00000208,0.00000123,0.00000270,-0.00000115,-0.000000
 80,0.00000208,0.00000707,-0.00000525,-0.00000299,-0.00000280,0.0000193
 0,0.00000495,-0.00000257,-0.00000930,0.00000162,-0.00000370,-0.0000017
 4,0.00001421,0.00001561,-0.00000100,0.00000153,-0.00000337,0.00000172,
 -0.00000092,0.00000069,-0.00000977,-0.00000625,-0.00000101,0.00000143,
 -0.00000875,-0.00000222\\\@
 The archive entry for this job was punched.


 HAPPINESS IS NOT HAVING WHAT YOU WANT --
 HAPPINESS IS WANTING WHAT YOU HAVE!

              -- FROM MRS. SEVERN'S DESK
 Job cpu time:       0 days 17 hours 22 minutes 37.4 seconds.
 Elapsed time:       0 days  0 hours 26 minutes 16.7 seconds.
 File lengths (MBytes):  RWF=   1167 Int=      0 D2E=      0 Chk=     28 Scr=      1
 Normal termination of Gaussian 16 at Sun Oct 27 01:01:01 2024.
