 Entering Gaussian System, Link 0=g16
 Input=UridineMNsrrgPBE0aVDZ.gjf
 Output=UridineMNsrrgPBE0aVDZ.log
 Initial command:
 /sw/contrib/chem-src/g16/c01/g16/l1.exe "/scr/Gau-8251.inp" -scrdir="/scr/"
 Entering Link 1 = /sw/contrib/chem-src/g16/c01/g16/l1.exe PID=      8252.
  
 Copyright (c) 1988-2019, Gaussian, Inc.  All Rights Reserved.
  
 This is part of the Gaussian(R) 16 program.  It is based on
 the Gaussian(R) 09 system (copyright 2009, Gaussian, Inc.),
 the Gaussian(R) 03 system (copyright 2003, Gaussian, Inc.),
 the Gaussian(R) 98 system (copyright 1998, Gaussian, Inc.),
 the Gaussian(R) 94 system (copyright 1995, Gaussian, Inc.),
 the Gaussian 92(TM) system (copyright 1992, Gaussian, Inc.),
 the Gaussian 90(TM) system (copyright 1990, Gaussian, Inc.),
 the Gaussian 88(TM) system (copyright 1988, Gaussian, Inc.),
 the Gaussian 86(TM) system (copyright 1986, Carnegie Mellon
 University), and the Gaussian 82(TM) system (copyright 1983,
 Carnegie Mellon University). Gaussian is a federally registered
 trademark of Gaussian, Inc.
  
 This software contains proprietary and confidential information,
 including trade secrets, belonging to Gaussian, Inc.
  
 This software is provided under written license and may be
 used, copied, transmitted, or stored only in accord with that
 written license.
  
 The following legend is applicable only to US Government
 contracts under FAR:
  
                    RESTRICTED RIGHTS LEGEND
  
 Use, reproduction and disclosure by the US Government is
 subject to restrictions as set forth in subparagraphs (a)
 and (c) of the Commercial Computer Software - Restricted
 Rights clause in FAR 52.227-19.
  
 Gaussian, Inc.
 340 Quinnipiac St., Bldg. 40, Wallingford CT 06492
  
  
 ---------------------------------------------------------------
 Warning -- This program may not be used in any manner that
 competes with the business of Gaussian, Inc. or will provide
 assistance to any competitor of Gaussian, Inc.  The licensee
 of this program is prohibited from giving any competitor of
 Gaussian, Inc. access to this program.  By using this program,
 the user acknowledges that Gaussian, Inc. is engaged in the
 business of creating and licensing software in the field of
 computational chemistry and represents and warrants to the
 licensee that it is not a competitor of Gaussian, Inc. and that
 it will not use this program in any manner prohibited above.
 ---------------------------------------------------------------
  

 Cite this work as:
 Gaussian 16, Revision C.01,
 M. J. Frisch, G. W. Trucks, H. B. Schlegel, G. E. Scuseria, 
 M. A. Robb, J. R. Cheeseman, G. Scalmani, V. Barone, 
 G. A. Petersson, H. Nakatsuji, X. Li, M. Caricato, A. V. Marenich, 
 J. Bloino, B. G. Janesko, R. Gomperts, B. Mennucci, H. P. Hratchian, 
 J. V. Ortiz, A. F. Izmaylov, J. L. Sonnenberg, D. Williams-Young, 
 F. Ding, F. Lipparini, F. Egidi, J. Goings, B. Peng, A. Petrone, 
 T. Henderson, D. Ranasinghe, V. G. Zakrzewski, J. Gao, N. Rega, 
 G. Zheng, W. Liang, M. Hada, M. Ehara, K. Toyota, R. Fukuda, 
 J. Hasegawa, M. Ishida, T. Nakajima, Y. Honda, O. Kitao, H. Nakai, 
 T. Vreven, K. Throssell, J. A. Montgomery, Jr., J. E. Peralta, 
 F. Ogliaro, M. J. Bearpark, J. J. Heyd, E. N. Brothers, K. N. Kudin, 
 V. N. Staroverov, T. A. Keith, R. Kobayashi, J. Normand, 
 K. Raghavachari, A. P. Rendell, J. C. Burant, S. S. Iyengar, 
 J. Tomasi, M. Cossi, J. M. Millam, M. Klene, C. Adamo, R. Cammi, 
 J. W. Ochterski, R. L. Martin, K. Morokuma, O. Farkas, 
 J. B. Foresman, and D. J. Fox, Gaussian, Inc., Wallingford CT, 2019.
 
 ******************************************
 Gaussian 16:  EM64L-G16RevC.01  3-Jul-2019
                24-Oct-2024 
 ******************************************
 %nprocshared=40
 Will use up to   40 processors via shared memory.
 %mem=50gb
 ------------------------------------------------------
 # PBE1PBE/aug-cc-pVDZ opt freq EmpiricalDispersion=GD3
 ------------------------------------------------------
 1/18=20,19=15,26=3,38=1/1,3;
 2/9=110,12=2,17=6,18=5,40=1/2;
 3/5=16,7=10,11=2,25=1,30=1,71=1,74=-13,124=31/1,2,3;
 4//1;
 5/5=2,38=5/2;
 6/7=2,8=2,9=2,10=2,28=1/1;
 7//1,2,3,16;
 1/18=20,19=15,26=3/3(2);
 2/9=110/2;
 99//99;
 2/9=110/2;
 3/5=16,7=10,11=2,25=1,30=1,71=1,74=-13,124=31/1,2,3;
 4/5=5,16=3,69=1/1;
 5/5=2,38=5/2;
 7//1,2,3,16;
 1/18=20,19=15,26=3/3(-5);
 2/9=110/2;
 6/7=2,8=2,9=2,10=2,19=2,28=1/1;
 99/9=1/99;
 ----
 blah
 ----
 Symbolic Z-matrix:
 Charge = -1 Multiplicity = 1
 C                    -2.24604  -0.05287   0.79198 
 C                    -1.25513  -1.22464   0.72202 
 C                    -0.39274  -0.87348  -0.50178 
 O                    -1.94141  -2.4197    0.44458 
 H                    -0.63496  -1.32582   1.62758 
 O                    -1.10616   0.10454  -1.24428 
 H                    -0.2193   -1.77362  -1.0999 
 N                     0.92366  -0.34457  -0.17674 
 C                    -2.39251   0.32898  -0.67615 
 H                    -1.82553   0.79274   1.35448 
 O                    -3.50633  -0.43146   1.31412 
 C                    -2.77628   1.77478  -0.9172 
 H                    -3.143    -0.3352   -1.13785 
 O                    -1.81022   2.67158  -0.40192 
 H                    -3.72127   1.9791   -0.39664 
 H                    -2.93833   1.94068  -1.99384 
 H                    -3.51874  -0.26816   2.26141 
 H                    -2.82464  -2.32765   0.82888 
 H                    -1.02889   2.59201  -0.95947 
 C                     1.05153   0.86756   0.4564 
 C                     2.24191   1.41564   0.77812 
 C                     3.46841   0.71346   0.44526 
 N                     3.24367  -0.50458  -0.20695 
 C                     2.04447  -1.09035  -0.54662 
 H                     0.1135    1.37949   0.66437 
 H                     2.31106   2.37785   1.27603 
 O                     4.60361   1.08829   0.67758 
 O                     1.97682  -2.16405  -1.11327 
 

 GradGradGradGradGradGradGradGradGradGradGradGradGradGradGradGradGradGrad
 Berny optimization.
 Initialization pass.
                           ----------------------------
                           !    Initial Parameters    !
                           ! (Angstroms and Degrees)  !
 --------------------------                            --------------------------
 ! Name  Definition              Value          Derivative Info.                !
 --------------------------------------------------------------------------------
 ! R1    R(1,2)                  1.5362         estimate D2E/DX2                !
 ! R2    R(1,9)                  1.524          estimate D2E/DX2                !
 ! R3    R(1,10)                 1.0992         estimate D2E/DX2                !
 ! R4    R(1,11)                 1.4157         estimate D2E/DX2                !
 ! R5    R(2,3)                  1.5378         estimate D2E/DX2                !
 ! R6    R(2,4)                  1.4057         estimate D2E/DX2                !
 ! R7    R(2,5)                  1.1022         estimate D2E/DX2                !
 ! R8    R(3,6)                  1.4201         estimate D2E/DX2                !
 ! R9    R(3,7)                  1.0946         estimate D2E/DX2                !
 ! R10   R(3,8)                  1.4554         estimate D2E/DX2                !
 ! R11   R(4,18)                 0.9676         estimate D2E/DX2                !
 ! R12   R(6,9)                  1.424          estimate D2E/DX2                !
 ! R13   R(8,20)                 1.3735         estimate D2E/DX2                !
 ! R14   R(8,24)                 1.3961         estimate D2E/DX2                !
 ! R15   R(9,12)                 1.5152         estimate D2E/DX2                !
 ! R16   R(9,13)                 1.1034         estimate D2E/DX2                !
 ! R17   R(11,17)                0.9613         estimate D2E/DX2                !
 ! R18   R(12,14)                1.4153         estimate D2E/DX2                !
 ! R19   R(12,15)                1.0981         estimate D2E/DX2                !
 ! R20   R(12,16)                1.1013         estimate D2E/DX2                !
 ! R21   R(14,19)                0.9632         estimate D2E/DX2                !
 ! R22   R(20,21)                1.3494         estimate D2E/DX2                !
 ! R23   R(20,25)                1.0887         estimate D2E/DX2                !
 ! R24   R(21,22)                1.452          estimate D2E/DX2                !
 ! R25   R(21,26)                1.0856         estimate D2E/DX2                !
 ! R26   R(22,23)                1.3998         estimate D2E/DX2                !
 ! R27   R(22,27)                1.2178         estimate D2E/DX2                !
 ! R28   R(23,24)                1.3772         estimate D2E/DX2                !
 ! R29   R(24,28)                1.2159         estimate D2E/DX2                !
 ! A1    A(2,1,9)              102.0778         estimate D2E/DX2                !
 ! A2    A(2,1,10)             111.3045         estimate D2E/DX2                !
 ! A3    A(2,1,11)             112.7706         estimate D2E/DX2                !
 ! A4    A(9,1,10)             109.6929         estimate D2E/DX2                !
 ! A5    A(9,1,11)             109.6783         estimate D2E/DX2                !
 ! A6    A(10,1,11)            110.9491         estimate D2E/DX2                !
 ! A7    A(1,2,3)              102.9327         estimate D2E/DX2                !
 ! A8    A(1,2,4)              110.0317         estimate D2E/DX2                !
 ! A9    A(1,2,5)              113.3            estimate D2E/DX2                !
 ! A10   A(3,2,4)              108.1106         estimate D2E/DX2                !
 ! A11   A(3,2,5)              111.0543         estimate D2E/DX2                !
 ! A12   A(4,2,5)              111.0263         estimate D2E/DX2                !
 ! A13   A(2,3,6)              106.9552         estimate D2E/DX2                !
 ! A14   A(2,3,7)              109.6301         estimate D2E/DX2                !
 ! A15   A(2,3,8)              114.3611         estimate D2E/DX2                !
 ! A16   A(6,3,7)              111.1158         estimate D2E/DX2                !
 ! A17   A(6,3,8)              108.7153         estimate D2E/DX2                !
 ! A18   A(7,3,8)              106.115          estimate D2E/DX2                !
 ! A19   A(2,4,18)             106.6406         estimate D2E/DX2                !
 ! A20   A(3,6,9)              110.7163         estimate D2E/DX2                !
 ! A21   A(3,8,20)             120.5217         estimate D2E/DX2                !
 ! A22   A(3,8,24)             118.2169         estimate D2E/DX2                !
 ! A23   A(20,8,24)            121.2519         estimate D2E/DX2                !
 ! A24   A(1,9,6)              104.9531         estimate D2E/DX2                !
 ! A25   A(1,9,12)             114.6253         estimate D2E/DX2                !
 ! A26   A(1,9,13)             108.5197         estimate D2E/DX2                !
 ! A27   A(6,9,12)             108.4041         estimate D2E/DX2                !
 ! A28   A(6,9,13)             110.6456         estimate D2E/DX2                !
 ! A29   A(12,9,13)            109.6048         estimate D2E/DX2                !
 ! A30   A(1,11,17)            109.2381         estimate D2E/DX2                !
 ! A31   A(9,12,14)            111.9522         estimate D2E/DX2                !
 ! A32   A(9,12,15)            108.6697         estimate D2E/DX2                !
 ! A33   A(9,12,16)            109.6656         estimate D2E/DX2                !
 ! A34   A(14,12,15)           107.2737         estimate D2E/DX2                !
 ! A35   A(14,12,16)           111.1552         estimate D2E/DX2                !
 ! A36   A(15,12,16)           107.9862         estimate D2E/DX2                !
 ! A37   A(12,14,19)           106.8957         estimate D2E/DX2                !
 ! A38   A(8,20,21)            123.3996         estimate D2E/DX2                !
 ! A39   A(8,20,25)            115.0131         estimate D2E/DX2                !
 ! A40   A(21,20,25)           121.5707         estimate D2E/DX2                !
 ! A41   A(20,21,22)           119.6102         estimate D2E/DX2                !
 ! A42   A(20,21,26)           121.704          estimate D2E/DX2                !
 ! A43   A(22,21,26)           118.6841         estimate D2E/DX2                !
 ! A44   A(21,22,23)           113.0788         estimate D2E/DX2                !
 ! A45   A(21,22,27)           126.4996         estimate D2E/DX2                !
 ! A46   A(23,22,27)           120.4215         estimate D2E/DX2                !
 ! A47   A(22,23,24)           128.67           estimate D2E/DX2                !
 ! A48   A(8,24,23)            113.9849         estimate D2E/DX2                !
 ! A49   A(8,24,28)            123.4001         estimate D2E/DX2                !
 ! A50   A(23,24,28)           122.6144         estimate D2E/DX2                !
 ! D1    D(9,1,2,3)             31.0168         estimate D2E/DX2                !
 ! D2    D(9,1,2,4)            -84.0203         estimate D2E/DX2                !
 ! D3    D(9,1,2,5)            151.0319         estimate D2E/DX2                !
 ! D4    D(10,1,2,3)           -85.9406         estimate D2E/DX2                !
 ! D5    D(10,1,2,4)           159.0223         estimate D2E/DX2                !
 ! D6    D(10,1,2,5)            34.0745         estimate D2E/DX2                !
 ! D7    D(11,1,2,3)           148.6162         estimate D2E/DX2                !
 ! D8    D(11,1,2,4)            33.5792         estimate D2E/DX2                !
 ! D9    D(11,1,2,5)           -91.3687         estimate D2E/DX2                !
 ! D10   D(2,1,9,6)            -34.876          estimate D2E/DX2                !
 ! D11   D(2,1,9,12)          -153.6852         estimate D2E/DX2                !
 ! D12   D(2,1,9,13)            83.4403         estimate D2E/DX2                !
 ! D13   D(10,1,9,6)            83.2371         estimate D2E/DX2                !
 ! D14   D(10,1,9,12)          -35.5721         estimate D2E/DX2                !
 ! D15   D(10,1,9,13)         -158.4466         estimate D2E/DX2                !
 ! D16   D(11,1,9,6)          -154.6695         estimate D2E/DX2                !
 ! D17   D(11,1,9,12)           86.5213         estimate D2E/DX2                !
 ! D18   D(11,1,9,13)          -36.3533         estimate D2E/DX2                !
 ! D19   D(2,1,11,17)           93.6383         estimate D2E/DX2                !
 ! D20   D(9,1,11,17)         -153.3377         estimate D2E/DX2                !
 ! D21   D(10,1,11,17)         -31.9971         estimate D2E/DX2                !
 ! D22   D(1,2,3,6)            -17.1502         estimate D2E/DX2                !
 ! D23   D(1,2,3,7)           -137.7213         estimate D2E/DX2                !
 ! D24   D(1,2,3,8)            103.2663         estimate D2E/DX2                !
 ! D25   D(4,2,3,6)             99.2653         estimate D2E/DX2                !
 ! D26   D(4,2,3,7)            -21.3058         estimate D2E/DX2                !
 ! D27   D(4,2,3,8)           -140.3182         estimate D2E/DX2                !
 ! D28   D(5,2,3,6)           -138.702          estimate D2E/DX2                !
 ! D29   D(5,2,3,7)            100.7269         estimate D2E/DX2                !
 ! D30   D(5,2,3,8)            -18.2855         estimate D2E/DX2                !
 ! D31   D(1,2,4,18)           -30.2549         estimate D2E/DX2                !
 ! D32   D(3,2,4,18)          -141.963          estimate D2E/DX2                !
 ! D33   D(5,2,4,18)            95.9871         estimate D2E/DX2                !
 ! D34   D(2,3,6,9)             -5.0114         estimate D2E/DX2                !
 ! D35   D(7,3,6,9)            114.6076         estimate D2E/DX2                !
 ! D36   D(8,3,6,9)           -128.9698         estimate D2E/DX2                !
 ! D37   D(2,3,8,20)           -65.7266         estimate D2E/DX2                !
 ! D38   D(2,3,8,24)           115.3785         estimate D2E/DX2                !
 ! D39   D(6,3,8,20)            53.7059         estimate D2E/DX2                !
 ! D40   D(6,3,8,24)          -125.189          estimate D2E/DX2                !
 ! D41   D(7,3,8,20)           173.2969         estimate D2E/DX2                !
 ! D42   D(7,3,8,24)            -5.598          estimate D2E/DX2                !
 ! D43   D(3,6,9,1)             25.4819         estimate D2E/DX2                !
 ! D44   D(3,6,9,12)           148.3972         estimate D2E/DX2                !
 ! D45   D(3,6,9,13)           -91.3872         estimate D2E/DX2                !
 ! D46   D(3,8,20,21)         -179.6221         estimate D2E/DX2                !
 ! D47   D(3,8,20,25)           -1.084          estimate D2E/DX2                !
 ! D48   D(24,8,20,21)          -0.7611         estimate D2E/DX2                !
 ! D49   D(24,8,20,25)         177.7769         estimate D2E/DX2                !
 ! D50   D(3,8,24,23)          179.4941         estimate D2E/DX2                !
 ! D51   D(3,8,24,28)           -0.7846         estimate D2E/DX2                !
 ! D52   D(20,8,24,23)           0.6077         estimate D2E/DX2                !
 ! D53   D(20,8,24,28)        -179.671          estimate D2E/DX2                !
 ! D54   D(1,9,12,14)           60.6447         estimate D2E/DX2                !
 ! D55   D(1,9,12,15)          -57.6573         estimate D2E/DX2                !
 ! D56   D(1,9,12,16)         -175.4894         estimate D2E/DX2                !
 ! D57   D(6,9,12,14)          -56.2054         estimate D2E/DX2                !
 ! D58   D(6,9,12,15)         -174.5075         estimate D2E/DX2                !
 ! D59   D(6,9,12,16)           67.6605         estimate D2E/DX2                !
 ! D60   D(13,9,12,14)        -177.0675         estimate D2E/DX2                !
 ! D61   D(13,9,12,15)          64.6305         estimate D2E/DX2                !
 ! D62   D(13,9,12,16)         -53.2016         estimate D2E/DX2                !
 ! D63   D(9,12,14,19)          70.1836         estimate D2E/DX2                !
 ! D64   D(15,12,14,19)       -170.6877         estimate D2E/DX2                !
 ! D65   D(16,12,14,19)        -52.8431         estimate D2E/DX2                !
 ! D66   D(8,20,21,22)           0.2735         estimate D2E/DX2                !
 ! D67   D(8,20,21,26)         179.7977         estimate D2E/DX2                !
 ! D68   D(25,20,21,22)       -178.1715         estimate D2E/DX2                !
 ! D69   D(25,20,21,26)          1.3527         estimate D2E/DX2                !
 ! D70   D(20,21,22,23)          0.2758         estimate D2E/DX2                !
 ! D71   D(20,21,22,27)       -179.843          estimate D2E/DX2                !
 ! D72   D(26,21,22,23)       -179.2627         estimate D2E/DX2                !
 ! D73   D(26,21,22,27)          0.6184         estimate D2E/DX2                !
 ! D74   D(21,22,23,24)         -0.4093         estimate D2E/DX2                !
 ! D75   D(27,22,23,24)        179.7015         estimate D2E/DX2                !
 ! D76   D(22,23,24,8)          -0.0213         estimate D2E/DX2                !
 ! D77   D(22,23,24,28)       -179.745          estimate D2E/DX2                !
 --------------------------------------------------------------------------------
 Trust Radius=3.00D-01 FncErr=1.00D-07 GrdErr=1.00D-06 EigMax=2.50D+02 EigMin=1.00D-04
 Number of steps in this run=    166 maximum allowed number of steps=    168.
 GradGradGradGradGradGradGradGradGradGradGradGradGradGradGradGradGradGrad

                          Input orientation:                          
 ---------------------------------------------------------------------
 Center     Atomic      Atomic             Coordinates (Angstroms)
 Number     Number       Type             X           Y           Z
 ---------------------------------------------------------------------
      1          6           0       -2.246044   -0.052873    0.791976
      2          6           0       -1.255133   -1.224639    0.722016
      3          6           0       -0.392741   -0.873478   -0.501784
      4          8           0       -1.941405   -2.419697    0.444582
      5          1           0       -0.634956   -1.325815    1.627578
      6          8           0       -1.106163    0.104540   -1.244281
      7          1           0       -0.219295   -1.773617   -1.099900
      8          7           0        0.923656   -0.344567   -0.176740
      9          6           0       -2.392512    0.328976   -0.676145
     10          1           0       -1.825525    0.792735    1.354479
     11          8           0       -3.506326   -0.431462    1.314122
     12          6           0       -2.776282    1.774779   -0.917195
     13          1           0       -3.143002   -0.335203   -1.137846
     14          8           0       -1.810220    2.671580   -0.401924
     15          1           0       -3.721272    1.979098   -0.396639
     16          1           0       -2.938327    1.940678   -1.993840
     17          1           0       -3.518735   -0.268164    2.261411
     18          1           0       -2.824641   -2.327648    0.828881
     19          1           0       -1.028892    2.592010   -0.959467
     20          6           0        1.051528    0.867564    0.456396
     21          6           0        2.241911    1.415638    0.778121
     22          6           0        3.468414    0.713456    0.445263
     23          7           0        3.243667   -0.504581   -0.206948
     24          6           0        2.044471   -1.090354   -0.546617
     25          1           0        0.113497    1.379488    0.664371
     26          1           0        2.311060    2.377850    1.276027
     27          8           0        4.603608    1.088294    0.677583
     28          8           0        1.976816   -2.164053   -1.113269
 ---------------------------------------------------------------------
                    Distance matrix (angstroms):
                    1          2          3          4          5
     1  C    0.000000
     2  C    1.536175   0.000000
     3  C    2.404566   1.537765   0.000000
     4  O    2.411502   1.405739   2.384274   0.000000
     5  H    2.216803   1.102224   2.190310   2.074335   0.000000
     6  O    2.338899   2.378073   1.420138   3.149867   3.242765
     7  H    3.263107   2.166498   1.094567   2.401772   2.795074
     8  N    3.327235   2.515832   1.455439   3.591766   2.578310
     9  C    1.524021   2.379539   2.339953   3.002454   3.336836
    10  H    1.099226   2.189784   2.876604   3.340817   2.445463
    11  O    1.415725   2.459185   3.631433   2.675473   3.023721
    12  C    2.557876   3.741312   3.587074   4.488328   4.546958
    13  H    2.146732   2.795395   2.873717   2.879762   3.862535
    14  O    3.006324   4.092907   3.819248   5.162837   4.634576
    15  H    2.778131   4.194897   4.384902   4.819230   4.954316
    16  H    3.494892   4.497582   4.077464   5.094372   5.393530
    17  H    1.955846   2.899737   4.215862   3.227682   3.136328
    18  H    2.347496   1.921303   3.130402   0.967608   2.536988
    19  H    3.397708   4.176767   3.552994   5.284055   4.711405
    20  C    3.440029   3.125468   2.456674   4.445658   3.004465
    21  C    4.722124   4.382183   3.717472   5.685172   4.063681
    22  C    5.776028   5.113189   4.280628   6.251623   4.732245
    23  N    5.598108   4.649802   3.666944   5.565710   4.368481
    24  C    4.612669   3.537633   2.447253   4.317040   3.458597
    25  H    2.763218   2.942439   2.586900   4.324897   2.967594
    26  H    5.187477   5.099273   4.587187   6.464613   4.745496
    27  O    6.945004   6.298927   5.495722   7.429501   5.845765
    28  O    5.091128   3.833571   2.766640   4.224300   3.877659
                    6          7          8          9         10
     6  O    0.000000
     7  H    2.082031   0.000000
     8  N    2.336987   2.049572   0.000000
     9  C    1.424024   3.053414   3.420531   0.000000
    10  H    2.782921   3.897450   3.346055   2.158699   0.000000
    11  O    3.548733   4.293420   4.674929   2.404165   2.079755
    12  C    2.384530   4.377520   4.327753   1.515167   2.651198
    13  H    2.086484   3.258610   4.178698   1.103420   3.036392
    14  O    2.791945   4.772629   4.077000   2.429414   2.572012
    15  H    3.327350   5.180858   5.198378   2.136967   2.840375
    16  H    2.700012   4.689163   4.841395   2.152166   3.710437
    17  H    4.271919   4.944806   5.068062   3.202216   2.194309
    18  H    3.628596   3.288613   4.358166   3.083746   3.318324
    19  H    2.504915   4.442282   3.612283   2.657264   3.037493
    20  C    2.851340   3.318567   1.373490   3.665261   3.014894
    21  C    4.125371   4.444755   2.397473   4.977309   4.155025
    22  C    4.914478   4.708743   2.825260   5.979618   5.372034
    23  N    4.513104   3.794723   2.325719   5.716772   5.460567
    24  C    3.441076   2.428499   1.396150   4.660268   4.705004
    25  H    2.599234   3.628426   2.082352   3.029957   2.140172
    26  H    4.816358   5.411322   3.383338   5.489303   4.430585
    27  O    6.104328   5.883058   4.040421   7.166229   6.471421
    28  O    3.829940   2.230588   2.301469   5.049485   5.412040
                   11         12         13         14         15
    11  O    0.000000
    12  C    3.221683   0.000000
    13  H    2.480608   2.152950   0.000000
    14  O    3.930707   1.415285   3.370257   0.000000
    15  H    2.963732   1.098058   2.497954   2.032653   0.000000
    16  H    4.110022   1.101338   2.440134   2.083516   1.779194
    17  H    0.961341   3.850765   3.420617   4.319082   3.486608
    18  H    2.072601   4.458815   2.817660   5.247496   4.566608
    19  H    4.521976   1.929514   3.615226   0.963151   2.818039
    20  C    4.816347   4.166764   4.645679   3.490099   4.974213
    21  C    6.061461   5.308987   5.977764   4.403369   6.103859
    22  C    7.121289   6.479115   6.878717   5.693501   7.348621
    23  N    6.919639   6.476088   6.456377   5.972252   7.396960
    24  C    5.891336   5.620140   5.275384   5.388110   6.533592
    25  H    4.099370   3.317895   4.097919   2.550916   4.023770
    26  H    6.460315   5.572698   6.552422   4.459456   6.272627
    27  O    8.275619   7.581382   8.082827   6.693976   8.441037
    28  O    6.241710   6.176146   5.436712   6.183122   7.081488
                   16         17         18         19         20
    16  H    0.000000
    17  H    4.829391   0.000000
    18  H    5.118524   2.602957   0.000000
    19  H    2.267180   4.975336   5.534071   0.000000
    20  C    4.803558   5.043338   5.037143   3.050660   0.000000
    21  C    5.898669   6.182263   6.299581   3.886028   1.349409
    22  C    6.964311   7.285755   6.999858   5.072277   2.421820
    23  N    6.883990   7.202692   6.420349   5.330096   2.669884
    24  C    6.009150   6.285720   5.208756   4.814126   2.413589
    25  H    4.085909   4.296324   4.733136   2.326395   1.088679
    26  H    6.199937   6.477568   6.979762   4.024746   2.130535
    27  O    8.046356   8.385758   8.177434   6.055258   3.565798
    28  O    6.463966   6.721900   5.181959   5.628328   3.537048
                   21         22         23         24         25
    21  C    0.000000
    22  C    1.451952   0.000000
    23  N    2.379310   1.399823   0.000000
    24  C    2.841463   2.503032   1.377162   0.000000
    25  H    2.131758   3.427401   3.755912   3.360844   0.000000
    26  H    1.085608   2.190855   3.373037   3.927027   2.490007
    27  O    2.386394   1.217843   2.273562   3.576920   4.499563
    28  O    4.057317   3.596379   2.276000   1.215936   4.380485
                   26         27         28
    26  H    0.000000
    27  O    2.697567   0.000000
    28  O    5.142892   4.548071   0.000000
 Stoichiometry    C9H11N2O6(1-)
 Framework group  C1[X(C9H11N2O6)]
 Deg. of freedom    78
 Full point group                 C1      NOp   1
 Largest Abelian subgroup         C1      NOp   1
 Largest concise Abelian subgroup C1      NOp   1
                         Standard orientation:                         
 ---------------------------------------------------------------------
 Center     Atomic      Atomic             Coordinates (Angstroms)
 Number     Number       Type             X           Y           Z
 ---------------------------------------------------------------------
      1          6           0       -2.212219   -0.045266    0.794410
      2          6           0       -1.231195   -1.224922    0.718002
      3          6           0       -0.369393   -0.877051   -0.507153
      4          8           0       -1.928066   -2.413421    0.438822
      5          1           0       -0.609322   -1.334023    1.621479
      6          8           0       -1.076826    0.109116   -1.244584
      7          1           0       -0.205054   -1.776716   -1.108545
      8          7           0        0.952227   -0.360007   -0.184218
      9          6           0       -2.359675    0.342354   -0.672099
     10          1           0       -1.783165    0.795094    1.358331
     11          8           0       -3.474100   -0.415100    1.318964
     12          6           0       -2.732202    1.792011   -0.907577
     13          1           0       -3.116909   -0.314183   -1.133718
     14          8           0       -1.757337    2.679221   -0.392281
     15          1           0       -3.674005    2.002474   -0.383704
     16          1           0       -2.895909    1.962597   -1.983238
     17          1           0       -3.482493   -0.254662    2.266786
     18          1           0       -2.809427   -2.315307    0.825915
     19          1           0       -0.978266    2.594965   -0.952289
     20          6           0        1.091863    0.849050    0.452302
     21          6           0        2.287623    1.386304    0.772336
     22          6           0        3.507357    0.675096    0.433817
     23          7           0        3.270747   -0.539009   -0.221522
     24          6           0        2.065814   -1.113833   -0.559590
     25          1           0        0.158671    1.368023    0.664530
     26          1           0        2.366098    2.346356    1.273021
     27          8           0        4.646250    1.039854    0.664066
     28          8           0        1.987720   -2.185165   -1.129370
 ---------------------------------------------------------------------
 Rotational constants (GHZ):           0.8184343           0.3123682           0.2623358
 Standard basis: Aug-CC-pVDZ (5D, 7F)
 There are   524 symmetry adapted cartesian basis functions of A   symmetry.
 There are   490 symmetry adapted basis functions of A   symmetry.
   490 basis functions,   852 primitive gaussians,   524 cartesian basis functions
    64 alpha electrons       64 beta electrons
       nuclear repulsion energy      1301.4812952322 Hartrees.
 NAtoms=   28 NActive=   28 NUniq=   28 SFac= 1.00D+00 NAtFMM=   60 NAOKFM=F Big=F
 Integral buffers will be    131072 words long.
 Raffenetti 2 integral format.
 Two-electron integral symmetry is turned on.
 Nuclear repulsion after empirical dispersion term =     1301.4617025420 Hartrees.
 One-electron integrals computed using PRISM.
 NBasis=   490 RedAO= T EigKep=  3.20D-06  NBF=   490
 NBsUse=   490 1.00D-06 EigRej= -1.00D+00 NBFU=   490
 ExpMin= 2.97D-02 ExpMax= 1.17D+04 ExpMxC= 4.01D+02 IAcc=3 IRadAn=         5 AccDes= 0.00D+00
 Harris functional with IExCor= 1009 and IRadAn=       5 diagonalized for initial guess.
 HarFok:  IExCor= 1009 AccDes= 0.00D+00 IRadAn=         5 IDoV= 1 UseB2=F ITyADJ=14
 ICtDFT=  3500011 ScaDFX=  1.000000  1.000000  1.000000  1.000000
 FoFCou: FMM=F IPFlag=           0 FMFlag=      100000 FMFlg1=           0
         NFxFlg=           0 DoJE=T BraDBF=F KetDBF=T FulRan=T
         wScrn=  0.000000 ICntrl=       500 IOpCl=  0 I1Cent=   200000004 NGrid=           0
         NMat0=    1 NMatS0=      1 NMatT0=    0 NMatD0=    1 NMtDS0=    0 NMtDT0=    0
 Petite list used in FoFCou.
 Requested convergence on RMS density matrix=1.00D-08 within 128 cycles.
 Requested convergence on MAX density matrix=1.00D-06.
 Requested convergence on             energy=1.00D-06.
 No special actions if energy rises.
 EnCoef did     3 forward-backward iterations
 SCF Done:  E(RPBE1PBE) =  -909.642224809     A.U. after   16 cycles
            NFock= 16  Conv=0.80D-08     -V/T= 2.0052

 **********************************************************************

            Population analysis using the SCF Density.

 **********************************************************************

 Orbital symmetries:
       Occupied  (A) (A) (A) (A) (A) (A) (A) (A) (A) (A) (A) (A)
                 (A) (A) (A) (A) (A) (A) (A) (A) (A) (A) (A) (A)
                 (A) (A) (A) (A) (A) (A) (A) (A) (A) (A) (A) (A)
                 (A) (A) (A) (A) (A) (A) (A) (A) (A) (A) (A) (A)
                 (A) (A) (A) (A) (A) (A) (A) (A) (A) (A) (A) (A)
                 (A) (A) (A) (A)
       Virtual   (A) (A) (A) (A) (A) (A) (A) (A) (A) (A) (A) (A)
                 (A) (A) (A) (A) (A) (A) (A) (A) (A) (A) (A) (A)
                 (A) (A) (A) (A) (A) (A) (A) (A) (A) (A) (A) (A)
                 (A) (A) (A) (A) (A) (A) (A) (A) (A) (A) (A) (A)
                 (A) (A) (A) (A) (A) (A) (A) (A) (A) (A) (A) (A)
                 (A) (A) (A) (A) (A) (A) (A) (A) (A) (A) (A) (A)
                 (A) (A) (A) (A) (A) (A) (A) (A) (A) (A) (A) (A)
                 (A) (A) (A) (A) (A) (A) (A) (A) (A) (A) (A) (A)
                 (A) (A) (A) (A) (A) (A) (A) (A) (A) (A) (A) (A)
                 (A) (A) (A) (A) (A) (A) (A) (A) (A) (A) (A) (A)
                 (A) (A) (A) (A) (A) (A) (A) (A) (A) (A) (A) (A)
                 (A) (A) (A) (A) (A) (A) (A) (A) (A) (A) (A) (A)
                 (A) (A) (A) (A) (A) (A) (A) (A) (A) (A) (A) (A)
                 (A) (A) (A) (A) (A) (A) (A) (A) (A) (A) (A) (A)
                 (A) (A) (A) (A) (A) (A) (A) (A) (A) (A) (A) (A)
                 (A) (A) (A) (A) (A) (A) (A) (A) (A) (A) (A) (A)
                 (A) (A) (A) (A) (A) (A) (A) (A) (A) (A) (A) (A)
                 (A) (A) (A) (A) (A) (A) (A) (A) (A) (A) (A) (A)
                 (A) (A) (A) (A) (A) (A) (A) (A) (A) (A) (A) (A)
                 (A) (A) (A) (A) (A) (A) (A) (A) (A) (A) (A) (A)
                 (A) (A) (A) (A) (A) (A) (A) (A) (A) (A) (A) (A)
                 (A) (A) (A) (A) (A) (A) (A) (A) (A) (A) (A) (A)
                 (A) (A) (A) (A) (A) (A) (A) (A) (A) (A) (A) (A)
                 (A) (A) (A) (A) (A) (A) (A) (A) (A) (A) (A) (A)
                 (A) (A) (A) (A) (A) (A) (A) (A) (A) (A) (A) (A)
                 (A) (A) (A) (A) (A) (A) (A) (A) (A) (A) (A) (A)
                 (A) (A) (A) (A) (A) (A) (A) (A) (A) (A) (A) (A)
                 (A) (A) (A) (A) (A) (A) (A) (A) (A) (A) (A) (A)
                 (A) (A) (A) (A) (A) (A) (A) (A) (A) (A) (A) (A)
                 (A) (A) (A) (A) (A) (A) (A) (A) (A) (A) (A) (A)
                 (A) (A) (A) (A) (A) (A) (A) (A) (A) (A) (A) (A)
                 (A) (A) (A) (A) (A) (A) (A) (A) (A) (A) (A) (A)
                 (A) (A) (A) (A) (A) (A) (A) (A) (A) (A) (A) (A)
                 (A) (A) (A) (A) (A) (A) (A) (A) (A) (A) (A) (A)
                 (A) (A) (A) (A) (A) (A) (A) (A) (A) (A) (A) (A)
                 (A) (A) (A) (A) (A) (A)
 The electronic state is 1-A.
 Alpha  occ. eigenvalues --  -19.18391 -19.15393 -19.14791 -19.14224 -19.01992
 Alpha  occ. eigenvalues --  -19.00960 -14.30726 -14.18305 -10.21516 -10.20912
 Alpha  occ. eigenvalues --  -10.20784 -10.20611 -10.19766 -10.18374 -10.15182
 Alpha  occ. eigenvalues --  -10.15095 -10.09150  -1.02477  -1.00253  -0.98237
 Alpha  occ. eigenvalues --   -0.97053  -0.92299  -0.88510  -0.84737  -0.73095
 Alpha  occ. eigenvalues --   -0.72252  -0.68535  -0.65796  -0.61221  -0.55261
 Alpha  occ. eigenvalues --   -0.54046  -0.51861  -0.49331  -0.47498  -0.45949
 Alpha  occ. eigenvalues --   -0.45311  -0.43093  -0.40919  -0.40725  -0.38946
 Alpha  occ. eigenvalues --   -0.37994  -0.37193  -0.35113  -0.33141  -0.32156
 Alpha  occ. eigenvalues --   -0.30862  -0.30393  -0.30264  -0.28692  -0.28621
 Alpha  occ. eigenvalues --   -0.27834  -0.26893  -0.25728  -0.24028  -0.23281
 Alpha  occ. eigenvalues --   -0.21910  -0.21083  -0.20584  -0.19034  -0.12897
 Alpha  occ. eigenvalues --   -0.10013  -0.09638  -0.07611  -0.07499
 Alpha virt. eigenvalues --    0.05030   0.07153   0.08170   0.09114   0.10247
 Alpha virt. eigenvalues --    0.10443   0.11017   0.11819   0.12127   0.12531
 Alpha virt. eigenvalues --    0.13101   0.13582   0.15092   0.15106   0.15899
 Alpha virt. eigenvalues --    0.16015   0.16445   0.16956   0.17440   0.17728
 Alpha virt. eigenvalues --    0.18246   0.18507   0.18956   0.19306   0.19382
 Alpha virt. eigenvalues --    0.19472   0.19864   0.20453   0.20575   0.21059
 Alpha virt. eigenvalues --    0.21911   0.22294   0.22479   0.22742   0.22857
 Alpha virt. eigenvalues --    0.23180   0.23933   0.24542   0.24905   0.25111
 Alpha virt. eigenvalues --    0.25689   0.25867   0.25965   0.26719   0.27035
 Alpha virt. eigenvalues --    0.27329   0.27484   0.28243   0.28647   0.28767
 Alpha virt. eigenvalues --    0.29681   0.29996   0.30389   0.30955   0.31550
 Alpha virt. eigenvalues --    0.31611   0.31697   0.32288   0.33003   0.33269
 Alpha virt. eigenvalues --    0.33672   0.34154   0.34591   0.34677   0.35275
 Alpha virt. eigenvalues --    0.35937   0.36416   0.36512   0.36563   0.37019
 Alpha virt. eigenvalues --    0.37423   0.37708   0.38022   0.38500   0.38681
 Alpha virt. eigenvalues --    0.39170   0.39332   0.39722   0.40303   0.40657
 Alpha virt. eigenvalues --    0.41814   0.42054   0.42323   0.42397   0.42517
 Alpha virt. eigenvalues --    0.43232   0.43702   0.43979   0.44262   0.44694
 Alpha virt. eigenvalues --    0.45128   0.45210   0.45454   0.45968   0.46306
 Alpha virt. eigenvalues --    0.46996   0.47425   0.47669   0.47999   0.48706
 Alpha virt. eigenvalues --    0.49988   0.50429   0.50519   0.50874   0.51001
 Alpha virt. eigenvalues --    0.51582   0.51871   0.52314   0.52874   0.53308
 Alpha virt. eigenvalues --    0.53726   0.54288   0.54447   0.55362   0.56726
 Alpha virt. eigenvalues --    0.57124   0.57709   0.58362   0.58450   0.59432
 Alpha virt. eigenvalues --    0.60049   0.60397   0.60560   0.61680   0.61915
 Alpha virt. eigenvalues --    0.62760   0.63008   0.63779   0.64011   0.64805
 Alpha virt. eigenvalues --    0.65444   0.65907   0.66103   0.66973   0.67696
 Alpha virt. eigenvalues --    0.68105   0.68563   0.69409   0.69499   0.70059
 Alpha virt. eigenvalues --    0.70666   0.71497   0.71840   0.72247   0.72983
 Alpha virt. eigenvalues --    0.73495   0.74031   0.74919   0.75108   0.76054
 Alpha virt. eigenvalues --    0.76445   0.76835   0.77486   0.77709   0.78281
 Alpha virt. eigenvalues --    0.79167   0.79619   0.79987   0.80445   0.80991
 Alpha virt. eigenvalues --    0.81622   0.82072   0.82471   0.82984   0.83688
 Alpha virt. eigenvalues --    0.84678   0.85142   0.85754   0.86325   0.86975
 Alpha virt. eigenvalues --    0.87314   0.88083   0.88675   0.89026   0.89814
 Alpha virt. eigenvalues --    0.90364   0.91098   0.91319   0.91942   0.92408
 Alpha virt. eigenvalues --    0.92726   0.93510   0.94449   0.94725   0.95851
 Alpha virt. eigenvalues --    0.97268   0.97867   0.97900   0.98370   0.98786
 Alpha virt. eigenvalues --    1.00581   1.01198   1.01530   1.02299   1.03884
 Alpha virt. eigenvalues --    1.04720   1.05156   1.05530   1.06146   1.07987
 Alpha virt. eigenvalues --    1.08279   1.09496   1.10926   1.11130   1.12480
 Alpha virt. eigenvalues --    1.13388   1.14200   1.15054   1.15457   1.16159
 Alpha virt. eigenvalues --    1.16913   1.18324   1.19355   1.19988   1.20913
 Alpha virt. eigenvalues --    1.21526   1.22205   1.22475   1.23294   1.24287
 Alpha virt. eigenvalues --    1.24814   1.25988   1.27721   1.28188   1.28860
 Alpha virt. eigenvalues --    1.30397   1.31215   1.31844   1.32626   1.33554
 Alpha virt. eigenvalues --    1.34092   1.34433   1.35761   1.37086   1.37932
 Alpha virt. eigenvalues --    1.39332   1.39834   1.40399   1.40977   1.43052
 Alpha virt. eigenvalues --    1.43708   1.44321   1.45228   1.46138   1.47591
 Alpha virt. eigenvalues --    1.49097   1.50065   1.51321   1.52130   1.52615
 Alpha virt. eigenvalues --    1.54153   1.54317   1.55228   1.56317   1.57936
 Alpha virt. eigenvalues --    1.58514   1.59153   1.60317   1.61062   1.61371
 Alpha virt. eigenvalues --    1.63377   1.64023   1.64578   1.66087   1.66448
 Alpha virt. eigenvalues --    1.67816   1.68359   1.69029   1.70217   1.71151
 Alpha virt. eigenvalues --    1.72677   1.73119   1.74731   1.74924   1.75453
 Alpha virt. eigenvalues --    1.75948   1.77280   1.78761   1.79543   1.81329
 Alpha virt. eigenvalues --    1.82105   1.82959   1.84312   1.85597   1.87411
 Alpha virt. eigenvalues --    1.87782   1.89016   1.89463   1.90141   1.90608
 Alpha virt. eigenvalues --    1.92004   1.92726   1.92924   1.93656   1.94227
 Alpha virt. eigenvalues --    1.95959   1.96369   1.97312   1.98150   2.00038
 Alpha virt. eigenvalues --    2.00905   2.01315   2.02372   2.04228   2.04618
 Alpha virt. eigenvalues --    2.05061   2.06418   2.07281   2.07805   2.09878
 Alpha virt. eigenvalues --    2.10461   2.11913   2.12530   2.14492   2.14955
 Alpha virt. eigenvalues --    2.16025   2.17211   2.17591   2.18962   2.21203
 Alpha virt. eigenvalues --    2.21843   2.23011   2.23204   2.25153   2.25700
 Alpha virt. eigenvalues --    2.27090   2.28905   2.28996   2.31405   2.32665
 Alpha virt. eigenvalues --    2.33106   2.35369   2.36592   2.36895   2.39083
 Alpha virt. eigenvalues --    2.40450   2.40516   2.41568   2.43136   2.45159
 Alpha virt. eigenvalues --    2.45705   2.47061   2.48439   2.48821   2.50591
 Alpha virt. eigenvalues --    2.52377   2.53604   2.54015   2.55254   2.56739
 Alpha virt. eigenvalues --    2.59665   2.61360   2.63073   2.64144   2.65204
 Alpha virt. eigenvalues --    2.68910   2.69139   2.69807   2.70435   2.73455
 Alpha virt. eigenvalues --    2.75080   2.76958   2.77019   2.78088   2.79956
 Alpha virt. eigenvalues --    2.80984   2.83255   2.84048   2.84937   2.85399
 Alpha virt. eigenvalues --    2.89243   2.89681   2.91723   2.94788   2.96230
 Alpha virt. eigenvalues --    2.97015   3.01102   3.05383   3.07048   3.09662
 Alpha virt. eigenvalues --    3.11418   3.17458   3.21122   3.23370   3.29179
 Alpha virt. eigenvalues --    3.31035   3.33565   3.37664   3.43012   3.46154
 Alpha virt. eigenvalues --    3.50816   3.53275   3.54699   3.56331   3.58021
 Alpha virt. eigenvalues --    3.58531   3.59389   3.59741   3.60994   3.61529
 Alpha virt. eigenvalues --    3.62574   3.63312   3.65161   3.67050   3.68607
 Alpha virt. eigenvalues --    3.70255   3.71431   3.72735   3.74987   3.78228
 Alpha virt. eigenvalues --    3.79790   3.81519   3.83029   3.83714   3.85205
 Alpha virt. eigenvalues --    3.89667   3.92718   3.98230   4.03312   4.09532
 Alpha virt. eigenvalues --    4.10876   4.13686   4.14293   4.24275   4.39962
 Alpha virt. eigenvalues --    4.77387
          Condensed to atoms (all electrons):
               1          2          3          4          5          6
     1  C   12.825014  -4.334824   1.111907   0.225946   0.421310  -0.235136
     2  C   -4.334824  10.880621  -2.619040  -0.645032  -1.210074   0.156782
     3  C    1.111907  -2.619040  11.464925   0.239157   0.326468  -0.408490
     4  O    0.225946  -0.645032   0.239157   8.789352  -0.128490   0.020412
     5  H    0.421310  -1.210074   0.326468  -0.128490   2.126627   0.064301
     6  O   -0.235136   0.156782  -0.408490   0.020412   0.064301   9.580047
     7  H    0.131371   0.217857  -0.626089  -0.077074   0.006317  -0.242504
     8  N   -0.166031   0.551689  -0.790301   0.020471  -0.209935  -0.069576
     9  C   -2.789994   0.678472  -2.223104  -0.071332   0.208445  -0.217806
    10  H   -1.182376   0.599633  -0.197691  -0.010601  -0.101204   0.071414
    11  O   -0.952703   0.491883   0.047814  -0.046551  -0.064134   0.018351
    12  C   -0.208940  -0.158963   0.220870   0.031988  -0.009894  -0.071526
    13  H    0.696720  -0.322403   0.306628   0.045122   0.012292  -0.039876
    14  O   -0.048071  -0.000840  -0.016052   0.000454  -0.003347  -0.037865
    15  H    0.007292   0.087200   0.003187  -0.000308   0.001845   0.102060
    16  H   -0.075620   0.005478   0.009342  -0.000661  -0.000545  -0.056199
    17  H    0.389927  -0.253002   0.033710   0.010205   0.016674  -0.006861
    18  H   -0.255305   0.176832  -0.062660   0.285711  -0.004821   0.009324
    19  H    0.080824  -0.025726   0.010591   0.000743   0.001788   0.032545
    20  C    0.207682   0.078879  -1.499247  -0.014434   0.089139   0.260853
    21  C   -0.344982   0.212116  -0.154054   0.009948  -0.021724   0.019225
    22  C    0.030658   0.007336  -0.077987  -0.000496   0.010364   0.002310
    23  N   -0.008227   0.008750  -0.056700   0.001039   0.000036  -0.000721
    24  C   -0.033380  -0.019770   0.148805  -0.008988  -0.041674  -0.091070
    25  H   -0.049999   0.050436  -0.041025  -0.002648  -0.067204  -0.009390
    26  H    0.012221   0.001798   0.061583   0.000124  -0.001560  -0.001293
    27  O    0.000028   0.000499  -0.004776  -0.000024   0.000239  -0.000038
    28  O   -0.003732   0.051656   0.035000  -0.000350  -0.012283   0.008245
               7          8          9         10         11         12
     1  C    0.131371  -0.166031  -2.789994  -1.182376  -0.952703  -0.208940
     2  C    0.217857   0.551689   0.678472   0.599633   0.491883  -0.158963
     3  C   -0.626089  -0.790301  -2.223104  -0.197691   0.047814   0.220870
     4  O   -0.077074   0.020471  -0.071332  -0.010601  -0.046551   0.031988
     5  H    0.006317  -0.209935   0.208445  -0.101204  -0.064134  -0.009894
     6  O   -0.242504  -0.069576  -0.217806   0.071414   0.018351  -0.071526
     7  H    2.049546  -0.154414   0.129792  -0.002627  -0.010462  -0.025372
     8  N   -0.154414   8.309188  -0.028696  -0.002624   0.008518   0.126269
     9  C    0.129792  -0.028696  12.105403  -0.560480   0.113215  -0.571693
    10  H   -0.002627  -0.002624  -0.560480   2.893754  -0.051716   0.023006
    11  O   -0.010462   0.008518   0.113215  -0.051716   8.732837   0.026503
    12  C   -0.025372   0.126269  -0.571693   0.023006   0.026503   5.237576
    13  H    0.015902  -0.028435  -1.568809   0.125386  -0.055337   0.024172
    14  O    0.000942   0.022004  -0.006537   0.045538   0.012353   0.145028
    15  H   -0.002318   0.003273  -0.240783  -0.033985   0.030561   0.096966
    16  H    0.001047   0.000285   0.290182   0.019592   0.006656   0.080174
    17  H    0.002666  -0.003725  -0.022384  -0.154698   0.276864  -0.005935
    18  H   -0.008383  -0.004567   0.035734   0.022445   0.058911  -0.002558
    19  H    0.001690  -0.015295  -0.091251   0.014402  -0.003513  -0.014823
    20  C    0.008926   0.057017   0.208790   0.259653  -0.013845  -0.143185
    21  C   -0.004401  -0.502407   0.095895  -0.007709   0.008952  -0.032862
    22  C    0.009385   0.038242   0.020563   0.049950  -0.000677  -0.013656
    23  N   -0.032354   0.025398  -0.005252  -0.016432   0.000132   0.005097
    24  C    0.104617  -0.131446  -0.103718   0.012925   0.003155   0.003591
    25  H   -0.006707   0.149939  -0.361007  -0.284142   0.010579   0.160660
    26  H    0.000817   0.071840   0.001042   0.008951   0.000405  -0.000985
    27  O   -0.000153  -0.027496   0.001130  -0.000972  -0.000004  -0.000162
    28  O   -0.010976  -0.081537  -0.010923  -0.004077   0.000377   0.004426
              13         14         15         16         17         18
     1  C    0.696720  -0.048071   0.007292  -0.075620   0.389927  -0.255305
     2  C   -0.322403  -0.000840   0.087200   0.005478  -0.253002   0.176832
     3  C    0.306628  -0.016052   0.003187   0.009342   0.033710  -0.062660
     4  O    0.045122   0.000454  -0.000308  -0.000661   0.010205   0.285711
     5  H    0.012292  -0.003347   0.001845  -0.000545   0.016674  -0.004821
     6  O   -0.039876  -0.037865   0.102060  -0.056199  -0.006861   0.009324
     7  H    0.015902   0.000942  -0.002318   0.001047   0.002666  -0.008383
     8  N   -0.028435   0.022004   0.003273   0.000285  -0.003725  -0.004567
     9  C   -1.568809  -0.006537  -0.240783   0.290182  -0.022384   0.035734
    10  H    0.125386   0.045538  -0.033985   0.019592  -0.154698   0.022445
    11  O   -0.055337   0.012353   0.030561   0.006656   0.276864   0.058911
    12  C    0.024172   0.145028   0.096966   0.080174  -0.005935  -0.002558
    13  H    2.410084   0.023264  -0.047954  -0.051725  -0.005198   0.000772
    14  O    0.023264   8.333708  -0.151549  -0.047464  -0.002271  -0.000138
    15  H   -0.047954  -0.151549   1.745907  -0.342036  -0.002944   0.001030
    16  H   -0.051725  -0.047464  -0.342036   1.418751  -0.001644  -0.000385
    17  H   -0.005198  -0.002271  -0.002944  -0.001644   0.613488  -0.009865
    18  H    0.000772  -0.000138   0.001030  -0.000385  -0.009865   0.602147
    19  H    0.009834   0.290165   0.030079  -0.057891   0.000500  -0.000197
    20  C    0.014336  -0.020986  -0.007916   0.008472  -0.011695   0.001887
    21  C   -0.007112   0.001561  -0.002581   0.003296  -0.003071   0.000778
    22  C    0.003289  -0.000613  -0.001302  -0.000760  -0.000429  -0.000227
    23  N   -0.000622   0.000567   0.000271   0.000546   0.000119  -0.000004
    24  C    0.003201   0.002781  -0.000127  -0.000502  -0.000943  -0.000333
    25  H   -0.013141   0.018612   0.007994   0.010514   0.003564   0.006681
    26  H    0.000389   0.001809  -0.000169  -0.000099   0.000036  -0.000018
    27  O    0.000047   0.000035   0.000008  -0.000020   0.000007  -0.000014
    28  O   -0.001075   0.000275   0.000102   0.000536   0.000150   0.000477
              19         20         21         22         23         24
     1  C    0.080824   0.207682  -0.344982   0.030658  -0.008227  -0.033380
     2  C   -0.025726   0.078879   0.212116   0.007336   0.008750  -0.019770
     3  C    0.010591  -1.499247  -0.154054  -0.077987  -0.056700   0.148805
     4  O    0.000743  -0.014434   0.009948  -0.000496   0.001039  -0.008988
     5  H    0.001788   0.089139  -0.021724   0.010364   0.000036  -0.041674
     6  O    0.032545   0.260853   0.019225   0.002310  -0.000721  -0.091070
     7  H    0.001690   0.008926  -0.004401   0.009385  -0.032354   0.104617
     8  N   -0.015295   0.057017  -0.502407   0.038242   0.025398  -0.131446
     9  C   -0.091251   0.208790   0.095895   0.020563  -0.005252  -0.103718
    10  H    0.014402   0.259653  -0.007709   0.049950  -0.016432   0.012925
    11  O   -0.003513  -0.013845   0.008952  -0.000677   0.000132   0.003155
    12  C   -0.014823  -0.143185  -0.032862  -0.013656   0.005097   0.003591
    13  H    0.009834   0.014336  -0.007112   0.003289  -0.000622   0.003201
    14  O    0.290165  -0.020986   0.001561  -0.000613   0.000567   0.002781
    15  H    0.030079  -0.007916  -0.002581  -0.001302   0.000271  -0.000127
    16  H   -0.057891   0.008472   0.003296  -0.000760   0.000546  -0.000502
    17  H    0.000500  -0.011695  -0.003071  -0.000429   0.000119  -0.000943
    18  H   -0.000197   0.001887   0.000778  -0.000227  -0.000004  -0.000333
    19  H    0.524409   0.045041  -0.008301   0.018901  -0.006039   0.005006
    20  C    0.045041   9.815615  -2.115157  -0.197554   0.040344  -0.908604
    21  C   -0.008301  -2.115157  10.552027  -2.542419   0.513244   0.521984
    22  C    0.018901  -0.197554  -2.542419   9.631254  -0.711520  -0.454272
    23  N   -0.006039   0.040344   0.513244  -0.711520   8.263784  -0.151129
    24  C    0.005006  -0.908604   0.521984  -0.454272  -0.151129   6.478267
    25  H   -0.071712  -1.527278  -0.202674  -0.578565   0.184732   0.008687
    26  H    0.003910   0.568748  -1.057773   0.230514  -0.096114  -0.070174
    27  O   -0.000402   0.136218  -0.112477   0.045619  -0.110367   0.036966
    28  O   -0.001462  -0.039904   0.003560   0.021829  -0.218471   0.167966
              25         26         27         28
     1  C   -0.049999   0.012221   0.000028  -0.003732
     2  C    0.050436   0.001798   0.000499   0.051656
     3  C   -0.041025   0.061583  -0.004776   0.035000
     4  O   -0.002648   0.000124  -0.000024  -0.000350
     5  H   -0.067204  -0.001560   0.000239  -0.012283
     6  O   -0.009390  -0.001293  -0.000038   0.008245
     7  H   -0.006707   0.000817  -0.000153  -0.010976
     8  N    0.149939   0.071840  -0.027496  -0.081537
     9  C   -0.361007   0.001042   0.001130  -0.010923
    10  H   -0.284142   0.008951  -0.000972  -0.004077
    11  O    0.010579   0.000405  -0.000004   0.000377
    12  C    0.160660  -0.000985  -0.000162   0.004426
    13  H   -0.013141   0.000389   0.000047  -0.001075
    14  O    0.018612   0.001809   0.000035   0.000275
    15  H    0.007994  -0.000169   0.000008   0.000102
    16  H    0.010514  -0.000099  -0.000020   0.000536
    17  H    0.003564   0.000036   0.000007   0.000150
    18  H    0.006681  -0.000018  -0.000014   0.000477
    19  H   -0.071712   0.003910  -0.000402  -0.001462
    20  C   -1.527278   0.568748   0.136218  -0.039904
    21  C   -0.202674  -1.057773  -0.112477   0.003560
    22  C   -0.578565   0.230514   0.045619   0.021829
    23  N    0.184732  -0.096114  -0.110367  -0.218471
    24  C    0.008687  -0.070174   0.036966   0.167966
    25  H    4.802430  -0.336379   0.012990   0.017634
    26  H   -0.336379   2.273856  -0.014134   0.002053
    27  O    0.012990  -0.014134   8.823995  -0.005760
    28  O    0.017634   0.002053  -0.005760   8.784853
 Mulliken charges:
               1
     1  C    0.548418
     2  C    1.331756
     3  C    0.757227
     4  O   -0.673681
     5  H   -0.408958
     6  O   -0.857520
     7  H   -0.477042
     8  N   -0.167648
     9  C    0.985104
    10  H   -0.535314
    11  O   -0.649123
    12  C    1.074229
    13  H   -0.549754
    14  O   -0.563363
    15  H   -0.283800
    16  H   -0.219319
    17  H    0.136754
    18  H    0.146745
    19  H    0.226183
    20  C    0.698204
    21  C    1.177117
    22  C    0.460265
    23  N   -0.630107
    24  C    0.518178
    25  H   -0.893581
    26  H   -0.661399
    27  O   -0.780982
    28  O   -0.708589
 Sum of Mulliken charges =  -1.00000
 Mulliken charges with hydrogens summed into heavy atoms:
               1
     1  C    0.013104
     2  C    0.922798
     3  C    0.280185
     4  O   -0.526936
     6  O   -0.857520
     8  N   -0.167648
     9  C    0.435350
    11  O   -0.512369
    12  C    0.571111
    14  O   -0.337180
    20  C   -0.195377
    21  C    0.515718
    22  C    0.460265
    23  N   -0.630107
    24  C    0.518178
    27  O   -0.780982
    28  O   -0.708589
 Electronic spatial extent (au):  <R**2>=           4217.6431
 Charge=             -1.0000 electrons
 Dipole moment (field-independent basis, Debye):
    X=            -17.4918    Y=              3.2854    Z=              2.7094  Tot=             18.0027
 Quadrupole moment (field-independent basis, Debye-Ang):
   XX=           -174.1881   YY=           -124.6734   ZZ=            -99.2097
   XY=              2.7876   XZ=             -4.4710   YZ=             -9.6174
 Traceless Quadrupole moment (field-independent basis, Debye-Ang):
   XX=            -41.4977   YY=              8.0170   ZZ=             33.4807
   XY=              2.7876   XZ=             -4.4710   YZ=             -9.6174
 Octapole moment (field-independent basis, Debye-Ang**2):
  XXX=           -357.3679  YYY=             16.2265  ZZZ=             17.4582  XYY=            -31.2323
  XXY=            -19.4323  XXZ=             -6.8225  XZZ=            -44.3408  YZZ=              5.8154
  YYZ=              6.5843  XYZ=            -17.5763
 Hexadecapole moment (field-independent basis, Debye-Ang**3):
 XXXX=          -5250.8515 YYYY=          -1432.6430 ZZZZ=           -466.0835 XXXY=           -149.5172
 XXXZ=           -164.1421 YYYX=             79.2601 YYYZ=            -48.1194 ZZZX=            -72.0497
 ZZZY=            -31.0284 XXYY=           -974.1667 XXZZ=           -681.1972 YYZZ=           -292.6483
 XXYZ=            -85.8652 YYXZ=             14.1587 ZZXY=              7.4708
 N-N= 1.301461702542D+03 E-N=-4.751826006734D+03  KE= 9.049103693197D+02
 Calling FoFJK, ICntrl=      2127 FMM=F ISym2X=0 I1Cent= 0 IOpClX= 0 NMat=1 NMatS=1 NMatT=0.
 ***** Axes restored to original set *****
 -------------------------------------------------------------------
 Center     Atomic                   Forces (Hartrees/Bohr)
 Number     Number              X              Y              Z
 -------------------------------------------------------------------
      1        6           0.004591627   -0.000633421   -0.001299970
      2        6           0.001962602    0.004910923   -0.001925096
      3        6           0.017504689    0.004856746    0.010192143
      4        8          -0.006332922   -0.004646954    0.000857866
      5        1          -0.000110230    0.000208136   -0.001163125
      6        8          -0.015007587    0.006059516   -0.002944938
      7        1           0.001753062   -0.000505150   -0.000023900
      8        7          -0.032739820   -0.002901577   -0.002243955
      9        6           0.007378685   -0.000814617   -0.002859950
     10        1           0.000317890   -0.000674724   -0.000484644
     11        8          -0.006976892   -0.000280173    0.003081481
     12        6           0.001533789   -0.000111301    0.001460176
     13        1          -0.001745742   -0.000548576   -0.000060300
     14        8          -0.004055919    0.002365196   -0.001989480
     15        1          -0.000667639    0.000427468    0.000380300
     16        1          -0.000032993   -0.000066456   -0.000840570
     17        1           0.001286062   -0.000191388   -0.000986055
     18        1           0.001204304    0.000089832   -0.000078783
     19        1           0.002213012   -0.002509578    0.001943793
     20        6          -0.003543429   -0.000390952    0.000388474
     21        6          -0.001667955    0.009082238    0.004900526
     22        6          -0.033995183   -0.056339038   -0.030543449
     23        7           0.002545985   -0.004196186   -0.002105160
     24        6           0.065256206    0.046963151    0.026385850
     25        1           0.000045260    0.000443909    0.000463412
     26        1          -0.004010182    0.004297245    0.001926173
     27        8           0.022643836    0.020829608    0.011685448
     28        8          -0.019350515   -0.025723876   -0.014116267
 -------------------------------------------------------------------
 Cartesian Forces:  Max     0.065256206 RMS     0.014234163

 GradGradGradGradGradGradGradGradGradGradGradGradGradGradGradGradGradGrad
 Berny optimization.
 FormGI is forming the generalized inverse of G from B-inverse, IUseBI=4.
 Internal  Forces:  Max     0.030370462 RMS     0.006806499
 Search for a local minimum.
 Step number   1 out of a maximum of  166
 All quantities printed in internal units (Hartrees-Bohrs-Radians)
 Mixed Optimization -- RFO/linear search
 Second derivative matrix not updated -- first step.
 ITU=  0
     Eigenvalues ---    0.00456   0.00565   0.00934   0.00958   0.01484
     Eigenvalues ---    0.01484   0.01490   0.01503   0.01616   0.01720
     Eigenvalues ---    0.01838   0.01869   0.02080   0.02263   0.02468
     Eigenvalues ---    0.03096   0.03824   0.04403   0.04917   0.05006
     Eigenvalues ---    0.05094   0.05481   0.05650   0.06050   0.06114
     Eigenvalues ---    0.06199   0.06832   0.07979   0.08298   0.09908
     Eigenvalues ---    0.11571   0.12983   0.13943   0.15819   0.15995
     Eigenvalues ---    0.16000   0.16000   0.16000   0.16000   0.16965
     Eigenvalues ---    0.18855   0.19592   0.22061   0.22442   0.24483
     Eigenvalues ---    0.24995   0.24999   0.25000   0.25000   0.26521
     Eigenvalues ---    0.27877   0.29025   0.30837   0.33307   0.33437
     Eigenvalues ---    0.33535   0.33768   0.33898   0.34290   0.34966
     Eigenvalues ---    0.35325   0.36952   0.37541   0.39562   0.40610
     Eigenvalues ---    0.43111   0.43178   0.43554   0.44683   0.45011
     Eigenvalues ---    0.47934   0.49652   0.53869   0.54003   0.54801
     Eigenvalues ---    0.55186   0.96345   0.97207
 RFO step:  Lambda=-1.96203034D-02 EMin= 4.55704437D-03
 Linear search not attempted -- first point.
 Iteration  1 RMS(Cart)=  0.04068370 RMS(Int)=  0.00129632
 Iteration  2 RMS(Cart)=  0.00148270 RMS(Int)=  0.00005324
 Iteration  3 RMS(Cart)=  0.00000232 RMS(Int)=  0.00005321
 Iteration  4 RMS(Cart)=  0.00000000 RMS(Int)=  0.00005321
 Variable       Old X    -DE/DX   Delta X   Delta X   Delta X     New X
                                 (Linear)    (Quad)   (Total)
    R1        2.90295  -0.00007   0.00000  -0.00203  -0.00207   2.90088
    R2        2.87998   0.00023   0.00000  -0.00067  -0.00072   2.87926
    R3        2.07724  -0.00065   0.00000  -0.00181  -0.00181   2.07543
    R4        2.67533   0.00596   0.00000   0.01323   0.01323   2.68857
    R5        2.90595   0.00115   0.00000   0.00477   0.00485   2.91080
    R6        2.65646   0.00622   0.00000   0.01334   0.01334   2.66980
    R7        2.08290  -0.00104   0.00000  -0.00293  -0.00293   2.07997
    R8        2.68367   0.01042   0.00000   0.02493   0.02499   2.70866
    R9        2.06843   0.00071   0.00000   0.00195   0.00195   2.07038
   R10        2.75038  -0.00797   0.00000  -0.02017  -0.02017   2.73021
   R11        1.82851  -0.00112   0.00000  -0.00201  -0.00201   1.82650
   R12        2.69101  -0.00577   0.00000  -0.01295  -0.01300   2.67802
   R13        2.59552  -0.00856   0.00000  -0.01477  -0.01477   2.58075
   R14        2.63834   0.02455   0.00000   0.05147   0.05151   2.68985
   R15        2.86325   0.00021   0.00000   0.00063   0.00063   2.86388
   R16        2.08516   0.00154   0.00000   0.00437   0.00437   2.08954
   R17        1.81667  -0.00102   0.00000  -0.00179  -0.00179   1.81489
   R18        2.67450  -0.00137   0.00000  -0.00303  -0.00303   2.67148
   R19        2.07503   0.00083   0.00000   0.00233   0.00233   2.07736
   R20        2.08123   0.00082   0.00000   0.00230   0.00230   2.08353
   R21        1.82009   0.00088   0.00000   0.00155   0.00155   1.82164
   R22        2.55001  -0.00538   0.00000  -0.00832  -0.00836   2.54166
   R23        2.05731   0.00026   0.00000   0.00070   0.00070   2.05800
   R24        2.74379   0.01613   0.00000   0.03985   0.03981   2.78360
   R25        2.05150   0.00444   0.00000   0.01190   0.01190   2.06340
   R26        2.64528  -0.01889   0.00000  -0.04147  -0.04147   2.60381
   R27        2.30139   0.02975   0.00000   0.03026   0.03026   2.33165
   R28        2.60246  -0.02176   0.00000  -0.04342  -0.04338   2.55908
   R29        2.29779   0.03037   0.00000   0.03063   0.03063   2.32841
    A1        1.78159   0.00048   0.00000  -0.00289  -0.00299   1.77861
    A2        1.94263  -0.00036   0.00000  -0.00392  -0.00392   1.93871
    A3        1.96822   0.00038   0.00000   0.00713   0.00720   1.97542
    A4        1.91450  -0.00003   0.00000   0.00060   0.00066   1.91516
    A5        1.91425  -0.00020   0.00000   0.00227   0.00225   1.91650
    A6        1.93643  -0.00022   0.00000  -0.00308  -0.00310   1.93333
    A7        1.79651   0.00148   0.00000   0.00482   0.00488   1.80139
    A8        1.92042  -0.00282   0.00000  -0.01348  -0.01362   1.90679
    A9        1.97746   0.00049   0.00000  -0.00017  -0.00018   1.97728
   A10        1.88689   0.00277   0.00000   0.02263   0.02273   1.90962
   A11        1.93826  -0.00200   0.00000  -0.01168  -0.01173   1.92653
   A12        1.93777   0.00025   0.00000  -0.00069  -0.00069   1.93708
   A13        1.86672  -0.00473   0.00000  -0.01685  -0.01698   1.84974
   A14        1.91341   0.00124   0.00000  -0.00028  -0.00034   1.91307
   A15        1.99598   0.00153   0.00000   0.01004   0.00999   2.00597
   A16        1.93934   0.00023   0.00000  -0.00320  -0.00315   1.93618
   A17        1.89744   0.00476   0.00000   0.03091   0.03089   1.92833
   A18        1.85206  -0.00286   0.00000  -0.02008  -0.01999   1.83207
   A19        1.86123  -0.00063   0.00000  -0.00348  -0.00348   1.85775
   A20        1.93236   0.00193   0.00000   0.00676   0.00681   1.93917
   A21        2.10350  -0.00011   0.00000  -0.00285  -0.00288   2.10062
   A22        2.06327   0.00450   0.00000   0.01426   0.01423   2.07751
   A23        2.11625  -0.00439   0.00000  -0.01127  -0.01124   2.10500
   A24        1.83178   0.00041   0.00000  -0.00028  -0.00032   1.83145
   A25        2.00059   0.00098   0.00000   0.00493   0.00494   2.00553
   A26        1.89403  -0.00022   0.00000   0.00140   0.00141   1.89543
   A27        1.89201  -0.00114   0.00000  -0.00361  -0.00357   1.88844
   A28        1.93113   0.00059   0.00000   0.00346   0.00343   1.93456
   A29        1.91297  -0.00055   0.00000  -0.00548  -0.00549   1.90748
   A30        1.90656  -0.00216   0.00000  -0.01201  -0.01201   1.89455
   A31        1.95394   0.00052   0.00000   0.00212   0.00212   1.95605
   A32        1.89664   0.00146   0.00000   0.00996   0.00997   1.90662
   A33        1.91403  -0.00161   0.00000  -0.01003  -0.01001   1.90401
   A34        1.87228  -0.00118   0.00000  -0.00662  -0.00664   1.86564
   A35        1.94002   0.00078   0.00000   0.00466   0.00466   1.94469
   A36        1.88471   0.00006   0.00000   0.00019   0.00022   1.88494
   A37        1.86568   0.00071   0.00000   0.00395   0.00395   1.86963
   A38        2.15373  -0.00977   0.00000  -0.03380  -0.03384   2.11989
   A39        2.00736   0.00545   0.00000   0.02004   0.02006   2.02742
   A40        2.12181   0.00432   0.00000   0.01377   0.01379   2.13560
   A41        2.08759  -0.00069   0.00000  -0.00014  -0.00022   2.08737
   A42        2.12414  -0.00407   0.00000  -0.02452  -0.02448   2.09965
   A43        2.07143   0.00476   0.00000   0.02467   0.02471   2.09613
   A44        1.97360   0.01796   0.00000   0.06337   0.06332   2.03692
   A45        2.20783  -0.02518   0.00000  -0.09177  -0.09175   2.11608
   A46        2.10175   0.00722   0.00000   0.02840   0.02843   2.13018
   A47        2.24572  -0.02269   0.00000  -0.09037  -0.09031   2.15540
   A48        1.98941   0.01958   0.00000   0.07223   0.07231   2.06172
   A49        2.15374  -0.03012   0.00000  -0.11151  -0.11155   2.04219
   A50        2.14003   0.01054   0.00000   0.03928   0.03925   2.17927
    D1        0.54134   0.00142   0.00000   0.01697   0.01703   0.55838
    D2       -1.46643  -0.00132   0.00000  -0.00570  -0.00563  -1.47206
    D3        2.63600   0.00019   0.00000   0.00585   0.00589   2.64189
    D4       -1.49995   0.00135   0.00000   0.01957   0.01960  -1.48035
    D5        2.77546  -0.00138   0.00000  -0.00310  -0.00306   2.77240
    D6        0.59471   0.00013   0.00000   0.00845   0.00845   0.60317
    D7        2.59384   0.00164   0.00000   0.02124   0.02126   2.61510
    D8        0.58607  -0.00110   0.00000  -0.00143  -0.00140   0.58467
    D9       -1.59468   0.00041   0.00000   0.01012   0.01012  -1.58457
   D10       -0.60870  -0.00066   0.00000  -0.00933  -0.00926  -0.61796
   D11       -2.68231  -0.00007   0.00000  -0.00743  -0.00740  -2.68971
   D12        1.45631   0.00013   0.00000  -0.00479  -0.00477   1.45154
   D13        1.45276  -0.00084   0.00000  -0.01506  -0.01502   1.43774
   D14       -0.62085  -0.00026   0.00000  -0.01316  -0.01316  -0.63401
   D15       -2.76542  -0.00005   0.00000  -0.01052  -0.01053  -2.77595
   D16       -2.69949  -0.00126   0.00000  -0.01704  -0.01699  -2.71648
   D17        1.51008  -0.00068   0.00000  -0.01514  -0.01513   1.49495
   D18       -0.63448  -0.00048   0.00000  -0.01250  -0.01250  -0.64698
   D19        1.63430  -0.00061   0.00000  -0.00896  -0.00893   1.62536
   D20       -2.67625   0.00007   0.00000  -0.00707  -0.00711  -2.68336
   D21       -0.55846  -0.00025   0.00000  -0.00682  -0.00680  -0.56526
   D22       -0.29933  -0.00127   0.00000  -0.01688  -0.01679  -0.31611
   D23       -2.40369   0.00056   0.00000  -0.00286  -0.00291  -2.40660
   D24        1.80234   0.00234   0.00000   0.01644   0.01639   1.81872
   D25        1.73251  -0.00259   0.00000  -0.02035  -0.02019   1.71232
   D26       -0.37186  -0.00076   0.00000  -0.00633  -0.00631  -0.37817
   D27       -2.44902   0.00102   0.00000   0.01296   0.01298  -2.43603
   D28       -2.42081  -0.00172   0.00000  -0.01362  -0.01353  -2.43433
   D29        1.75802   0.00012   0.00000   0.00040   0.00035   1.75837
   D30       -0.31914   0.00189   0.00000   0.01969   0.01965  -0.29950
   D31       -0.52805   0.00085   0.00000   0.00231   0.00226  -0.52579
   D32       -2.47772  -0.00094   0.00000  -0.00848  -0.00841  -2.48613
   D33        1.67529  -0.00043   0.00000  -0.00844  -0.00845   1.66684
   D34       -0.08747   0.00096   0.00000   0.01095   0.01086  -0.07660
   D35        2.00028  -0.00032   0.00000  -0.00162  -0.00159   1.99869
   D36       -2.25095  -0.00082   0.00000  -0.00929  -0.00920  -2.26015
   D37       -1.14715   0.00119   0.00000   0.01089   0.01075  -1.13640
   D38        2.01373   0.00092   0.00000   0.00247   0.00228   2.01601
   D39        0.93735  -0.00047   0.00000   0.01789   0.01813   0.95548
   D40       -2.18496  -0.00073   0.00000   0.00948   0.00966  -2.17530
   D41        3.02460   0.00071   0.00000   0.01922   0.01919   3.04379
   D42       -0.09770   0.00045   0.00000   0.01081   0.01072  -0.08698
   D43        0.44474  -0.00041   0.00000  -0.00081  -0.00081   0.44393
   D44        2.59002   0.00037   0.00000   0.00292   0.00294   2.59296
   D45       -1.59501  -0.00066   0.00000  -0.00399  -0.00398  -1.59898
   D46       -3.13500  -0.00015   0.00000  -0.00534  -0.00534  -3.14033
   D47       -0.01892  -0.00012   0.00000  -0.00450  -0.00447  -0.02339
   D48       -0.01328   0.00022   0.00000   0.00362   0.00355  -0.00973
   D49        3.10279   0.00025   0.00000   0.00446   0.00442   3.10721
   D50        3.13276   0.00029   0.00000   0.00672   0.00670   3.13947
   D51       -0.01369   0.00033   0.00000   0.00772   0.00768  -0.00602
   D52        0.01061  -0.00003   0.00000  -0.00186  -0.00189   0.00872
   D53       -3.13585   0.00001   0.00000  -0.00086  -0.00091  -3.13676
   D54        1.05845  -0.00065   0.00000  -0.02562  -0.02562   1.03283
   D55       -1.00631  -0.00045   0.00000  -0.02510  -0.02512  -1.03143
   D56       -3.06287  -0.00045   0.00000  -0.02541  -0.02541  -3.08828
   D57       -0.98097  -0.00098   0.00000  -0.02578  -0.02577  -1.00674
   D58       -3.04573  -0.00078   0.00000  -0.02526  -0.02526  -3.07099
   D59        1.18090  -0.00078   0.00000  -0.02557  -0.02555   1.15535
   D60       -3.09041  -0.00067   0.00000  -0.02449  -0.02449  -3.11490
   D61        1.12801  -0.00046   0.00000  -0.02397  -0.02399   1.10403
   D62       -0.92854  -0.00047   0.00000  -0.02428  -0.02428  -0.95282
   D63        1.22493  -0.00300   0.00000  -0.06881  -0.06880   1.15613
   D64       -2.97906  -0.00166   0.00000  -0.05958  -0.05959  -3.03865
   D65       -0.92229  -0.00186   0.00000  -0.06074  -0.06074  -0.98303
   D66        0.00477  -0.00006   0.00000  -0.00269  -0.00267   0.00210
   D67        3.13806  -0.00004   0.00000  -0.00201  -0.00199   3.13608
   D68       -3.10968  -0.00008   0.00000  -0.00361  -0.00362  -3.11330
   D69        0.02361  -0.00006   0.00000  -0.00293  -0.00293   0.02068
   D70        0.00481   0.00010   0.00000   0.00138   0.00141   0.00623
   D71       -3.13885   0.00004   0.00000   0.00064   0.00067  -3.13818
   D72       -3.12872   0.00012   0.00000   0.00095   0.00096  -3.12776
   D73        0.01079   0.00006   0.00000   0.00021   0.00022   0.01102
   D74       -0.00714   0.00001   0.00000  -0.00006  -0.00008  -0.00722
   D75        3.13638   0.00011   0.00000   0.00078   0.00082   3.13721
   D76       -0.00037  -0.00000   0.00000   0.00040   0.00040   0.00002
   D77       -3.13714   0.00008   0.00000  -0.00012  -0.00020  -3.13734
         Item               Value     Threshold  Converged?
 Maximum Force            0.030370     0.000450     NO 
 RMS     Force            0.006806     0.000300     NO 
 Maximum Displacement     0.155845     0.001800     NO 
 RMS     Displacement     0.040769     0.001200     NO 
 Predicted change in Energy=-1.062046D-02
 GradGradGradGradGradGradGradGradGradGradGradGradGradGradGradGradGradGrad

                          Input orientation:                          
 ---------------------------------------------------------------------
 Center     Atomic      Atomic             Coordinates (Angstroms)
 Number     Number       Type             X           Y           Z
 ---------------------------------------------------------------------
      1          6           0       -2.251101   -0.044715    0.785655
      2          6           0       -1.244547   -1.201810    0.718915
      3          6           0       -0.370005   -0.838048   -0.495773
      4          8           0       -1.935579   -2.405769    0.456309
      5          1           0       -0.624878   -1.292321    1.624068
      6          8           0       -1.119538    0.125143   -1.247429
      7          1           0       -0.177489   -1.736478   -1.092509
      8          7           0        0.938337   -0.318589   -0.170588
      9          6           0       -2.405067    0.323210   -0.684856
     10          1           0       -1.836468    0.808061    1.339778
     11          8           0       -3.511924   -0.429333    1.320958
     12          6           0       -2.819189    1.757831   -0.943896
     13          1           0       -3.144590   -0.358965   -1.143542
     14          8           0       -1.892690    2.682801   -0.410483
     15          1           0       -3.782964    1.951171   -0.451765
     16          1           0       -2.955035    1.903776   -2.028274
     17          1           0       -3.507147   -0.259570    2.266220
     18          1           0       -2.814023   -2.307890    0.847415
     19          1           0       -1.071861    2.579720   -0.905307
     20          6           0        1.064718    0.875802    0.479427
     21          6           0        2.271556    1.380791    0.791704
     22          6           0        3.488664    0.636253    0.425523
     23          7           0        3.308073   -0.557971   -0.237622
     24          6           0        2.090880   -1.063090   -0.549339
     25          1           0        0.137260    1.400004    0.705395
     26          1           0        2.350744    2.340113    1.307150
     27          8           0        4.610833    1.069459    0.700242
     28          8           0        1.900184   -2.129052   -1.137163
 ---------------------------------------------------------------------
                    Distance matrix (angstroms):
                    1          2          3          4          5
     1  C    0.000000
     2  C    1.535081   0.000000
     3  C    2.410385   1.540329   0.000000
     4  O    2.404703   1.412800   2.411480   0.000000
     5  H    2.214511   1.100675   2.182899   2.078789   0.000000
     6  O    2.332963   2.375487   1.433361   3.158190   3.240276
     7  H    3.269469   2.169272   1.095598   2.436733   2.788767
     8  N    3.340946   2.517197   1.444763   3.606759   2.571495
     9  C    1.523640   2.375514   2.350691   2.994997   3.333189
    10  H    1.098271   2.185274   2.868699   3.334523   2.441388
    11  O    1.422728   2.469853   3.652289   2.671850   3.028475
    12  C    2.561883   3.742180   3.596930   4.480726   4.551139
    13  H    2.149157   2.790931   2.889195   2.865421   3.857430
    14  O    2.999759   4.097052   3.836955   5.162046   4.642019
    15  H    2.803815   4.213709   4.407944   4.818751   4.980245
    16  H    3.494330   4.485252   4.067990   5.077856   5.383704
    17  H    1.953429   2.898505   4.219586   3.217418   3.128324
    18  H    2.332950   1.924364   3.152430   0.966545   2.535138
    19  H    3.337307   4.119210   3.513041   5.239762   4.646530
    20  C    3.454820   3.115531   2.438591   4.446462   2.977532
    21  C    4.741997   4.363268   3.682212   5.670142   4.028360
    22  C    5.791228   5.086044   4.232219   6.219104   4.698632
    23  N    5.675821   4.696365   3.697748   5.602837   4.412852
    24  C    4.655330   3.571105   2.471734   4.361936   3.485913
    25  H    2.792477   2.946017   2.590173   4.340809   2.945069
    26  H    5.209255   5.081078   4.555624   6.451348   4.706308
    27  O    6.952324   6.280485   5.466056   7.415674   5.817570
    28  O    5.027411   3.767511   2.689206   4.162788   3.834117
                    6          7          8          9         10
     6  O    0.000000
     7  H    2.092150   0.000000
     8  N    2.364600   2.026183   0.000000
     9  C    1.417146   3.061144   3.443069   0.000000
    10  H    2.770199   3.891389   3.354115   2.158131   0.000000
    11  O    3.553528   4.318786   4.694869   2.411378   2.082942
    12  C    2.376260   4.383020   4.362170   1.515498   2.661385
    13  H    2.084704   3.271672   4.197447   1.105735   3.039738
    14  O    2.799974   4.789270   4.132869   2.430119   2.565390
    15  H    3.325853   5.196996   5.246099   2.145505   2.881870
    16  H    2.672509   4.673529   4.852654   2.146025   3.714237
    17  H    4.265490   4.954689   5.069896   3.203602   2.188447
    18  H    3.630331   3.322819   4.367362   3.072099   3.302603
    19  H    2.478763   4.411861   3.602902   2.630184   2.960373
    20  C    2.883833   3.292122   1.365673   3.701394   3.026825
    21  C    4.151413   4.389242   2.364608   5.016922   4.183810
    22  C    4.929049   4.623306   2.787695   6.005581   5.405776
    23  N    4.592395   3.777414   2.382739   5.797971   5.551625
    24  C    3.493711   2.427753   1.423408   4.706775   4.742788
    25  H    2.649213   3.628918   2.088691   3.091231   2.156025
    26  H    4.845082   5.363667   3.353699   5.536580   4.458810
    27  O    6.125545   5.832261   4.021473   7.190148   6.484213
    28  O    3.769917   2.114908   2.266538   4.975275   5.359518
                   11         12         13         14         15
    11  O    0.000000
    12  C    3.223838   0.000000
    13  H    2.492718   2.150946   0.000000
    14  O    3.912184   1.413684   3.370011   0.000000
    15  H    2.980404   1.099289   2.494555   2.027344   0.000000
    16  H    4.119572   1.102555   2.436941   2.086314   1.781317
    17  H    0.960396   3.853315   3.430422   4.292873   3.514384
    18  H    2.059196   4.442849   2.805618   5.228591   4.557008
    19  H    4.468172   1.931359   3.604002   0.963969   2.819726
    20  C    4.832929   4.229487   4.677280   3.578190   5.052085
    21  C    6.083198   5.391675   6.008874   4.525641   6.207155
    22  C    7.137613   6.551508   6.888576   5.817752   7.441453
    23  N    6.997005   6.588255   6.518984   6.130287   7.524923
    24  C    5.940629   5.676447   5.315921   5.469901   6.602829
    25  H    4.128188   3.404232   4.157292   2.647914   4.124435
    26  H    6.483895   5.668728   6.594665   4.590689   6.392764
    27  O    8.283166   7.640829   8.098550   6.792083   8.518237
    28  O    6.182420   6.117000   5.346307   6.169918   7.029663
                   16         17         18         19         20
    16  H    0.000000
    17  H    4.840203   0.000000
    18  H    5.101725   2.586318   0.000000
    19  H    2.294406   4.904158   5.476851   0.000000
    20  C    4.848063   5.038219   5.031495   3.063625   0.000000
    21  C    5.961799   6.185337   6.282721   3.936460   1.344987
    22  C    7.010635   7.289173   6.969207   5.132891   2.436351
    23  N    6.963703   7.266739   6.459070   5.429064   2.757264
[...]
 00001385,0.00007634,-0.00010842,-0.00007398,0.00004783,-0.00002350,-0.
 00012698,0.00004630,0.00015954,0.00022179,-0.00054981,-0.06679411,-0.0
 5798765,-0.08827261,0.03945283,0.29094194,0.29493425,-0.00115501,0.000
 28608,0.00005626,0.00006972,-0.00177854,0.00041863,-0.00854157,-0.0009
 9654,-0.00273681,0.00143106,0.00141151,-0.00016099,-0.00000244,-0.0001
 6137,0.00025676,0.00419526,-0.00161633,0.00122052,0.00073828,-0.000059
 95,-0.00015705,0.00365767,0.01870224,0.01145069,-0.00170451,-0.0000293
 9,0.00080702,-0.00023465,0.00020973,0.00010425,0.00179935,0.00015745,-
 0.00066327,-0.00018227,0.00002445,-0.00048215,0.00048854,0.00015073,0.
 00004266,0.00081027,-0.00055986,0.00065874,0.00021037,-0.00013843,-0.0
 0005602,0.00005228,0.00002406,0.00024186,-0.00026379,0.00002224,0.0002
 3140,-0.00017540,-0.00002396,-0.00000573,-0.00072824,0.00072535,-0.000
 78385,-0.04121874,-0.00864589,-0.00242366,-0.15047249,0.05351242,0.042
 57417,0.80803734,0.00007417,0.00069316,0.00047457,-0.00004411,0.000524
 07,0.00058064,0.00399192,-0.00098983,-0.00191433,0.00050649,-0.0003368
 0,-0.00037576,0.00003121,0.00025097,0.00001830,0.00129694,-0.00126057,
 -0.00007081,-0.00236342,0.00040715,0.00044264,0.01636501,-0.03007247,-
 0.01680430,-0.00052773,0.00039077,0.00033633,0.00018575,-0.00029714,-0
 .00029395,0.00008849,-0.00063837,-0.00024170,0.00049656,0.00056902,0.0
 0033230,0.00007499,-0.00003722,-0.00009872,-0.00079227,-0.00045925,-0.
 00064287,-0.00008564,-0.00008870,-0.00004751,-0.00010598,-0.00006119,-
 0.00012064,0.00002386,0.00015642,-0.00000844,-0.00008312,0.00018950,0.
 00002240,0.00048251,0.00020845,0.00078004,0.00589930,0.04142399,0.0244
 3057,0.03650175,-0.12786249,-0.03423134,0.12907260,0.50216838,0.000157
 59,0.00027628,0.00044068,0.00005269,0.00099691,0.00101546,0.00355048,-
 0.00043185,-0.00141989,0.00023980,-0.00041659,-0.00051837,0.00000152,0
 .00031225,-0.00012584,0.00076424,-0.00046270,-0.00029163,-0.00165818,0
 .00008074,0.00049715,0.01122684,-0.01794972,-0.02033609,-0.00049139,0.
 00016215,0.00031139,0.00026912,-0.00034535,-0.00012425,-0.00031757,-0.
 00042935,-0.00026275,0.00026844,0.00028761,0.00016457,0.00002596,-0.00
 000791,-0.00008270,-0.00033988,-0.00026594,-0.00039331,-0.00001441,-0.
 00005288,-0.00001929,-0.00007104,-0.00000997,-0.00008806,0.00008998,0.
 00009242,-0.00004037,0.00002665,0.00015665,0.00002438,0.00021812,0.000
 19546,0.00044878,0.00835082,0.02598741,0.02241281,0.03070195,-0.035844
 13,-0.10876483,0.05023427,0.19498291,0.34995464,0.00058755,-0.00058265
 ,-0.00032163,-0.00077378,0.00025751,-0.00153835,0.00030797,0.00384195,
 0.00644876,-0.00125623,-0.00053354,0.00067649,-0.00004553,-0.00010549,
 0.00001984,-0.00388534,0.00201039,-0.00064715,0.00185598,0.00013874,-0
 .00026236,-0.05956016,0.00848705,0.01219001,0.00139164,-0.00017058,-0.
 00084481,-0.00002239,0.00013605,0.00008465,-0.00109706,0.00033378,0.00
 062707,-0.00032275,-0.00051241,0.00006153,-0.00035435,-0.00005070,0.00
 004758,0.00016346,0.00076281,0.00003475,-0.00005607,0.00017209,0.00005
 930,0.00003910,0.00003624,-0.00005205,0.00008985,-0.00010644,-0.000124
 51,0.00012217,-0.00017595,-0.00000364,-0.00016409,-0.00063152,-0.00005
 446,-0.00849193,-0.02102091,-0.01398472,0.02143481,0.02056528,0.014446
 23,-0.10049369,-0.00862714,-0.00277446,0.49159464,-0.00004550,-0.00069
 977,-0.00022410,0.00041899,0.00056579,0.00024766,0.00097869,-0.0002563
 8,-0.00198384,0.00003519,0.00052345,0.00013539,-0.00004443,-0.00020726
 ,0.00011429,-0.00170582,0.00153075,0.00000604,0.00333220,-0.00045071,-
 0.00077512,-0.00163368,0.03071340,0.00976544,0.00070818,-0.00024634,-0
 .00049013,-0.00011226,0.00021486,0.00016030,-0.00028172,0.00051282,0.0
 0025180,-0.00049268,-0.00057099,-0.00021020,-0.00007260,0.00003279,0.0
 0007971,0.00064687,0.00061223,0.00040870,0.00004966,0.00010440,0.00004
 296,0.00008383,0.00004721,0.00008752,-0.00000589,-0.00014589,-0.000022
 21,0.00013881,-0.00001699,-0.00003925,-0.00050259,-0.00033098,-0.00047
 880,-0.00848400,-0.01837420,-0.01148949,0.01707881,-0.01449611,-0.0261
 0201,0.01320306,-0.22060828,-0.11581316,0.16894385,0.42197902,-0.00010
 742,-0.00041639,-0.00008170,-0.00046048,-0.00026653,-0.00058549,-0.000
 35941,-0.00316787,0.00078052,-0.00016782,0.00036446,0.00037209,-0.0000
 0095,-0.00015176,0.00008122,0.00081265,0.00097662,0.00086694,0.0023541
 5,-0.00054088,-0.00025429,0.00677584,0.00974459,0.02379663,0.00049800,
 -0.00010852,0.00007931,-0.00011007,0.00018009,0.00007104,-0.00011316,0
 .00031360,0.00018265,-0.00019895,-0.00023545,-0.00017533,0.00006814,-0
 .00000325,0.00001906,0.00032234,0.00026145,0.00033100,0.00001282,0.000
 03419,0.00002254,0.00006843,0.00001613,0.00007740,-0.00003341,-0.00007
 239,-0.00001437,0.00001881,-0.00008327,-0.00003390,-0.00023082,-0.0001
 3992,-0.00041626,-0.00570893,-0.01088091,-0.00801555,0.01204934,-0.026
 04511,0.00008208,0.01255760,-0.11422901,-0.14261724,0.08549734,0.24751
 636,0.22903319,-0.00124365,0.00105343,0.00060985,0.00123309,-0.0009683
 0,-0.00005446,-0.04293747,0.00295274,0.00241382,0.00205199,0.00122068,
 -0.00084194,0.00007854,0.00018798,0.00063443,0.00784640,-0.00467634,0.
 00283301,-0.00178381,0.00038340,0.00015054,-0.12313421,-0.02501506,-0.
 01407144,-0.00282599,0.00052210,0.00148660,-0.00011000,-0.00013247,-0.
 00004685,0.00209370,-0.00030832,-0.00106944,0.00041600,0.00074117,-0.0
 0024494,0.00079187,0.00013279,-0.00012015,-0.00009605,-0.00126705,0.00
 013520,0.00012513,-0.00032922,-0.00012009,-0.00004400,-0.00005289,0.00
 014118,-0.00018658,0.00014444,0.00023155,-0.00013747,0.00012853,0.0000
 3666,0.00029888,0.00118335,0.00000882,0.02861344,0.05030308,0.03251259
 ,-0.02846004,-0.00404975,-0.00083681,-0.01210249,-0.05534523,-0.040724
 80,-0.29544014,-0.08654033,-0.04299549,0.55099037,0.00110361,0.0002562
 6,-0.00000574,-0.00484359,-0.00141728,-0.00320033,0.01004791,0.0182457
 8,0.01961425,-0.00281403,-0.00257447,0.00088174,0.00032990,0.00019794,
 -0.00093799,-0.00504238,-0.00146242,-0.00334440,-0.00946597,-0.0010682
 0,0.00038652,-0.01147806,-0.09584162,-0.02723200,0.00035940,-0.0001891
 8,-0.00086718,0.00015274,-0.00023709,-0.00012986,-0.00104627,-0.000551
 38,0.00032107,0.00042327,0.00035919,0.00052665,-0.00066942,-0.00006903
 ,0.00002872,-0.00092185,-0.00019328,-0.00064172,-0.00013406,0.00005663
 ,-0.00000181,-0.00010981,-0.00000367,-0.00023737,0.00011775,0.00011606
 ,-0.00010433,-0.00027857,-0.00054074,0.00009955,0.00079011,-0.00023424
 ,0.00062296,0.01818387,-0.01918302,-0.01501392,0.00188643,0.00212057,0
 .00168452,-0.03892664,-0.03362655,-0.00586592,-0.07200531,-0.12788801,
 -0.03583489,0.17200450,0.65762652,0.00095929,0.00044078,-0.00068726,0.
 00061357,-0.00040721,-0.00144213,0.01510613,0.01664148,0.01259576,-0.0
 0151199,-0.00187237,0.00015138,0.00002759,0.00012548,-0.00067463,-0.01
 117366,0.00078069,-0.00519758,-0.00695884,-0.00055177,0.00003608,-0.00
 391373,-0.03141399,-0.07504152,0.00027247,0.00023959,-0.00211039,0.000
 13004,-0.00022323,-0.00007914,-0.00055270,-0.00049432,0.00032371,-0.00
 012734,-0.00001230,0.00058967,-0.00081120,-0.00000097,0.00011049,-0.00
 052735,0.00011490,-0.00054797,-0.00012428,0.00021137,0.00001588,-0.000
 07167,-0.00000526,-0.00020281,0.00011677,0.00006247,-0.00007117,-0.000
 05991,-0.00012360,0.00008892,0.00038100,-0.00037230,0.00059281,0.01000
 479,-0.01587973,-0.01343185,0.00290269,0.00199295,0.00127058,-0.028493
 84,-0.00481824,-0.02248941,-0.03198657,-0.03486791,-0.09134574,0.09604
 337,0.30266497,0.43142221,-0.00255570,-0.00152067,-0.00023865,0.000411
 93,-0.00008952,0.00069460,-0.00089271,-0.00012042,-0.00106215,-0.00006
 163,0.00008126,-0.00017067,0.00001346,0.00023514,-0.00019374,0.0003875
 4,-0.00104191,-0.00001395,0.00004052,0.00014744,0.00004896,0.00533413,
 -0.00125779,-0.00127420,0.00007175,0.00029062,-0.00004014,-0.00154485,
 -0.00029479,0.00038002,-0.00007272,-0.00007399,-0.00020193,-0.00001109
 ,0.00014073,-0.00006075,0.00000573,-0.00000930,0.00007045,-0.00046942,
 -0.00013981,-0.00022047,-0.00003107,-0.00004894,-0.00002238,-0.0000373
 2,-0.00002741,-0.00002592,0.00005583,-0.00001197,0.00003926,0.00000783
 ,0.00000440,-0.00004632,0.00023797,0.00020757,0.00019535,-0.25607895,0
 .09787124,0.08262982,-0.01788578,0.01492037,0.01211842,-0.00011007,-0.
 00564563,-0.00332486,0.00029446,0.00041188,0.00011527,0.00154495,-0.00
 143152,-0.00085600,0.27331845,-0.00085038,-0.00099440,-0.00032091,-0.0
 0108436,-0.00110240,-0.00041377,0.00274841,-0.00006051,0.00074050,0.00
 021832,0.00043822,0.00021632,0.00001950,-0.00040458,0.00027020,-0.0004
 5881,0.00067780,0.00027822,0.00022048,-0.00014747,0.00012945,0.0266381
 5,-0.01254585,-0.01271822,-0.00020087,-0.00001431,-0.00046480,-0.00049
 799,0.00110960,0.00029632,0.00054452,0.00048178,0.00007460,0.00030172,
 0.00045890,0.00004100,0.00004227,-0.00003267,0.00015847,-0.00039907,-0
 .00062664,-0.00001987,-0.00003665,0.00000746,-0.00000047,-0.00005218,-
 0.00011921,0.00000424,-0.00013406,-0.00003863,0.00009756,-0.00002800,-
 0.00005927,0.00004606,0.00046095,0.00022398,0.00044276,0.09336815,-0.0
 9732846,-0.04768261,-0.01066646,0.01121689,0.00267887,-0.00183517,0.00
 220508,-0.00668062,0.00108680,0.00027192,0.00163712,-0.00784747,0.0001
 0682,-0.00075702,-0.10287580,0.10034393,0.00021456,0.00005091,-0.00001
 356,-0.00004369,-0.00032182,0.00032354,0.00215410,0.00009496,-0.000042
 79,-0.00011387,0.00015189,-0.00011214,-0.00000873,0.00006907,-0.000154
 12,-0.00044162,0.00121248,0.00013472,0.00017431,-0.00003661,-0.0000778
 0,0.01818766,-0.00993681,-0.00579306,-0.00072401,-0.00025656,-0.000246
 71,0.00018930,0.00014314,0.00052115,0.00027443,0.00026460,-0.00003784,
 -0.00068358,-0.00057200,-0.00028069,0.00011035,0.00009797,0.00000072,0
 .00107476,-0.00001459,0.00066332,0.00014391,0.00003806,0.00001301,0.00
 010172,0.00009667,0.00010613,0.00003113,0.00001434,0.00006299,0.000010
 35,-0.00006666,0.00001267,-0.00089022,0.00065219,-0.00162110,0.0779459
 7,-0.04767276,-0.07497324,-0.00501098,0.00009871,0.00915613,-0.0001528
 2,-0.00644132,0.00787348,0.00052979,0.00183152,-0.00107423,-0.00516581
 ,-0.00199607,0.00208442,-0.08852299,0.05935077,0.06995242,0.00002368,-
 0.00009825,-0.00004769,0.00011018,0.00001395,-0.00015845,0.00091069,-0
 .00137711,-0.00054296,-0.00009643,-0.00001332,0.00006570,-0.00000893,-
 0.00000853,0.00002303,-0.00019480,0.00027969,-0.00002398,-0.00051113,-
 0.00014554,-0.00007963,-0.00478740,-0.00151160,0.00000897,0.00014504,-
 0.00002297,-0.00008698,-0.00003910,0.00000888,0.00002243,-0.00002175,0
 .00006953,0.00003783,-0.00008454,-0.00008488,-0.00001298,-0.00002950,0
 .00000102,0.00001240,0.00009018,0.00010803,0.00007642,-0.00000076,0.00
 001570,-0.00000101,0.00001477,0.00001337,0.00001377,-0.00000595,-0.000
 02583,-0.00000129,0.00000118,-0.00002960,0.00001422,-0.00002433,-0.000
 09454,-0.00007590,0.00126882,-0.02363929,-0.01656826,-0.05505805,-0.02
 463072,-0.01457868,0.00972099,0.01859621,0.01210165,-0.00394602,0.0039
 3354,0.00328563,-0.00307710,-0.00046532,-0.00006861,0.00091322,0.00044
 164,-0.00022735,0.05254215,0.00006966,-0.00008819,0.00000505,-0.000014
 16,0.00021630,0.00014307,0.00052274,0.00027465,-0.00108591,-0.00002147
 ,-0.00000921,-0.00000647,-0.00001238,0.00001369,0.00000382,-0.00020451
 ,0.00003020,0.00001698,-0.00016962,-0.00010660,0.00007405,-0.00242613,
 0.00504929,-0.00281958,0.00009304,-0.00004683,-0.00005252,0.00005039,-
 0.00001880,-0.00003318,-0.00014070,0.00002863,0.00003992,-0.00002678,-
 0.00003377,-0.00002459,-0.00002704,-0.00000136,0.00000830,0.00003609,0
 .00003446,0.00005919,0.00000185,0.00000603,0.00000296,0.00000751,0.000
 00596,0.00000675,0.00000289,-0.00001367,-0.00002618,0.00001783,-0.0000
 0129,-0.00001610,0.00000768,-0.00002599,-0.00004442,0.00416175,-0.0069
 9489,-0.00426158,-0.02782622,-0.24509749,-0.14825699,-0.00944433,-0.00
 829095,-0.00620816,0.00305464,-0.00097188,-0.00189964,0.00206357,0.000
 94103,0.00049577,-0.00038304,-0.00142660,0.00322493,0.03045717,0.25540
 504,0.00000122,0.00006454,-0.00004089,0.00008864,-0.00020564,-0.000346
 87,0.00063132,-0.00122928,0.00141009,-0.00012068,-0.00000948,0.0000952
 4,0.00002080,-0.00000936,0.00000427,-0.00013721,0.00037166,-0.00008548
 ,-0.00019266,0.00014204,-0.00012916,-0.00081711,-0.00308069,0.00733110
 ,0.00016450,0.00002008,-0.00003044,0.00000450,-0.00000232,-0.00003734,
 0.00002811,0.00002785,0.00003157,-0.00009921,-0.00012071,-0.00001156,-
 0.00001828,0.00000343,-0.00000431,0.00010326,0.00021261,-0.00000929,-0
 .00000055,0.00001962,0.00000533,0.00000953,0.00001201,0.00000420,0.000
 00343,-0.00001113,0.00000520,-0.00000511,-0.00002926,0.00002114,-0.000
 07386,-0.00023364,0.00003230,0.00261417,-0.00158926,-0.00284982,-0.016
 82936,-0.14839174,-0.12683188,-0.00696173,-0.00854407,-0.00368941,0.00
 242472,-0.00182770,-0.00006124,0.00172023,0.00062696,0.00033594,-0.000
 55696,0.00296664,-0.00371355,0.01834111,0.15846929,0.12898244,0.000963
 36,-0.00016647,0.00000412,-0.00000432,0.00148488,-0.00059480,0.0067339
 9,0.00110595,0.00249504,-0.00120874,-0.00108201,0.00023097,0.00001792,
 0.00010084,-0.00019636,-0.00362247,0.00146363,-0.00105195,0.00032268,-
 0.00020811,-0.00016183,-0.00695270,-0.00630770,-0.00306848,0.00155098,
 -0.00005273,-0.00069107,0.00015869,-0.00024252,-0.00013927,-0.00158593
 ,-0.00011762,0.00058585,0.00007392,-0.00015183,0.00034359,-0.00042022,
 -0.00011035,-0.00003572,-0.00053481,0.00065679,-0.00048880,-0.00015303
 ,0.00013334,0.00005810,-0.00002675,-0.00000674,-0.00017850,0.00021773,
 -0.00003541,-0.00021395,0.00015389,0.00000980,-0.00001359,0.00039941,-
 0.00072070,0.00057373,0.00056123,0.01171240,0.00837137,-0.07658753,-0.
 01331712,-0.00243603,-0.51108081,-0.15448197,-0.08006545,-0.02143598,-
 0.04754839,-0.03158639,0.01895240,0.00803385,0.00480909,-0.00302128,-0
 .00074040,-0.00027293,0.00128231,0.00072088,0.00020990,0.60014288,0.00
 019561,-0.00032500,-0.00012408,-0.00008623,0.00020271,-0.00044338,0.00
 087600,0.00053680,0.00179334,-0.00049338,-0.00014057,0.00019654,0.0000
 0525,-0.00006905,-0.00004207,-0.00135553,0.00089040,-0.00031070,0.0008
 6776,-0.00018359,-0.00017859,-0.00753916,0.00501079,0.00469992,0.00057
 454,-0.00012742,-0.00029219,-0.00002532,0.00004295,0.00006773,-0.00042
 659,0.00021451,0.00021134,-0.00020920,-0.00027965,-0.00003324,-0.00012
 928,-0.00000724,0.00002737,0.00019831,0.00039460,0.00009072,-0.0000052
 3,0.00006924,0.00002722,0.00003088,0.00002498,0.00000061,0.00004367,-0
 .00007458,-0.00004730,0.00006275,-0.00008544,0.00000233,-0.00009863,-0
 .00030253,-0.00010653,0.00111920,-0.00508110,-0.00520946,0.00541795,0.
 02058983,-0.00276587,-0.15443838,-0.14614759,-0.04003864,-0.06223061,-
 0.03333977,-0.02954307,0.01929283,0.00523467,-0.00570192,0.00063685,-0
 .00044084,0.00145030,-0.00198844,0.00158357,0.00233249,0.20643843,0.15
 862772,0.00008192,-0.00014419,-0.00013903,-0.00001733,-0.00003427,-0.0
 0040152,0.00013515,0.00077897,0.00051348,-0.00020036,-0.00001979,0.000
 20084,-0.00000056,-0.00008829,0.00003648,-0.00093028,0.00036433,-0.000
 08176,0.00057762,-0.00006061,-0.00017956,-0.00518765,0.00442209,0.0032
 1453,0.00034823,-0.00004306,-0.00025401,-0.00006603,0.00008974,0.00001
 870,-0.00011652,0.00011244,0.00017630,-0.00009969,-0.00011396,-0.00001
 436,-0.00006848,-0.00000934,0.00002847,0.00006372,0.00013348,0.0001147
 8,-0.00001621,0.00004063,0.00001457,0.00002687,0.00000261,0.00001535,-
 0.00000986,-0.00003417,-0.00002323,0.00000506,-0.00004240,-0.00001757,
 -0.00003818,-0.00010475,-0.00013261,0.00082238,-0.00609758,-0.00184081
 ,0.01092698,-0.00143904,0.02188737,-0.07986681,-0.03979810,-0.09757509
 ,-0.04217032,-0.03082347,-0.00510888,0.01345654,-0.00467644,0.00639766
 ,0.00052108,0.00151703,-0.00157939,-0.00155671,0.00214478,0.00000910,0
 .10800640,0.07683357,0.07843152,0.00031143,-0.00080117,0.00004292,0.00
 141238,0.00262635,-0.00007283,-0.00929280,-0.00075668,0.00340375,-0.00
 043335,-0.00035205,0.00017992,-0.00026836,-0.00011472,0.00047677,-0.00
 116606,0.00321097,0.00008970,0.00062455,0.00446611,0.00262667,0.005453
 68,0.04149065,0.03096704,0.00167721,-0.00002443,-0.00025379,-0.0000107
 8,0.00009904,0.00005284,-0.00103330,0.00039720,0.00047242,-0.00023090,
 -0.00041381,0.00001111,-0.00013785,-0.00010675,0.00000991,0.00014504,0
 .00065688,0.00007485,-0.00003775,0.00012571,0.00004627,0.00004003,0.00
 003937,-0.00003316,0.00007896,-0.00009691,-0.00011318,0.00016598,0.000
 03713,0.00001897,-0.00024307,-0.00050125,-0.00010493,-0.00891714,-0.00
 957929,-0.00538768,0.00706922,-0.00032831,-0.00095208,-0.00274494,0.01
 441448,0.01150190,-0.02053613,-0.06249367,-0.04236304,-0.10345774,-0.0
 6380054,-0.04412911,0.00013485,0.00161675,0.00111625,0.00086258,-0.000
 57128,-0.00055272,-0.00489684,-0.00673404,-0.00462695,0.13543110,-0.00
 070560,-0.00040284,-0.00013449,0.00074341,-0.00104944,0.00043052,-0.01
 244356,-0.00667567,-0.00579103,0.00100269,0.00175445,0.00003233,-0.000
 03651,-0.00021413,0.00050162,0.00282580,0.00115772,0.00217584,0.005305
 59,-0.00142146,-0.00031667,0.03052132,-0.03539001,-0.04362858,-0.00030
 257,0.00020336,0.00050012,-0.00023127,0.00032259,0.00019350,0.00062621
 ,0.00062806,-0.00011999,-0.00047675,-0.00043802,-0.00039070,0.00042809
 ,0.00005411,0.00002439,0.00085095,0.00029297,0.00057189,0.00010801,-0.
 00001139,-0.00000422,0.00008841,0.00004924,0.00017220,-0.00009370,-0.0
 0013972,0.00006732,0.00016599,0.00007690,-0.00004527,-0.00061530,0.000
 07893,-0.00060114,0.00494626,-0.00080894,-0.00389499,0.00385001,-0.003
 36312,-0.00131854,0.00115285,0.02159044,0.00729209,-0.04307397,-0.0385
 0510,-0.03742575,-0.06578215,-0.40018129,-0.22626828,0.00002503,-0.002
 20056,-0.00152733,0.00019721,-0.00046132,0.00001509,-0.00657071,-0.006
 81841,-0.00291021,0.07749426,0.47187266,-0.00059799,-0.00033736,0.0001
 1620,-0.00015673,0.00045953,0.00059584,-0.00888419,-0.00481170,-0.0041
 9842,0.00098061,0.00092800,0.00001300,-0.00007739,-0.00010395,0.000520
 74,0.00331939,-0.00099520,0.00206443,0.00342377,-0.00024575,-0.0024338
 6,0.02380535,-0.04283509,-0.01741342,-0.00010284,-0.00025308,0.0004947
 1,-0.00012999,0.00020179,0.00013944,0.00040468,0.00031105,-0.00003757,
 -0.00022961,-0.00021992,-0.00039425,0.00031969,0.00005867,-0.00002329,
 0.00058660,0.00009444,0.00054293,0.00007834,-0.00004303,0.00001177,0.0
 0009708,-0.00001112,0.00017634,-0.00010643,-0.00005936,0.00005069,0.00
 001393,0.00005709,-0.00007041,-0.00037554,0.00012868,-0.00059014,0.004
 90733,-0.00241177,0.00140957,0.00208799,-0.00098054,-0.00285854,0.0020
 8990,0.00628043,0.01569520,-0.02838304,-0.03550032,-0.00601143,-0.0461
 2219,-0.22736795,-0.24269394,0.00001887,-0.00188782,-0.00118448,0.0000
 2729,0.00004044,-0.00042671,-0.00449303,-0.00289643,-0.00371132,0.0474
 9819,0.31240030,0.26021690\\-0.00001637,0.00000070,0.00000021,-0.00000
 212,0.00000166,0.00000183,0.00000533,0.00000373,-0.00000199,-0.0000118
 9,0.00000804,-0.00000304,-0.00000247,0.00000413,-0.00000040,-0.0000005
 3,0.00001857,0.00000891,0.00000137,0.00000059,0.00000242,0.00002067,-0
 .00004267,-0.00002404,0.00000939,-0.00001272,-0.00000324,0.00001171,-0
 .00000133,0.00000047,0.00001694,-0.00001642,0.00000642,0.00000934,0.00
 001015,0.00000299,-0.00000120,0.00000166,-0.00000168,-0.00000726,-0.00
 000250,-0.00000983,-0.00000054,-0.00000534,0.00000352,-0.00000540,0.00
 000134,-0.00000100,-0.00000447,0.00001042,-0.00000548,-0.00000032,-0.0
 0000659,0.00000838,0.00000129,-0.00000698,0.00000885,-0.00000537,0.000
 01412,0.00000381,0.00001160,0.00000762,0.00000138,-0.00000115,-0.00003
 132,-0.00001083,-0.00000249,0.00000424,-0.00000137,-0.00001055,0.00008
 303,0.00005874,-0.00000208,-0.00000059,-0.00000162,-0.00000959,0.00000
 109,-0.00000284,0.00000627,0.00000867,0.00000340,-0.00001009,-0.000053
 31,-0.00004397\\\@
 The archive entry for this job was punched.


 LOVE IS BLIND, THAT'S WHY ALL THE WORLD LOVES A LOUVER.
 Job cpu time:       0 days  9 hours 43 minutes  4.0 seconds.
 Elapsed time:       0 days  0 hours 14 minutes 42.6 seconds.
 File lengths (MBytes):  RWF=    600 Int=      0 D2E=      0 Chk=     20 Scr=      1
 Normal termination of Gaussian 16 at Thu Oct 24 11:03:23 2024.
