 Entering Gaussian System, Link 0=g16
 Input=UridineNsrrgPBE0aVDZ.gjf
 Output=UridineNsrrgPBE0aVDZ.log
 Initial command:
 /sw/contrib/chem-src/g16/c01/g16/l1.exe "/scr/Gau-27711.inp" -scrdir="/scr/"
 Entering Link 1 = /sw/contrib/chem-src/g16/c01/g16/l1.exe PID=     27712.
  
 Copyright (c) 1988-2019, Gaussian, Inc.  All Rights Reserved.
  
 This is part of the Gaussian(R) 16 program.  It is based on
 the Gaussian(R) 09 system (copyright 2009, Gaussian, Inc.),
 the Gaussian(R) 03 system (copyright 2003, Gaussian, Inc.),
 the Gaussian(R) 98 system (copyright 1998, Gaussian, Inc.),
 the Gaussian(R) 94 system (copyright 1995, Gaussian, Inc.),
 the Gaussian 92(TM) system (copyright 1992, Gaussian, Inc.),
 the Gaussian 90(TM) system (copyright 1990, Gaussian, Inc.),
 the Gaussian 88(TM) system (copyright 1988, Gaussian, Inc.),
 the Gaussian 86(TM) system (copyright 1986, Carnegie Mellon
 University), and the Gaussian 82(TM) system (copyright 1983,
 Carnegie Mellon University). Gaussian is a federally registered
 trademark of Gaussian, Inc.
  
 This software contains proprietary and confidential information,
 including trade secrets, belonging to Gaussian, Inc.
  
 This software is provided under written license and may be
 used, copied, transmitted, or stored only in accord with that
 written license.
  
 The following legend is applicable only to US Government
 contracts under FAR:
  
                    RESTRICTED RIGHTS LEGEND
  
 Use, reproduction and disclosure by the US Government is
 subject to restrictions as set forth in subparagraphs (a)
 and (c) of the Commercial Computer Software - Restricted
 Rights clause in FAR 52.227-19.
  
 Gaussian, Inc.
 340 Quinnipiac St., Bldg. 40, Wallingford CT 06492
  
  
 ---------------------------------------------------------------
 Warning -- This program may not be used in any manner that
 competes with the business of Gaussian, Inc. or will provide
 assistance to any competitor of Gaussian, Inc.  The licensee
 of this program is prohibited from giving any competitor of
 Gaussian, Inc. access to this program.  By using this program,
 the user acknowledges that Gaussian, Inc. is engaged in the
 business of creating and licensing software in the field of
 computational chemistry and represents and warrants to the
 licensee that it is not a competitor of Gaussian, Inc. and that
 it will not use this program in any manner prohibited above.
 ---------------------------------------------------------------
  

 Cite this work as:
 Gaussian 16, Revision C.01,
 M. J. Frisch, G. W. Trucks, H. B. Schlegel, G. E. Scuseria, 
 M. A. Robb, J. R. Cheeseman, G. Scalmani, V. Barone, 
 G. A. Petersson, H. Nakatsuji, X. Li, M. Caricato, A. V. Marenich, 
 J. Bloino, B. G. Janesko, R. Gomperts, B. Mennucci, H. P. Hratchian, 
 J. V. Ortiz, A. F. Izmaylov, J. L. Sonnenberg, D. Williams-Young, 
 F. Ding, F. Lipparini, F. Egidi, J. Goings, B. Peng, A. Petrone, 
 T. Henderson, D. Ranasinghe, V. G. Zakrzewski, J. Gao, N. Rega, 
 G. Zheng, W. Liang, M. Hada, M. Ehara, K. Toyota, R. Fukuda, 
 J. Hasegawa, M. Ishida, T. Nakajima, Y. Honda, O. Kitao, H. Nakai, 
 T. Vreven, K. Throssell, J. A. Montgomery, Jr., J. E. Peralta, 
 F. Ogliaro, M. J. Bearpark, J. J. Heyd, E. N. Brothers, K. N. Kudin, 
 V. N. Staroverov, T. A. Keith, R. Kobayashi, J. Normand, 
 K. Raghavachari, A. P. Rendell, J. C. Burant, S. S. Iyengar, 
 J. Tomasi, M. Cossi, J. M. Millam, M. Klene, C. Adamo, R. Cammi, 
 J. W. Ochterski, R. L. Martin, K. Morokuma, O. Farkas, 
 J. B. Foresman, and D. J. Fox, Gaussian, Inc., Wallingford CT, 2019.
 
 ******************************************
 Gaussian 16:  EM64L-G16RevC.01  3-Jul-2019
                17-Oct-2024 
 ******************************************
 %nprocshared=40
 Will use up to   40 processors via shared memory.
 %mem=50gb
 ------------------------------------------------------
 # PBE1PBE/aug-cc-pVDZ opt freq EmpiricalDispersion=GD3
 ------------------------------------------------------
 1/18=20,19=15,26=3,38=1/1,3;
 2/9=110,12=2,17=6,18=5,40=1/2;
 3/5=16,7=10,11=2,25=1,30=1,71=1,74=-13,124=31/1,2,3;
 4//1;
 5/5=2,38=5/2;
 6/7=2,8=2,9=2,10=2,28=1/1;
 7//1,2,3,16;
 1/18=20,19=15,26=3/3(2);
 2/9=110/2;
 99//99;
 2/9=110/2;
 3/5=16,7=10,11=2,25=1,30=1,71=1,74=-13,124=31/1,2,3;
 4/5=5,16=3,69=1/1;
 5/5=2,38=5/2;
 7//1,2,3,16;
 1/18=20,19=15,26=3/3(-5);
 2/9=110/2;
 6/7=2,8=2,9=2,10=2,19=2,28=1/1;
 99/9=1/99;
 ----
 blah
 ----
 Symbolic Z-matrix:
 Charge =  0 Multiplicity = 1
 C                    -3.01305  -1.80156   0.78929 
 C                    -2.2238   -1.42066  -0.45388 
 C                    -1.82777   0.04097  -0.15417 
 O                    -3.08979  -1.50233  -1.59892 
 H                    -1.37582  -2.08517  -0.64454 
 O                    -2.70811   0.52373   0.8973 
 H                    -2.00997   0.67334  -1.03141 
 N                    -0.42663   0.18005   0.25062 
 C                    -3.72341  -0.48509   1.0809 
 H                    -2.32152  -2.08273   1.59197 
 O                    -3.89712  -2.88496   0.52083 
 C                    -4.31607  -0.39045   2.48172 
 H                    -4.52813  -0.30508   0.35609 
 O                    -3.29703  -0.51      3.47178 
 H                    -5.05208  -1.18215   2.65004 
 H                    -4.80771   0.57689   2.62934 
 H                    -4.23923  -3.19657   1.37933 
 H                    -3.60057  -2.32857  -1.47238 
 H                    -2.80436   0.33169   3.43746 
 C                    -0.03939   0.1094    1.57468 
 C                     1.23818   0.20942   1.94747 
 C                     2.26796   0.39526   0.91504 
 N                     1.81389   0.43732  -0.36966 
 C                     0.50814   0.32255  -0.77014 
 H                    -0.8141   -0.02968   2.31983 
 H                     1.56305   0.16071   2.97803 
 H                     2.50085   0.55179  -1.09832 
 O                     3.45181   0.49277   1.21283 
 O                     0.22931   0.33479  -1.96606 
 

 GradGradGradGradGradGradGradGradGradGradGradGradGradGradGradGradGradGrad
 Berny optimization.
 Initialization pass.
                           ----------------------------
                           !    Initial Parameters    !
                           ! (Angstroms and Degrees)  !
 --------------------------                            --------------------------
 ! Name  Definition              Value          Derivative Info.                !
 --------------------------------------------------------------------------------
 ! R1    R(1,2)                  1.521          estimate D2E/DX2                !
 ! R2    R(1,9)                  1.5241         estimate D2E/DX2                !
 ! R3    R(1,10)                 1.0962         estimate D2E/DX2                !
 ! R4    R(1,11)                 1.4239         estimate D2E/DX2                !
 ! R5    R(2,3)                  1.5437         estimate D2E/DX2                !
 ! R6    R(2,4)                  1.438          estimate D2E/DX2                !
 ! R7    R(2,5)                  1.0941         estimate D2E/DX2                !
 ! R8    R(3,6)                  1.4538         estimate D2E/DX2                !
 ! R9    R(3,7)                  1.0966         estimate D2E/DX2                !
 ! R10   R(3,8)                  1.4651         estimate D2E/DX2                !
 ! R11   R(4,18)                 0.9796         estimate D2E/DX2                !
 ! R12   R(6,9)                  1.443          estimate D2E/DX2                !
 ! R13   R(8,20)                 1.3813         estimate D2E/DX2                !
 ! R14   R(8,24)                 1.3914         estimate D2E/DX2                !
 ! R15   R(9,12)                 1.524          estimate D2E/DX2                !
 ! R16   R(9,13)                 1.0979         estimate D2E/DX2                !
 ! R17   R(11,17)                0.9753         estimate D2E/DX2                !
 ! R18   R(12,14)                1.4258         estimate D2E/DX2                !
 ! R19   R(12,15)                1.094          estimate D2E/DX2                !
 ! R20   R(12,16)                1.0951         estimate D2E/DX2                !
 ! R21   R(14,19)                0.9759         estimate D2E/DX2                !
 ! R22   R(20,21)                1.3346         estimate D2E/DX2                !
 ! R23   R(20,25)                1.0839         estimate D2E/DX2                !
 ! R24   R(21,22)                1.47           estimate D2E/DX2                !
 ! R25   R(21,26)                1.0817         estimate D2E/DX2                !
 ! R26   R(22,23)                1.3632         estimate D2E/DX2                !
 ! R27   R(22,28)                1.2246         estimate D2E/DX2                !
 ! R28   R(23,24)                1.3706         estimate D2E/DX2                !
 ! R29   R(23,27)                1.008          estimate D2E/DX2                !
 ! R30   R(24,29)                1.2281         estimate D2E/DX2                !
 ! A1    A(2,1,9)              100.4819         estimate D2E/DX2                !
 ! A2    A(2,1,10)             109.5955         estimate D2E/DX2                !
 ! A3    A(2,1,11)             111.0155         estimate D2E/DX2                !
 ! A4    A(9,1,10)             112.0552         estimate D2E/DX2                !
 ! A5    A(9,1,11)             113.8242         estimate D2E/DX2                !
 ! A6    A(10,1,11)            109.5482         estimate D2E/DX2                !
 ! A7    A(1,2,3)              102.2129         estimate D2E/DX2                !
 ! A8    A(1,2,4)              108.9118         estimate D2E/DX2                !
 ! A9    A(1,2,5)              113.1109         estimate D2E/DX2                !
 ! A10   A(3,2,4)              111.277          estimate D2E/DX2                !
 ! A11   A(3,2,5)              114.2099         estimate D2E/DX2                !
 ! A12   A(4,2,5)              107.0682         estimate D2E/DX2                !
 ! A13   A(2,3,6)              107.4264         estimate D2E/DX2                !
 ! A14   A(2,3,7)              110.3685         estimate D2E/DX2                !
 ! A15   A(2,3,8)              112.8846         estimate D2E/DX2                !
 ! A16   A(6,3,7)              106.6459         estimate D2E/DX2                !
 ! A17   A(6,3,8)              110.3505         estimate D2E/DX2                !
 ! A18   A(7,3,8)              108.9754         estimate D2E/DX2                !
 ! A19   A(2,4,18)             105.0147         estimate D2E/DX2                !
 ! A20   A(3,6,9)              106.6139         estimate D2E/DX2                !
 ! A21   A(3,8,20)             121.8768         estimate D2E/DX2                !
 ! A22   A(3,8,24)             116.7137         estimate D2E/DX2                !
 ! A23   A(20,8,24)            121.3384         estimate D2E/DX2                !
 ! A24   A(1,9,6)              104.5724         estimate D2E/DX2                !
 ! A25   A(1,9,12)             114.2538         estimate D2E/DX2                !
 ! A26   A(1,9,13)             110.913          estimate D2E/DX2                !
 ! A27   A(6,9,12)             110.3136         estimate D2E/DX2                !
 ! A28   A(6,9,13)             108.4875         estimate D2E/DX2                !
 ! A29   A(12,9,13)            108.1562         estimate D2E/DX2                !
 ! A30   A(1,11,17)            107.1539         estimate D2E/DX2                !
 ! A31   A(9,12,14)            110.8003         estimate D2E/DX2                !
 ! A32   A(9,12,15)            110.9845         estimate D2E/DX2                !
 ! A33   A(9,12,16)            110.6923         estimate D2E/DX2                !
 ! A34   A(14,12,15)           108.2595         estimate D2E/DX2                !
 ! A35   A(14,12,16)           107.5377         estimate D2E/DX2                !
 ! A36   A(15,12,16)           108.4497         estimate D2E/DX2                !
 ! A37   A(12,14,19)           105.3122         estimate D2E/DX2                !
 ! A38   A(8,20,21)            122.1592         estimate D2E/DX2                !
 ! A39   A(8,20,25)            117.7212         estimate D2E/DX2                !
 ! A40   A(21,20,25)           120.1194         estimate D2E/DX2                !
 ! A41   A(20,21,22)           118.9396         estimate D2E/DX2                !
 ! A42   A(20,21,26)           123.3856         estimate D2E/DX2                !
 ! A43   A(22,21,26)           117.6748         estimate D2E/DX2                !
 ! A44   A(21,22,23)           115.6223         estimate D2E/DX2                !
 ! A45   A(21,22,28)           121.0968         estimate D2E/DX2                !
 ! A46   A(23,22,28)           123.2784         estimate D2E/DX2                !
 ! A47   A(22,23,24)           126.1644         estimate D2E/DX2                !
 ! A48   A(22,23,27)           117.2423         estimate D2E/DX2                !
 ! A49   A(24,23,27)           116.5885         estimate D2E/DX2                !
 ! A50   A(8,24,23)            115.7374         estimate D2E/DX2                !
 ! A51   A(8,24,29)            124.2567         estimate D2E/DX2                !
 ! A52   A(23,24,29)           120.0009         estimate D2E/DX2                !
 ! D1    D(9,1,2,3)             36.3616         estimate D2E/DX2                !
 ! D2    D(9,1,2,4)            -81.4535         estimate D2E/DX2                !
 ! D3    D(9,1,2,5)            159.6297         estimate D2E/DX2                !
 ! D4    D(10,1,2,3)           -81.7514         estimate D2E/DX2                !
 ! D5    D(10,1,2,4)           160.4335         estimate D2E/DX2                !
 ! D6    D(10,1,2,5)            41.5167         estimate D2E/DX2                !
 ! D7    D(11,1,2,3)           157.1011         estimate D2E/DX2                !
 ! D8    D(11,1,2,4)            39.286          estimate D2E/DX2                !
 ! D9    D(11,1,2,5)           -79.6308         estimate D2E/DX2                !
 ! D10   D(2,1,9,6)            -43.5336         estimate D2E/DX2                !
 ! D11   D(2,1,9,12)          -164.2341         estimate D2E/DX2                !
 ! D12   D(2,1,9,13)            73.2154         estimate D2E/DX2                !
 ! D13   D(10,1,9,6)            72.759          estimate D2E/DX2                !
 ! D14   D(10,1,9,12)          -47.9415         estimate D2E/DX2                !
 ! D15   D(10,1,9,13)         -170.4919         estimate D2E/DX2                !
 ! D16   D(11,1,9,6)          -162.2434         estimate D2E/DX2                !
 ! D17   D(11,1,9,12)           77.0561         estimate D2E/DX2                !
 ! D18   D(11,1,9,13)          -45.4943         estimate D2E/DX2                !
 ! D19   D(2,1,11,17)          169.0538         estimate D2E/DX2                !
 ! D20   D(9,1,11,17)          -78.4466         estimate D2E/DX2                !
 ! D21   D(10,1,11,17)          47.8784         estimate D2E/DX2                !
 ! D22   D(1,2,3,6)            -18.2645         estimate D2E/DX2                !
 ! D23   D(1,2,3,7)           -134.1643         estimate D2E/DX2                !
 ! D24   D(1,2,3,8)            103.6141         estimate D2E/DX2                !
 ! D25   D(4,2,3,6)             97.8496         estimate D2E/DX2                !
 ! D26   D(4,2,3,7)            -18.0501         estimate D2E/DX2                !
 ! D27   D(4,2,3,8)           -140.2717         estimate D2E/DX2                !
 ! D28   D(5,2,3,6)           -140.7881         estimate D2E/DX2                !
 ! D29   D(5,2,3,7)            103.3122         estimate D2E/DX2                !
 ! D30   D(5,2,3,8)            -18.9095         estimate D2E/DX2                !
 ! D31   D(1,2,4,18)           -42.7154         estimate D2E/DX2                !
 ! D32   D(3,2,4,18)          -154.6403         estimate D2E/DX2                !
 ! D33   D(5,2,4,18)            79.9149         estimate D2E/DX2                !
 ! D34   D(2,3,6,9)             -8.8565         estimate D2E/DX2                !
 ! D35   D(7,3,6,9)            109.477          estimate D2E/DX2                !
 ! D36   D(8,3,6,9)           -132.3018         estimate D2E/DX2                !
 ! D37   D(2,3,8,20)           -90.3098         estimate D2E/DX2                !
 ! D38   D(2,3,8,24)            86.6613         estimate D2E/DX2                !
 ! D39   D(6,3,8,20)            29.9067         estimate D2E/DX2                !
 ! D40   D(6,3,8,24)          -153.1223         estimate D2E/DX2                !
 ! D41   D(7,3,8,20)           146.6901         estimate D2E/DX2                !
 ! D42   D(7,3,8,24)           -36.3388         estimate D2E/DX2                !
 ! D43   D(3,6,9,1)             32.8201         estimate D2E/DX2                !
 ! D44   D(3,6,9,12)           156.1059         estimate D2E/DX2                !
 ! D45   D(3,6,9,13)           -85.5917         estimate D2E/DX2                !
 ! D46   D(3,8,20,21)          178.6738         estimate D2E/DX2                !
 ! D47   D(3,8,20,25)           -1.4767         estimate D2E/DX2                !
 ! D48   D(24,8,20,21)           1.8417         estimate D2E/DX2                !
 ! D49   D(24,8,20,25)        -178.3088         estimate D2E/DX2                !
 ! D50   D(3,8,24,23)         -179.357          estimate D2E/DX2                !
 ! D51   D(3,8,24,29)           -0.1707         estimate D2E/DX2                !
 ! D52   D(20,8,24,23)          -2.3685         estimate D2E/DX2                !
 ! D53   D(20,8,24,29)         176.8179         estimate D2E/DX2                !
 ! D54   D(1,9,12,14)           60.5876         estimate D2E/DX2                !
 ! D55   D(1,9,12,15)          -59.7222         estimate D2E/DX2                !
 ! D56   D(1,9,12,16)          179.8003         estimate D2E/DX2                !
 ! D57   D(6,9,12,14)          -56.8671         estimate D2E/DX2                !
 ! D58   D(6,9,12,15)         -177.1768         estimate D2E/DX2                !
 ! D59   D(6,9,12,16)           62.3457         estimate D2E/DX2                !
 ! D60   D(13,9,12,14)        -175.3724         estimate D2E/DX2                !
 ! D61   D(13,9,12,15)          64.3178         estimate D2E/DX2                !
 ! D62   D(13,9,12,16)         -56.1597         estimate D2E/DX2                !
 ! D63   D(9,12,14,19)          72.6505         estimate D2E/DX2                !
 ! D64   D(15,12,14,19)       -165.43           estimate D2E/DX2                !
 ! D65   D(16,12,14,19)        -48.4445         estimate D2E/DX2                !
 ! D66   D(8,20,21,22)          -0.2609         estimate D2E/DX2                !
 ! D67   D(8,20,21,26)         179.7568         estimate D2E/DX2                !
 ! D68   D(25,20,21,22)        179.893          estimate D2E/DX2                !
 ! D69   D(25,20,21,26)         -0.0892         estimate D2E/DX2                !
 ! D70   D(20,21,22,23)         -0.6171         estimate D2E/DX2                !
 ! D71   D(20,21,22,28)        179.9422         estimate D2E/DX2                !
 ! D72   D(26,21,22,23)        179.3662         estimate D2E/DX2                !
 ! D73   D(26,21,22,28)         -0.0746         estimate D2E/DX2                !
 ! D74   D(21,22,23,24)         -0.0494         estimate D2E/DX2                !
 ! D75   D(21,22,23,27)       -179.2174         estimate D2E/DX2                !
 ! D76   D(28,22,23,24)        179.3778         estimate D2E/DX2                !
 ! D77   D(28,22,23,27)          0.2098         estimate D2E/DX2                !
 ! D78   D(22,23,24,8)           1.5059         estimate D2E/DX2                !
 ! D79   D(22,23,24,29)       -177.7176         estimate D2E/DX2                !
 ! D80   D(27,23,24,8)        -179.3213         estimate D2E/DX2                !
 ! D81   D(27,23,24,29)          1.4553         estimate D2E/DX2                !
 --------------------------------------------------------------------------------
 Trust Radius=3.00D-01 FncErr=1.00D-07 GrdErr=1.00D-06 EigMax=2.50D+02 EigMin=1.00D-04
 Number of steps in this run=    173 maximum allowed number of steps=    174.
 GradGradGradGradGradGradGradGradGradGradGradGradGradGradGradGradGradGrad

                          Input orientation:                          
 ---------------------------------------------------------------------
 Center     Atomic      Atomic             Coordinates (Angstroms)
 Number     Number       Type             X           Y           Z
 ---------------------------------------------------------------------
      1          6           0       -3.013055   -1.801562    0.789290
      2          6           0       -2.223799   -1.420661   -0.453884
      3          6           0       -1.827775    0.040972   -0.154172
      4          8           0       -3.089788   -1.502331   -1.598918
      5          1           0       -1.375823   -2.085173   -0.644544
      6          8           0       -2.708114    0.523734    0.897297
      7          1           0       -2.009968    0.673345   -1.031407
      8          7           0       -0.426633    0.180051    0.250615
      9          6           0       -3.723409   -0.485091    1.080897
     10          1           0       -2.321518   -2.082727    1.591972
     11          8           0       -3.897116   -2.884957    0.520828
     12          6           0       -4.316072   -0.390447    2.481723
     13          1           0       -4.528132   -0.305082    0.356089
     14          8           0       -3.297029   -0.509998    3.471776
     15          1           0       -5.052081   -1.182149    2.650044
     16          1           0       -4.807713    0.576893    2.629336
     17          1           0       -4.239227   -3.196573    1.379334
     18          1           0       -3.600573   -2.328572   -1.472379
     19          1           0       -2.804364    0.331690    3.437457
     20          6           0       -0.039388    0.109401    1.574678
     21          6           0        1.238180    0.209421    1.947469
     22          6           0        2.267961    0.395260    0.915036
     23          7           0        1.813886    0.437316   -0.369661
     24          6           0        0.508136    0.322550   -0.770138
     25          1           0       -0.814101   -0.029681    2.319828
     26          1           0        1.563053    0.160706    2.978035
     27          1           0        2.500852    0.551791   -1.098324
     28          8           0        3.451814    0.492772    1.212833
     29          8           0        0.229314    0.334786   -1.966056
 ---------------------------------------------------------------------
                    Distance matrix (angstroms):
                    1          2          3          4          5
     1  C    0.000000
     2  C    1.521017   0.000000
     3  C    2.385360   1.543708   0.000000
     4  O    2.408104   1.437953   2.462063   0.000000
     5  H    2.194730   1.094071   2.228277   2.046512   0.000000
     6  O    2.347692   2.416800   1.453837   3.237546   3.310388
     7  H    3.232072   2.182685   1.096646   2.494323   2.856786
     8  N    3.302505   2.507669   1.465057   3.652887   2.614099
     9  C    1.524052   2.340871   2.322836   2.935585   3.323939
    10  H    1.096164   2.152535   2.793367   3.332998   2.428240
    11  O    1.423861   2.427801   3.646761   2.656455   2.890443
    12  C    2.559967   3.749232   3.650437   4.403600   4.614185
    13  H    2.173149   2.685242   2.769846   2.706343   3.755934
    14  O    2.990737   4.170364   3.950921   5.171036   4.807941
    15  H    2.829082   4.206000   4.444750   4.691139   5.018429
    16  H    3.501945   4.491446   4.112805   5.015234   5.439003
    17  H    1.948770   3.252153   4.318384   3.614090   3.678365
    18  H    2.395425   1.938334   3.239633   0.979584   2.386223
    19  H    3.406920   4.307009   3.733369   5.367511   4.954259
    20  C    3.620955   3.350792   2.488359   4.687679   3.395167
    21  C    4.843391   4.517629   3.720934   5.851348   4.337823
    22  C    5.721099   5.034622   4.247796   6.215006   4.675682
    23  N    5.445650   4.445455   3.669498   5.414732   4.075875
    24  C    4.398006   3.256113   2.432114   4.118511   3.059772
    25  H    3.212088   3.408160   2.674547   4.764874   3.650764
    26  H    5.438921   5.349677   4.617658   6.735215   5.177262
    27  H    6.285263   5.160252   4.459750   5.977063   4.710426
    28  O    6.872983   6.217054   5.472375   7.394521   5.779423
    29  O    4.761184   3.374318   2.756966   3.811329   3.190464
                    6          7          8          9         10
     6  O    0.000000
     7  H    2.056621   0.000000
     8  N    2.396136   2.096156   0.000000
     9  C    1.443004   2.956296   3.464176   0.000000
    10  H    2.725007   3.817736   3.241912   2.186078   0.000000
    11  O    3.629688   4.316512   4.638054   2.470468   2.067228
    12  C    2.435501   4.334957   4.520071   1.523982   2.762917
    13  H    2.071789   3.037040   4.131437   1.097875   3.091371
    14  O    2.836083   4.830682   4.369350   2.428729   2.637946
    15  H    3.387675   5.123514   5.385872   2.171055   3.063744
    16  H    2.722334   4.608441   5.000966   2.168223   3.785613
    17  H    4.051833   5.075188   5.216461   2.776197   2.227886
    18  H    3.814118   3.425782   4.397248   3.151623   3.329664
    19  H    2.549227   4.551763   3.979015   2.658035   3.077070
    20  C    2.784352   3.315554   1.381337   3.764207   3.164466
    21  C    4.095716   4.431636   2.377347   5.084355   4.248738
    22  C    4.977764   4.708147   2.783632   6.057974   5.259466
    23  N    4.696928   3.887863   2.338986   5.797982   5.224958
    24  C    3.628371   2.555810   1.391415   4.688773   4.401348
    25  H    2.432518   3.626998   2.115599   3.194749   2.648977
    26  H    4.764885   5.394896   3.376099   5.653572   4.695110
    27  H    5.578227   4.512954   3.244688   6.675744   6.118303
    28  O    6.168082   5.907646   4.008243   7.242752   6.333112
    29  O    4.106455   2.450015   2.316860   5.057681   5.001067
                   11         12         13         14         15
    11  O    0.000000
    12  C    3.200503   0.000000
    13  H    2.661030   2.137891   0.000000
    14  O    3.835183   1.425814   3.356354   0.000000
    15  H    2.960922   1.093999   2.511175   2.051156   0.000000
    16  H    4.154444   1.095102   2.454323   2.042842   1.776056
    17  H    0.975283   3.015877   3.080782   3.533233   2.516613
    18  H    2.090544   4.461299   2.880655   5.276743   4.518355
    19  H    4.477461   1.928774   3.587713   0.975877   2.822049
    20  C    4.995884   4.400296   4.669645   3.820323   5.286929
    21  C    6.162934   5.612040   6.003962   4.838306   6.480546
    22  C    6.994527   6.813320   6.854909   6.190761   7.686449
    23  N    6.666784   6.811165   6.426434   6.463396   7.673512
    24  C    5.600084   5.861395   5.198683   5.759014   6.699088
    25  H    4.570994   3.524225   4.210243   2.778960   4.404282
    26  H    6.717692   5.925724   6.647864   4.930925   6.758021
    27  H    7.440893   7.757255   7.228843   7.458461   8.608346
    28  O    8.117555   7.920241   8.065366   7.187159   8.785623
    29  O    5.794718   6.400722   5.332455   6.535960   7.176532
                   16         17         18         19         20
    16  H    0.000000
    17  H    4.015561   0.000000
    18  H    5.169428   3.048536   0.000000
    19  H    2.174073   4.329358   5.640694   0.000000
    20  C    4.905893   5.348483   5.283020   3.341325   0.000000
    21  C    6.095310   6.474995   6.445952   4.310125   1.334600
    22  C    7.282649   7.447169   6.896281   5.665256   2.416754
    23  N    7.270422   7.273534   6.179197   5.986112   2.706031
    24  C    6.315011   6.288236   4.939947   5.355053   2.417307
    25  H    4.051255   4.758700   5.237380   2.311024   1.083870
    26  H    6.393862   6.891561   7.257115   4.394842   2.130695
    27  H    8.204341   8.100475   6.757499   6.983342   3.713955
    28  O    8.380534   8.531770   8.056457   6.641887   3.530778
    29  O    6.822601   6.605300   4.690972   6.196867   3.558061
                   21         22         23         24         25
    21  C    0.000000
    22  C    1.470000   0.000000
    23  N    2.398429   1.363231   0.000000
    24  C    2.816229   2.437638   1.370597   0.000000
    25  H    2.099448   3.413667   3.789162   3.379388   0.000000
    26  H    1.081657   2.192687   3.368456   3.897158   2.473933
    27  H    3.314877   2.032820   1.007957   2.032530   4.796956
    28  O    2.349500   1.224623   2.278195   3.553363   4.438066
    29  O    4.043415   3.529933   2.251635   1.228052   4.426099
                   26         27         28         29
    26  H    0.000000
    27  H    4.201085   0.000000
    28  O    2.606458   2.499851   0.000000
    29  O    5.123788   2.441299   4.529327   0.000000
 Stoichiometry    C9H12N2O6
 Framework group  C1[X(C9H12N2O6)]
 Deg. of freedom    81
 Full point group                 C1      NOp   1
 Largest Abelian subgroup         C1      NOp   1
 Largest concise Abelian subgroup C1      NOp   1
                         Standard orientation:                         
 ---------------------------------------------------------------------
 Center     Atomic      Atomic             Coordinates (Angstroms)
 Number     Number       Type             X           Y           Z
 ---------------------------------------------------------------------
      1          6           0       -2.101143   -0.233819    0.816976
      2          6           0       -1.082301   -1.311484    0.479201
      3          6           0       -0.335279   -0.690166   -0.720365
      4          8           0       -1.780150   -2.508901    0.095913
      5          1           0       -0.437032   -1.572142    1.323402
      6          8           0       -1.174028    0.370988   -1.253368
      7          1           0       -0.217569   -1.429857   -1.521385
      8          7           0        0.983814   -0.164456   -0.359788
      9          6           0       -2.446070    0.269180   -0.579718
     10          1           0       -1.626357    0.542293    1.428370
     11          8           0       -3.210522   -0.782580    1.520907
     12          6           0       -3.165240    1.612626   -0.601393
     13          1           0       -3.066954   -0.459932   -1.116585
     14          8           0       -2.358024    2.628641   -0.010579
     15          1           0       -4.108854    1.560811   -0.050264
     16          1           0       -3.381190    1.919379   -1.630235
     17          1           0       -3.734689   -0.033552    1.860586
     18          1           0       -2.513779   -2.592170    0.739683
     19          1           0       -1.649281    2.803767   -0.658152
     20          6           0        1.160392    1.141551    0.054046
     21          6           0        2.355165    1.619013    0.408596
     22          6           0        3.520796    0.724530    0.362730
     23          7           0        3.267532   -0.553793   -0.037452
     24          6           0        2.045421   -1.063357   -0.391465
     25          1           0        0.287779    1.783827    0.082354
     26          1           0        2.516678    2.638523    0.731852
     27          1           0        4.047652   -1.191421   -0.066120
     28          8           0        4.635468    1.121455    0.678416
     29          8           0        1.938972   -2.248382   -0.695599
 ---------------------------------------------------------------------
 Rotational constants (GHZ):           0.8184231           0.3068563           0.2509033
 Standard basis: Aug-CC-pVDZ (5D, 7F)
 There are   533 symmetry adapted cartesian basis functions of A   symmetry.
 There are   499 symmetry adapted basis functions of A   symmetry.
   499 basis functions,   863 primitive gaussians,   533 cartesian basis functions
    64 alpha electrons       64 beta electrons
       nuclear repulsion energy      1314.0953225164 Hartrees.
 NAtoms=   29 NActive=   29 NUniq=   29 SFac= 1.00D+00 NAtFMM=   60 NAOKFM=F Big=F
 Integral buffers will be    131072 words long.
 Raffenetti 2 integral format.
 Two-electron integral symmetry is turned on.
 Nuclear repulsion after empirical dispersion term =     1314.0751406794 Hartrees.
 One-electron integrals computed using PRISM.
 NBasis=   499 RedAO= T EigKep=  3.11D-06  NBF=   499
 NBsUse=   499 1.00D-06 EigRej= -1.00D+00 NBFU=   499
 ExpMin= 2.97D-02 ExpMax= 1.17D+04 ExpMxC= 4.01D+02 IAcc=3 IRadAn=         5 AccDes= 0.00D+00
 Harris functional with IExCor= 1009 and IRadAn=       5 diagonalized for initial guess.
 HarFok:  IExCor= 1009 AccDes= 0.00D+00 IRadAn=         5 IDoV= 1 UseB2=F ITyADJ=14
 ICtDFT=  3500011 ScaDFX=  1.000000  1.000000  1.000000  1.000000
 FoFCou: FMM=F IPFlag=           0 FMFlag=      100000 FMFlg1=           0
         NFxFlg=           0 DoJE=T BraDBF=F KetDBF=T FulRan=T
         wScrn=  0.000000 ICntrl=       500 IOpCl=  0 I1Cent=   200000004 NGrid=           0
         NMat0=    1 NMatS0=      1 NMatT0=    0 NMatD0=    1 NMtDS0=    0 NMtDT0=    0
 Petite list used in FoFCou.
 Requested convergence on RMS density matrix=1.00D-08 within 128 cycles.
 Requested convergence on MAX density matrix=1.00D-06.
 Requested convergence on             energy=1.00D-06.
 No special actions if energy rises.
 SCF Done:  E(RPBE1PBE) =  -910.202428305     A.U. after   14 cycles
            NFock= 14  Conv=0.43D-08     -V/T= 2.0056

 **********************************************************************

            Population analysis using the SCF Density.

 **********************************************************************

 Orbital symmetries:
       Occupied  (A) (A) (A) (A) (A) (A) (A) (A) (A) (A) (A) (A)
                 (A) (A) (A) (A) (A) (A) (A) (A) (A) (A) (A) (A)
                 (A) (A) (A) (A) (A) (A) (A) (A) (A) (A) (A) (A)
                 (A) (A) (A) (A) (A) (A) (A) (A) (A) (A) (A) (A)
                 (A) (A) (A) (A) (A) (A) (A) (A) (A) (A) (A) (A)
                 (A) (A) (A) (A)
       Virtual   (A) (A) (A) (A) (A) (A) (A) (A) (A) (A) (A) (A)
                 (A) (A) (A) (A) (A) (A) (A) (A) (A) (A) (A) (A)
                 (A) (A) (A) (A) (A) (A) (A) (A) (A) (A) (A) (A)
                 (A) (A) (A) (A) (A) (A) (A) (A) (A) (A) (A) (A)
                 (A) (A) (A) (A) (A) (A) (A) (A) (A) (A) (A) (A)
                 (A) (A) (A) (A) (A) (A) (A) (A) (A) (A) (A) (A)
                 (A) (A) (A) (A) (A) (A) (A) (A) (A) (A) (A) (A)
                 (A) (A) (A) (A) (A) (A) (A) (A) (A) (A) (A) (A)
                 (A) (A) (A) (A) (A) (A) (A) (A) (A) (A) (A) (A)
                 (A) (A) (A) (A) (A) (A) (A) (A) (A) (A) (A) (A)
                 (A) (A) (A) (A) (A) (A) (A) (A) (A) (A) (A) (A)
                 (A) (A) (A) (A) (A) (A) (A) (A) (A) (A) (A) (A)
                 (A) (A) (A) (A) (A) (A) (A) (A) (A) (A) (A) (A)
                 (A) (A) (A) (A) (A) (A) (A) (A) (A) (A) (A) (A)
                 (A) (A) (A) (A) (A) (A) (A) (A) (A) (A) (A) (A)
                 (A) (A) (A) (A) (A) (A) (A) (A) (A) (A) (A) (A)
                 (A) (A) (A) (A) (A) (A) (A) (A) (A) (A) (A) (A)
                 (A) (A) (A) (A) (A) (A) (A) (A) (A) (A) (A) (A)
                 (A) (A) (A) (A) (A) (A) (A) (A) (A) (A) (A) (A)
                 (A) (A) (A) (A) (A) (A) (A) (A) (A) (A) (A) (A)
                 (A) (A) (A) (A) (A) (A) (A) (A) (A) (A) (A) (A)
                 (A) (A) (A) (A) (A) (A) (A) (A) (A) (A) (A) (A)
                 (A) (A) (A) (A) (A) (A) (A) (A) (A) (A) (A) (A)
                 (A) (A) (A) (A) (A) (A) (A) (A) (A) (A) (A) (A)
                 (A) (A) (A) (A) (A) (A) (A) (A) (A) (A) (A) (A)
                 (A) (A) (A) (A) (A) (A) (A) (A) (A) (A) (A) (A)
                 (A) (A) (A) (A) (A) (A) (A) (A) (A) (A) (A) (A)
                 (A) (A) (A) (A) (A) (A) (A) (A) (A) (A) (A) (A)
                 (A) (A) (A) (A) (A) (A) (A) (A) (A) (A) (A) (A)
                 (A) (A) (A) (A) (A) (A) (A) (A) (A) (A) (A) (A)
                 (A) (A) (A) (A) (A) (A) (A) (A) (A) (A) (A) (A)
                 (A) (A) (A) (A) (A) (A) (A) (A) (A) (A) (A) (A)
                 (A) (A) (A) (A) (A) (A) (A) (A) (A) (A) (A) (A)
                 (A) (A) (A) (A) (A) (A) (A) (A) (A) (A) (A) (A)
                 (A) (A) (A) (A) (A) (A) (A) (A) (A) (A) (A) (A)
                 (A) (A) (A) (A) (A) (A) (A) (A) (A) (A) (A) (A)
                 (A) (A) (A)
 The electronic state is 1-A.
 Alpha  occ. eigenvalues --  -19.27538 -19.27235 -19.25509 -19.24265 -19.21651
 Alpha  occ. eigenvalues --  -19.20270 -14.48700 -14.46496 -10.39688 -10.35736
 Alpha  occ. eigenvalues --  -10.35469 -10.31636 -10.31566 -10.31353 -10.31117
 Alpha  occ. eigenvalues --  -10.30894 -10.25674  -1.13207  -1.11745  -1.09737
 Alpha  occ. eigenvalues --   -1.08176  -1.07944  -1.06163  -1.02291  -0.98014
 Alpha  occ. eigenvalues --   -0.84595  -0.82936  -0.80368  -0.73730  -0.72455
 Alpha  occ. eigenvalues --   -0.68836  -0.65000  -0.64599  -0.60988  -0.59483
 Alpha  occ. eigenvalues --   -0.58691  -0.56391  -0.54964  -0.53620  -0.52177
 Alpha  occ. eigenvalues --   -0.51468  -0.51367  -0.49297  -0.48139  -0.47452
 Alpha  occ. eigenvalues --   -0.46802  -0.45379  -0.44798  -0.43664  -0.43265
 Alpha  occ. eigenvalues --   -0.42613  -0.41612  -0.40647  -0.39072  -0.38322
 Alpha  occ. eigenvalues --   -0.35641  -0.34731  -0.32299  -0.31748  -0.31382
 Alpha  occ. eigenvalues --   -0.31022  -0.30393  -0.28285  -0.26738
 Alpha virt. eigenvalues --   -0.04696  -0.02504  -0.01358  -0.00593  -0.00262
 Alpha virt. eigenvalues --    0.00481   0.01524   0.02151   0.02386   0.02726
 Alpha virt. eigenvalues --    0.03739   0.03864   0.04623   0.05258   0.05637
 Alpha virt. eigenvalues --    0.05705   0.06381   0.06802   0.07717   0.07983
 Alpha virt. eigenvalues --    0.08286   0.08385   0.08797   0.09073   0.09236
 Alpha virt. eigenvalues --    0.09919   0.10228   0.10349   0.10688   0.10759
 Alpha virt. eigenvalues --    0.11096   0.11365   0.11723   0.11991   0.12368
 Alpha virt. eigenvalues --    0.12747   0.12891   0.13224   0.13476   0.13850
 Alpha virt. eigenvalues --    0.14379   0.14561   0.15189   0.15397   0.15927
 Alpha virt. eigenvalues --    0.16140   0.16317   0.16955   0.17425   0.17540
 Alpha virt. eigenvalues --    0.17884   0.18443   0.18757   0.19619   0.20093
 Alpha virt. eigenvalues --    0.20201   0.20684   0.21227   0.21434   0.21653
 Alpha virt. eigenvalues --    0.22180   0.22220   0.22647   0.22932   0.23156
 Alpha virt. eigenvalues --    0.23866   0.24104   0.24255   0.24737   0.24822
 Alpha virt. eigenvalues --    0.25265   0.25870   0.26184   0.26412   0.26642
 Alpha virt. eigenvalues --    0.27289   0.27488   0.27858   0.27915   0.28416
 Alpha virt. eigenvalues --    0.28695   0.29053   0.29483   0.29778   0.30370
 Alpha virt. eigenvalues --    0.30649   0.30944   0.31168   0.31479   0.32099
 Alpha virt. eigenvalues --    0.32335   0.32705   0.33053   0.33616   0.34071
 Alpha virt. eigenvalues --    0.34396   0.34945   0.35105   0.35535   0.35982
 Alpha virt. eigenvalues --    0.36641   0.36669   0.37132   0.37672   0.38300
 Alpha virt. eigenvalues --    0.38495   0.38910   0.39591   0.39985   0.40573
 Alpha virt. eigenvalues --    0.40762   0.41358   0.41747   0.42280   0.42954
 Alpha virt. eigenvalues --    0.43776   0.44273   0.44648   0.45331   0.45810
 Alpha virt. eigenvalues --    0.46461   0.46651   0.46883   0.47739   0.48183
 Alpha virt. eigenvalues --    0.48592   0.49207   0.49569   0.49963   0.50686
 Alpha virt. eigenvalues --    0.51566   0.51889   0.52441   0.53133   0.53509
 Alpha virt. eigenvalues --    0.54105   0.54312   0.55093   0.55737   0.56011
 Alpha virt. eigenvalues --    0.56448   0.57005   0.57187   0.57514   0.58077
 Alpha virt. eigenvalues --    0.59252   0.59573   0.59875   0.60618   0.61739
 Alpha virt. eigenvalues --    0.61961   0.62712   0.62926   0.63695   0.64140
 Alpha virt. eigenvalues --    0.64228   0.64845   0.65720   0.66301   0.66420
 Alpha virt. eigenvalues --    0.66839   0.67597   0.67781   0.68310   0.68709
 Alpha virt. eigenvalues --    0.69315   0.69975   0.70256   0.70620   0.71241
 Alpha virt. eigenvalues --    0.72078   0.72346   0.72608   0.74129   0.74740
 Alpha virt. eigenvalues --    0.74809   0.75262   0.75397   0.76028   0.77277
 Alpha virt. eigenvalues --    0.77800   0.78654   0.78904   0.79459   0.80170
 Alpha virt. eigenvalues --    0.80436   0.81413   0.82093   0.82241   0.82788
 Alpha virt. eigenvalues --    0.83622   0.84251   0.84874   0.86103   0.86383
 Alpha virt. eigenvalues --    0.86599   0.87516   0.88620   0.89300   0.89752
 Alpha virt. eigenvalues --    0.90324   0.91038   0.92886   0.93403   0.94363
 Alpha virt. eigenvalues --    0.95243   0.95661   0.95869   0.97295   0.98955
 Alpha virt. eigenvalues --    0.99810   1.00951   1.02066   1.02522   1.03030
 Alpha virt. eigenvalues --    1.03404   1.04325   1.05435   1.06045   1.06445
 Alpha virt. eigenvalues --    1.07806   1.08370   1.09387   1.10265   1.10614
 Alpha virt. eigenvalues --    1.12079   1.12804   1.13441   1.14636   1.14857
 Alpha virt. eigenvalues --    1.16716   1.17978   1.19094   1.19341   1.19965
 Alpha virt. eigenvalues --    1.20810   1.21291   1.22297   1.23152   1.23977
 Alpha virt. eigenvalues --    1.24855   1.25332   1.25786   1.26869   1.28020
 Alpha virt. eigenvalues --    1.29548   1.31171   1.31657   1.32465   1.33484
 Alpha virt. eigenvalues --    1.35089   1.36003   1.36913   1.38098   1.39098
 Alpha virt. eigenvalues --    1.39770   1.41212   1.42534   1.43457   1.43773
 Alpha virt. eigenvalues --    1.44423   1.46399   1.47544   1.48240   1.48902
 Alpha virt. eigenvalues --    1.49824   1.50652   1.51589   1.52755   1.53149
 Alpha virt. eigenvalues --    1.53791   1.54466   1.55283   1.56303   1.56308
 Alpha virt. eigenvalues --    1.57237   1.58155   1.59055   1.59975   1.60756
 Alpha virt. eigenvalues --    1.61435   1.63715   1.64765   1.65897   1.66965
 Alpha virt. eigenvalues --    1.67984   1.69109   1.69793   1.70511   1.71387
 Alpha virt. eigenvalues --    1.73323   1.74166   1.74482   1.74957   1.75227
 Alpha virt. eigenvalues --    1.77028   1.77808   1.79006   1.79455   1.80493
 Alpha virt. eigenvalues --    1.82044   1.82945   1.84610   1.84830   1.85309
 Alpha virt. eigenvalues --    1.85744   1.86236   1.87190   1.89285   1.89692
 Alpha virt. eigenvalues --    1.90314   1.92871   1.93151   1.93891   1.95068
 Alpha virt. eigenvalues --    1.95812   1.96894   1.98407   1.99400   2.00582
 Alpha virt. eigenvalues --    2.01423   2.02625   2.04035   2.05713   2.06149
 Alpha virt. eigenvalues --    2.07106   2.08556   2.08856   2.10012   2.11065
 Alpha virt. eigenvalues --    2.11980   2.12994   2.14356   2.14654   2.14920
 Alpha virt. eigenvalues --    2.17458   2.19903   2.20586   2.20777   2.21857
 Alpha virt. eigenvalues --    2.22149   2.23112   2.24405   2.25537   2.27206
 Alpha virt. eigenvalues --    2.28017   2.29818   2.30626   2.31967   2.33165
 Alpha virt. eigenvalues --    2.34232   2.38331   2.38533   2.39012   2.41810
 Alpha virt. eigenvalues --    2.42625   2.44041   2.45340   2.47505   2.48243
 Alpha virt. eigenvalues --    2.48459   2.49904   2.52030   2.53254   2.53572
 Alpha virt. eigenvalues --    2.54665   2.57635   2.59276   2.60397   2.61729
 Alpha virt. eigenvalues --    2.62609   2.64217   2.65012   2.66255   2.67686
 Alpha virt. eigenvalues --    2.71335   2.72366   2.74141   2.76179   2.77428
 Alpha virt. eigenvalues --    2.79408   2.80026   2.82974   2.84252   2.86206
 Alpha virt. eigenvalues --    2.88992   2.89495   2.94318   2.97609   3.00358
 Alpha virt. eigenvalues --    3.00995   3.09969   3.11700   3.15934   3.19139
 Alpha virt. eigenvalues --    3.25016   3.29232   3.31722   3.36241   3.39159
 Alpha virt. eigenvalues --    3.39820   3.40863   3.42825   3.43345   3.44337
 Alpha virt. eigenvalues --    3.45711   3.46494   3.47246   3.48945   3.50452
 Alpha virt. eigenvalues --    3.50681   3.51904   3.53288   3.55702   3.56530
 Alpha virt. eigenvalues --    3.57984   3.60025   3.62202   3.63873   3.64914
 Alpha virt. eigenvalues --    3.65725   3.67981   3.73056   3.73453   3.74453
 Alpha virt. eigenvalues --    3.77384   3.82934   3.85709   3.87292   3.97545
 Alpha virt. eigenvalues --    4.00864   4.03519   4.06084   4.21598   4.67187
          Condensed to atoms (all electrons):
               1          2          3          4          5          6
     1  C   10.432247  -3.297518   0.830413   0.295665   0.675959   0.018709
     2  C   -3.297518  11.208757  -3.187896  -0.703566  -1.423367  -0.013510
     3  C    0.830413  -3.187896  12.599050   0.250914   0.381609  -0.171877
     4  O    0.295665  -0.703566   0.250914   8.715569  -0.014994   0.019967
     5  H    0.675959  -1.423367   0.381609  -0.014994   2.242163   0.028501
     6  O    0.018709  -0.013510  -0.171877   0.019967   0.028501   9.376340
     7  H    0.195071   0.231799  -0.828035  -0.048772   0.064535  -0.248007
     8  N   -0.016395   0.671763  -0.968637   0.004592  -0.247821  -0.111601
     9  C   -2.814929   0.870979  -2.189128  -0.067754  -0.030441   0.094857
    10  H   -0.975711   0.285664  -0.363336  -0.025352  -0.126601   0.025648
    11  O   -0.637741   0.220584   0.035473  -0.024842  -0.015802  -0.005704
    12  C    0.174483  -0.403600   0.245982   0.029558   0.027174  -0.093072
    13  H    0.402866  -0.070096   0.205876  -0.022126  -0.000904  -0.093427
    14  O   -0.002038  -0.010467  -0.019642   0.000317  -0.000835  -0.041309
    15  H   -0.095365   0.142811  -0.005187  -0.002085   0.004880   0.102877
    16  H    0.034329  -0.063739  -0.007889   0.001181  -0.000249  -0.076593
    17  H    0.234564  -0.066159   0.020329   0.006865   0.008442  -0.005590
    18  H   -0.217709   0.164540  -0.046419   0.280219  -0.041002   0.000070
    19  H    0.053017  -0.003633   0.013796  -0.000295   0.002161   0.048390
    20  C   -0.146680   0.561209  -2.040651  -0.020645  -0.036868   0.263598
    21  C   -0.026403  -0.040885   0.287903   0.008311   0.009128  -0.015450
    22  C    0.034035   0.015503  -0.279926  -0.000733   0.001052   0.008958
    23  N   -0.025963   0.096059  -0.158084  -0.000994  -0.011396  -0.000640
    24  C    0.165721  -0.334069   0.335546   0.017230   0.014299  -0.119953
    25  H   -0.077818   0.003321  -0.105104   0.000354  -0.017316  -0.160935
    26  H    0.008829  -0.007280   0.020737   0.000227  -0.000719  -0.000194
    27  H    0.005356  -0.011959  -0.002182   0.000379  -0.000402   0.000404
    28  O   -0.000383   0.001385   0.002938  -0.000028   0.000576   0.000308
    29  O   -0.008091  -0.017922   0.152697  -0.000468   0.008591   0.005874
               7          8          9         10         11         12
     1  C    0.195071  -0.016395  -2.814929  -0.975711  -0.637741   0.174483
     2  C    0.231799   0.671763   0.870979   0.285664   0.220584  -0.403600
     3  C   -0.828035  -0.968637  -2.189128  -0.363336   0.035473   0.245982
     4  O   -0.048772   0.004592  -0.067754  -0.025352  -0.024842   0.029558
     5  H    0.064535  -0.247821  -0.030441  -0.126601  -0.015802   0.027174
     6  O   -0.248007  -0.111601   0.094857   0.025648  -0.005704  -0.093072
     7  H    2.033982  -0.054607   0.041009  -0.017215  -0.007193  -0.008348
     8  N   -0.054607   8.296631  -0.021576   0.003442  -0.006176   0.039586
     9  C    0.041009  -0.021576  10.292847   0.453393   0.341673  -0.420717
    10  H   -0.017215   0.003442   0.453393   2.302765  -0.117148  -0.095277
    11  O   -0.007193  -0.006176   0.341673  -0.117148   8.584889  -0.017195
    12  C   -0.008348   0.039586  -0.420717  -0.095277  -0.017195   5.115136
    13  H   -0.003647  -0.002557  -1.268748   0.129306  -0.047248  -0.032738
    14  O    0.001039   0.024594  -0.052161   0.011745   0.002097   0.198772
    15  H   -0.003560   0.000888  -0.091645  -0.023055   0.012999  -0.041258
    16  H    0.001508  -0.004057   0.305910   0.014916  -0.004278   0.061710
    17  H    0.002730   0.001189  -0.166251  -0.108707   0.306574   0.019558
    18  H   -0.009604   0.002647   0.057905   0.020216   0.051372  -0.012714
    19  H   -0.000648  -0.001918  -0.123112   0.004797  -0.002333   0.002149
    20  C    0.037507   0.058786   0.388507   0.150941  -0.015332  -0.104940
    21  C   -0.011404  -0.272201   0.000363  -0.031964   0.003315   0.001415
    22  C    0.007080  -0.135286  -0.009254   0.015680  -0.000773  -0.006971
    23  N   -0.007858   0.039236   0.005773  -0.002484   0.000835  -0.000068
    24  C    0.090554  -0.284974  -0.252244  -0.022749  -0.005948   0.009916
    25  H    0.024276   0.076202  -0.014804  -0.064727   0.004116   0.038145
    26  H   -0.001584   0.027459  -0.011866   0.003232   0.000027  -0.000508
    27  H    0.001956   0.076898  -0.002266   0.000415  -0.000102  -0.000037
    28  O   -0.000096  -0.006975   0.000794  -0.000423  -0.000001   0.000036
    29  O    0.023208  -0.161577   0.022052  -0.001089   0.000448   0.000821
              13         14         15         16         17         18
     1  C    0.402866  -0.002038  -0.095365   0.034329   0.234564  -0.217709
     2  C   -0.070096  -0.010467   0.142811  -0.063739  -0.066159   0.164540
     3  C    0.205876  -0.019642  -0.005187  -0.007889   0.020329  -0.046419
     4  O   -0.022126   0.000317  -0.002085   0.001181   0.006865   0.280219
     5  H   -0.000904  -0.000835   0.004880  -0.000249   0.008442  -0.041002
     6  O   -0.093427  -0.041309   0.102877  -0.076593  -0.005590   0.000070
     7  H   -0.003647   0.001039  -0.003560   0.001508   0.002730  -0.009604
     8  N   -0.002557   0.024594   0.000888  -0.004057   0.001189   0.002647
     9  C   -1.268748  -0.052161  -0.091645   0.305910  -0.166251   0.057905
    10  H    0.129306   0.011745  -0.023055   0.014916  -0.108707   0.020216
    11  O   -0.047248   0.002097   0.012999  -0.004278   0.306574   0.051372
    12  C   -0.032738   0.198772  -0.041258   0.061710   0.019558  -0.012714
    13  H    2.476973   0.028637  -0.076366  -0.053352  -0.002365   0.006806
    14  O    0.028637   8.337455  -0.160494  -0.046641   0.002967  -0.000421
    15  H   -0.076366  -0.160494   1.913047  -0.363444  -0.002517   0.000992
    16  H   -0.053352  -0.046641  -0.363444   1.498153   0.001401  -0.001512
    17  H   -0.002365   0.002967  -0.002517   0.001401   0.609680  -0.008571
    18  H    0.006806  -0.000421   0.000992  -0.001512  -0.008571   0.549896
    19  H    0.012411   0.268865   0.040790  -0.061026   0.000169  -0.000179
    20  C   -0.006784  -0.001854   0.000487   0.004886  -0.006231   0.004323
    21  C   -0.006251  -0.003645   0.000022   0.003068   0.000500   0.000483
    22  C    0.001430   0.002383  -0.000592   0.000020   0.000101  -0.000291
    23  N   -0.000183   0.000107   0.000093  -0.000151  -0.000079   0.000776
    24  C    0.004640   0.005913  -0.000831   0.001077   0.002905  -0.004921
    25  H   -0.017042   0.004760   0.001234   0.006807   0.002033   0.002408
    26  H    0.000260   0.001862  -0.000154  -0.000104  -0.000001  -0.000064
    27  H    0.000015   0.000110  -0.000027   0.000012   0.000047  -0.000071
    28  O    0.000022  -0.000007   0.000011  -0.000006  -0.000003  -0.000012
    29  O   -0.000028   0.000002   0.000061   0.000064  -0.000052   0.000642
              19         20         21         22         23         24
     1  C    0.053017  -0.146680  -0.026403   0.034035  -0.025963   0.165721
     2  C   -0.003633   0.561209  -0.040885   0.015503   0.096059  -0.334069
     3  C    0.013796  -2.040651   0.287903  -0.279926  -0.158084   0.335546
     4  O   -0.000295  -0.020645   0.008311  -0.000733  -0.000994   0.017230
     5  H    0.002161  -0.036868   0.009128   0.001052  -0.011396   0.014299
     6  O    0.048390   0.263598  -0.015450   0.008958  -0.000640  -0.119953
     7  H   -0.000648   0.037507  -0.011404   0.007080  -0.007858   0.090554
     8  N   -0.001918   0.058786  -0.272201  -0.135286   0.039236  -0.284974
     9  C   -0.123112   0.388507   0.000363  -0.009254   0.005773  -0.252244
    10  H    0.004797   0.150941  -0.031964   0.015680  -0.002484  -0.022749
    11  O   -0.002333  -0.015332   0.003315  -0.000773   0.000835  -0.005948
    12  C    0.002149  -0.104940   0.001415  -0.006971  -0.000068   0.009916
    13  H    0.012411  -0.006784  -0.006251   0.001430  -0.000183   0.004640
    14  O    0.268865  -0.001854  -0.003645   0.002383   0.000107   0.005913
    15  H    0.040790   0.000487   0.000022  -0.000592   0.000093  -0.000831
    16  H   -0.061026   0.004886   0.003068   0.000020  -0.000151   0.001077
    17  H    0.000169  -0.006231   0.000500   0.000101  -0.000079   0.002905
    18  H   -0.000179   0.004323   0.000483  -0.000291   0.000776  -0.004921
    19  H    0.532482   0.014960   0.001870   0.002128  -0.000629  -0.000212
    20  C    0.014960   9.958818  -2.286333   0.227911   0.138946  -1.237211
    21  C    0.001870  -2.286333   9.487983  -1.788871   0.001091   0.454269
    22  C    0.002128   0.227911  -1.788871   7.847318   0.149350  -0.358744
    23  N   -0.000629   0.138946   0.001091   0.149350   7.066897  -0.164355
    24  C   -0.000212  -1.237211   0.454269  -0.358744  -0.164355   6.978372
    25  H   -0.028757  -1.091924  -0.066522  -0.263802   0.031735   0.045888
    26  H    0.000417   0.521732  -0.881097   0.232899  -0.062396  -0.026037
    27  H    0.000023  -0.030749   0.023923  -0.160104   0.411281  -0.277258
    28  O   -0.000122   0.103810  -0.140875   0.153831  -0.114370   0.033647
    29  O    0.000040  -0.065102   0.026813  -0.024291  -0.260722   0.313865
              25         26         27         28         29
     1  C   -0.077818   0.008829   0.005356  -0.000383  -0.008091
     2  C    0.003321  -0.007280  -0.011959   0.001385  -0.017922
     3  C   -0.105104   0.020737  -0.002182   0.002938   0.152697
     4  O    0.000354   0.000227   0.000379  -0.000028  -0.000468
     5  H   -0.017316  -0.000719  -0.000402   0.000576   0.008591
     6  O   -0.160935  -0.000194   0.000404   0.000308   0.005874
     7  H    0.024276  -0.001584   0.001956  -0.000096   0.023208
     8  N    0.076202   0.027459   0.076898  -0.006975  -0.161577
     9  C   -0.014804  -0.011866  -0.002266   0.000794   0.022052
    10  H   -0.064727   0.003232   0.000415  -0.000423  -0.001089
    11  O    0.004116   0.000027  -0.000102  -0.000001   0.000448
    12  C    0.038145  -0.000508  -0.000037   0.000036   0.000821
    13  H   -0.017042   0.000260   0.000015   0.000022  -0.000028
    14  O    0.004760   0.001862   0.000110  -0.000007   0.000002
    15  H    0.001234  -0.000154  -0.000027   0.000011   0.000061
    16  H    0.006807  -0.000104   0.000012  -0.000006   0.000064
    17  H    0.002033  -0.000001   0.000047  -0.000003  -0.000052
    18  H    0.002408  -0.000064  -0.000071  -0.000012   0.000642
    19  H   -0.028757   0.000417   0.000023  -0.000122   0.000040
    20  C   -1.091924   0.521732  -0.030749   0.103810  -0.065102
    21  C   -0.066522  -0.881097   0.023923  -0.140875   0.026813
    22  C   -0.263802   0.232899  -0.160104   0.153831  -0.024291
    23  N    0.031735  -0.062396   0.411281  -0.114370  -0.260722
    24  C    0.045888  -0.026037  -0.277258   0.033647   0.313865
    25  H    3.696371  -0.257239  -0.001501   0.006719  -0.000093
    26  H   -0.257239   2.054064   0.010747  -0.023284   0.000908
    27  H   -0.001501   0.010747   1.123003  -0.051932  -0.002807
    28  O    0.006719  -0.023284  -0.051932   8.700079  -0.001400
    29  O   -0.000093   0.000908  -0.002807  -0.001400   8.615100
 Mulliken charges:
               1
     1  C    0.781477
     2  C    1.181293
     3  C    0.990730
     4  O   -0.698696
     5  H   -0.500354
     6  O   -0.836639
     7  H   -0.505678
     8  N   -0.027553
     9  C    0.660835
    10  H   -0.446321
    11  O   -0.656585
    12  C    1.273004
    13  H   -0.565382
    14  O   -0.552112
    15  H   -0.354612
    16  H   -0.252001
    17  H    0.146472
    18  H    0.200195
    19  H    0.224399
    20  C    0.654884
    21  C    1.261446
    22  C    0.329958
    23  N   -0.131807
    24  C    0.615667
    25  H   -0.776787
    26  H   -0.610875
    27  H   -0.113173
    28  O   -0.664239
    29  O   -0.627546
 Sum of Mulliken charges =  -0.00000
 Mulliken charges with hydrogens summed into heavy atoms:
               1
     1  C    0.335156
     2  C    0.680940
     3  C    0.485052
     4  O   -0.498501
     6  O   -0.836639
     8  N   -0.027553
     9  C    0.095453
    11  O   -0.510113
    12  C    0.666391
    14  O   -0.327713
    20  C   -0.121903
    21  C    0.650571
    22  C    0.329958
    23  N   -0.244980
    24  C    0.615667
    28  O   -0.664239
    29  O   -0.627546
 Electronic spatial extent (au):  <R**2>=           4301.7818
 Charge=              0.0000 electrons
 Dipole moment (field-independent basis, Debye):
    X=             -5.4159    Y=              2.1958    Z=              0.3703  Tot=              5.8558
 Quadrupole moment (field-independent basis, Debye-Ang):
   XX=           -107.3097   YY=           -110.1311   ZZ=            -97.4756
   XY=             -7.2123   XZ=             -4.7416   YZ=             -5.7474
 Traceless Quadrupole moment (field-independent basis, Debye-Ang):
   XX=             -2.3376   YY=             -5.1590   ZZ=              7.4966
   XY=             -7.2123   XZ=             -4.7416   YZ=             -5.7474
 Octapole moment (field-independent basis, Debye-Ang**2):
  XXX=           -170.4158  YYY=             23.4318  ZZZ=              3.0231  XYY=             -4.5673
  XXY=            -42.6509  XXZ=            -15.8998  XZZ=            -19.2542  YZZ=              0.0461
  YYZ=              2.2009  XYZ=             -4.3832
 Hexadecapole moment (field-independent basis, Debye-Ang**3):
 XXXX=          -4098.2648 YYYY=          -1356.9205 ZZZZ=           -397.2935 XXXY=           -318.5566
 XXXZ=           -188.2278 YYYX=             84.4878 YYYZ=            -60.9768 ZZZX=            -26.8642
 ZZZY=              2.0706 XXYY=           -903.1655 XXZZ=           -670.4006 YYZZ=           -269.7978
 XXYZ=            -41.2203 YYXZ=             18.2820 ZZXY=            -20.8432
 N-N= 1.314075140679D+03 E-N=-4.759144733484D+03  KE= 9.051501228586D+02
 Calling FoFJK, ICntrl=      2127 FMM=F ISym2X=0 I1Cent= 0 IOpClX= 0 NMat=1 NMatS=1 NMatT=0.
 ***** Axes restored to original set *****
 -------------------------------------------------------------------
 Center     Atomic                   Forces (Hartrees/Bohr)
 Number     Number              X              Y              Z
 -------------------------------------------------------------------
      1        6          -0.004666140   -0.002162918   -0.003209808
      2        6          -0.014531422   -0.009993502   -0.014117198
      3        6          -0.014053910    0.005295989    0.000317596
      4        8           0.002616467   -0.000974263    0.013266037
      5        1           0.007663229    0.003340389    0.003661953
      6        8           0.009917991   -0.019699982   -0.006905839
      7        1           0.006254315   -0.003594369   -0.002417405
      8        7          -0.005375707    0.002325315    0.001735111
      9        6          -0.003775366    0.005145184    0.011790331
     10        1           0.000599522    0.004250620    0.004625381
     11        8           0.000327699    0.002616255    0.012624478
     12        6           0.018877137    0.010338612    0.002113829
     13        1          -0.001330355   -0.004654686   -0.003866021
     14        8           0.003740131    0.008212345   -0.001087391
     15        1          -0.000654229   -0.002694367   -0.000951963
     16        1          -0.006714194    0.001847334   -0.004384480
     17        1           0.004077418    0.002126526   -0.013391353
     18        1           0.005603778    0.011724582   -0.002905017
     19        1          -0.005532726   -0.012412753    0.001816632
     20        6          -0.007838857   -0.001854034   -0.000800459
     21        6           0.013393365    0.002477586   -0.014895998
     22        6           0.012710271   -0.002282711    0.043038606
     23        7          -0.004570297    0.000600313    0.000474091
     24        6          -0.004947062   -0.000340391   -0.024406005
     25        1          -0.006882327   -0.000567453   -0.003941277
     26        1           0.000163556   -0.000106615    0.002123252
     27        1           0.001292167    0.000169890   -0.004813088
     28        8          -0.000197093    0.001122590   -0.011903028
     29        8          -0.006167359   -0.000255485    0.016409036
 -------------------------------------------------------------------
 Cartesian Forces:  Max     0.043038606 RMS     0.008945901

 GradGradGradGradGradGradGradGradGradGradGradGradGradGradGradGradGradGrad
 Berny optimization.
 FormGI is forming the generalized inverse of G from B-inverse, IUseBI=4.
 Internal  Forces:  Max     0.019909533 RMS     0.005128530
 Search for a local minimum.
 Step number   1 out of a maximum of  173
 All quantities printed in internal units (Hartrees-Bohrs-Radians)
 Mixed Optimization -- RFO/linear search
 Second derivative matrix not updated -- first step.
 ITU=  0
     Eigenvalues ---    0.00449   0.00492   0.00831   0.00892   0.01190
     Eigenvalues ---    0.01350   0.01376   0.01457   0.01595   0.01786
     Eigenvalues ---    0.01938   0.01974   0.02094   0.02132   0.02340
     Eigenvalues ---    0.02539   0.03086   0.03729   0.04327   0.04825
     Eigenvalues ---    0.04932   0.05049   0.05501   0.05629   0.05706
     Eigenvalues ---    0.05935   0.06285   0.06831   0.07984   0.08246
     Eigenvalues ---    0.09620   0.11595   0.12954   0.13845   0.15643
     Eigenvalues ---    0.15999   0.16000   0.16000   0.16000   0.16000
     Eigenvalues ---    0.16000   0.16748   0.18828   0.19598   0.22032
     Eigenvalues ---    0.22355   0.23436   0.24594   0.24964   0.24997
     Eigenvalues ---    0.24999   0.26186   0.28666   0.28989   0.29986
     Eigenvalues ---    0.33918   0.34056   0.34110   0.34230   0.34346
     Eigenvalues ---    0.34355   0.34889   0.35531   0.35795   0.36155
     Eigenvalues ---    0.36338   0.37253   0.39867   0.41597   0.41884
     Eigenvalues ---    0.45214   0.46040   0.46316   0.49534   0.51466
     Eigenvalues ---    0.51501   0.52194   0.52312   0.56991   0.91903
     Eigenvalues ---    0.93364
 RFO step:  Lambda=-1.71831225D-02 EMin= 4.48712510D-03
 Linear search not attempted -- first point.
 Iteration  1 RMS(Cart)=  0.06979483 RMS(Int)=  0.00136484
 Iteration  2 RMS(Cart)=  0.00194443 RMS(Int)=  0.00039732
 Iteration  3 RMS(Cart)=  0.00000242 RMS(Int)=  0.00039732
 Iteration  4 RMS(Cart)=  0.00000000 RMS(Int)=  0.00039732
 Variable       Old X    -DE/DX   Delta X   Delta X   Delta X     New X
                                 (Linear)    (Quad)   (Total)
    R1        2.87431   0.00203   0.00000   0.01300   0.01264   2.88694
    R2        2.88004  -0.00345   0.00000  -0.00924  -0.00932   2.87072
    R3        2.07145   0.00267   0.00000   0.00746   0.00746   2.07891
    R4        2.69071  -0.00620   0.00000  -0.01422  -0.01422   2.67649
    R5        2.91719  -0.00748   0.00000  -0.02854  -0.02850   2.88869
    R6        2.71734  -0.01381   0.00000  -0.03321  -0.03321   2.68413
    R7        2.06749   0.00327   0.00000   0.00907   0.00907   2.07657
    R8        2.74735  -0.01497   0.00000  -0.04285  -0.04253   2.70482
    R9        2.07236  -0.00118   0.00000  -0.00329  -0.00329   2.06907
   R10        2.76856  -0.00709   0.00000  -0.01864  -0.01864   2.74992
   R11        1.85115  -0.01319   0.00000  -0.02480  -0.02480   1.82635
   R12        2.72688  -0.00968   0.00000  -0.02296  -0.02285   2.70403
   R13        2.61035  -0.00339   0.00000  -0.00785  -0.00785   2.60250
   R14        2.62939  -0.00719   0.00000  -0.01577  -0.01582   2.61357
   R15        2.87991  -0.00574   0.00000  -0.01811  -0.01811   2.86180
   R16        2.07468   0.00276   0.00000   0.00776   0.00776   2.08244
   R17        1.84302  -0.01390   0.00000  -0.02572  -0.02572   1.81729
   R18        2.69440  -0.00042   0.00000  -0.00098  -0.00098   2.69342
   R19        2.06736   0.00224   0.00000   0.00622   0.00622   2.07358
   R20        2.06944   0.00406   0.00000   0.01128   0.01128   2.08072
   R21        1.84414  -0.01356   0.00000  -0.02516  -0.02516   1.81898
   R22        2.52203   0.01607   0.00000   0.02653   0.02657   2.54860
   R23        2.04822   0.00228   0.00000   0.00613   0.00613   2.05434
   R24        2.77790  -0.00748   0.00000  -0.01868  -0.01863   2.75927
   R25        2.04404   0.00208   0.00000   0.00554   0.00554   2.04957
   R26        2.57613   0.01991   0.00000   0.03789   0.03790   2.61403
   R27        2.31420  -0.00300   0.00000  -0.00315  -0.00315   2.31105
   R28        2.59005   0.00996   0.00000   0.01917   0.01914   2.60919
   R29        1.90476   0.00438   0.00000   0.00912   0.00912   1.91388
   R30        2.32068  -0.01458   0.00000  -0.01558  -0.01558   2.30511
    A1        1.75374   0.00038   0.00000   0.01022   0.01000   1.76374
    A2        1.91280  -0.00064   0.00000   0.00517   0.00513   1.91793
    A3        1.93759  -0.00071   0.00000  -0.01719  -0.01698   1.92060
    A4        1.95573  -0.00273   0.00000  -0.03575  -0.03568   1.92006
    A5        1.98661   0.00142   0.00000   0.01220   0.01235   1.99896
    A6        1.91198   0.00199   0.00000   0.02304   0.02309   1.93507
    A7        1.78395  -0.00271   0.00000  -0.00791  -0.00768   1.77627
    A8        1.90087   0.00689   0.00000   0.04114   0.04029   1.94116
    A9        1.97416  -0.00031   0.00000   0.00506   0.00343   1.97759
   A10        1.94215  -0.00636   0.00000  -0.05846  -0.05798   1.88417
   A11        1.99334  -0.00138   0.00000  -0.03786  -0.03756   1.95578
   A12        1.86869   0.00384   0.00000   0.05611   0.05409   1.92278
   A13        1.87494   0.00074   0.00000  -0.00236  -0.00274   1.87220
   A14        1.92629  -0.00111   0.00000   0.00385   0.00348   1.92978
   A15        1.97021   0.00281   0.00000   0.00078   0.00048   1.97069
   A16        1.86132   0.00452   0.00000   0.05405   0.05391   1.91524
   A17        1.92598  -0.00591   0.00000  -0.04382  -0.04392   1.88206
   A18        1.90198  -0.00097   0.00000  -0.00947  -0.00906   1.89292
   A19        1.83285   0.00324   0.00000   0.01827   0.01827   1.85113
   A20        1.86076   0.00666   0.00000   0.03307   0.03343   1.89420
   A21        2.12715  -0.00064   0.00000  -0.00009  -0.00007   2.12708
   A22        2.03704  -0.00222   0.00000  -0.00596  -0.00593   2.03110
   A23        2.11775   0.00286   0.00000   0.00582   0.00575   2.12351
   A24        1.82513  -0.00376   0.00000  -0.02364  -0.02355   1.80159
   A25        1.99410   0.00600   0.00000   0.02911   0.02870   2.02281
   A26        1.93580  -0.00378   0.00000  -0.03160  -0.03176   1.90404
   A27        1.92534  -0.00156   0.00000  -0.02430  -0.02378   1.90156
   A28        1.89346   0.00175   0.00000   0.02344   0.02303   1.91650
   A29        1.88768   0.00107   0.00000   0.02530   0.02554   1.91322
   A30        1.87019   0.00477   0.00000   0.02694   0.02694   1.89713
   A31        1.93383   0.00556   0.00000   0.02880   0.02838   1.96221
   A32        1.93705  -0.00341   0.00000  -0.03561  -0.03586   1.90118
   A33        1.93195  -0.00374   0.00000  -0.01314  -0.01458   1.91737
   A34        1.88948  -0.00284   0.00000  -0.02353  -0.02314   1.86635
   A35        1.87689   0.00395   0.00000   0.05704   0.05664   1.93353
   A36        1.89280   0.00063   0.00000  -0.01177  -0.01231   1.88050
   A37        1.83805   0.00369   0.00000   0.02082   0.02082   1.85887
   A38        2.13208   0.00175   0.00000   0.00370   0.00374   2.13582
   A39        2.05462  -0.00867   0.00000  -0.04586  -0.04588   2.00875
   A40        2.09648   0.00692   0.00000   0.04216   0.04214   2.13862
   A41        2.07589   0.00298   0.00000   0.01319   0.01328   2.08917
   A42        2.15349  -0.00198   0.00000  -0.00937  -0.00941   2.14407
   A43        2.05381  -0.00100   0.00000  -0.00382  -0.00387   2.04995
   A44        2.01799  -0.00979   0.00000  -0.03337  -0.03331   1.98468
   A45        2.11354   0.01829   0.00000   0.06682   0.06679   2.18033
   A46        2.15161  -0.00849   0.00000  -0.03341  -0.03345   2.11817
   A47        2.20198   0.00605   0.00000   0.02724   0.02722   2.22921
   A48        2.04626  -0.00077   0.00000  -0.00089  -0.00088   2.04538
   A49        2.03485  -0.00528   0.00000  -0.02638  -0.02637   2.00848
   A50        2.02000  -0.00386   0.00000  -0.01677  -0.01690   2.00310
   A51        2.16869  -0.00930   0.00000  -0.03356  -0.03357   2.13512
   A52        2.09441   0.01317   0.00000   0.05055   0.05055   2.14496
    D1        0.63463  -0.00135   0.00000  -0.00424  -0.00439   0.63024
    D2       -1.42163   0.00432   0.00000   0.04883   0.04904  -1.37259
    D3        2.78606  -0.00496   0.00000  -0.05262  -0.05276   2.73331
    D4       -1.42683   0.00180   0.00000   0.02911   0.02903  -1.39780
    D5        2.80009   0.00748   0.00000   0.08218   0.08246   2.88255
    D6        0.72460  -0.00181   0.00000  -0.01927  -0.01933   0.70527
    D7        2.74193   0.00019   0.00000   0.00797   0.00783   2.74976
    D8        0.68567   0.00587   0.00000   0.06104   0.06125   0.74692
    D9       -1.38982  -0.00342   0.00000  -0.04041  -0.04054  -1.43036
   D10       -0.75981   0.00301   0.00000   0.01839   0.01847  -0.74134
   D11       -2.86643   0.00406   0.00000   0.04787   0.04800  -2.81843
   D12        1.27785   0.00113   0.00000   0.01742   0.01802   1.29587
   D13        1.26988   0.00137   0.00000   0.01537   0.01525   1.28513
   D14       -0.83674   0.00243   0.00000   0.04485   0.04477  -0.79196
   D15       -2.97565  -0.00050   0.00000   0.01440   0.01480  -2.96084
   D16       -2.83168   0.00298   0.00000   0.02702   0.02684  -2.80484
   D17        1.34488   0.00403   0.00000   0.05651   0.05637   1.40125
   D18       -0.79403   0.00110   0.00000   0.02606   0.02639  -0.76763
   D19        2.95054  -0.00073   0.00000  -0.01448  -0.01444   2.93611
   D20       -1.36915   0.00014   0.00000  -0.00539  -0.00556  -1.37471
   D21        0.83564  -0.00080   0.00000  -0.02512  -0.02500   0.81064
   D22       -0.31878   0.00059   0.00000   0.00337   0.00324  -0.31554
   D23       -2.34161  -0.00463   0.00000  -0.06170  -0.06180  -2.40341
   D24        1.80841  -0.00454   0.00000  -0.05281  -0.05296   1.75545
   D25        1.70780   0.00435   0.00000   0.02144   0.02118   1.72898
   D26       -0.31503  -0.00087   0.00000  -0.04362  -0.04386  -0.35889
   D27       -2.44820  -0.00078   0.00000  -0.03474  -0.03502  -2.48322
   D28       -2.45722   0.00354   0.00000   0.02306   0.02340  -2.43382
   D29        1.80314  -0.00168   0.00000  -0.04200  -0.04164   1.76150
   D30       -0.33003  -0.00159   0.00000  -0.03312  -0.03280  -0.36283
   D31       -0.74552  -0.00254   0.00000  -0.01465  -0.01632  -0.76185
   D32       -2.69898   0.00020   0.00000   0.00261   0.00246  -2.69652
   D33        1.39478   0.00342   0.00000   0.04934   0.05116   1.44594
   D34       -0.15458  -0.00011   0.00000   0.00167   0.00185  -0.15273
   D35        1.91073   0.00132   0.00000   0.03294   0.03369   1.94442
   D36       -2.30910  -0.00039   0.00000   0.02946   0.02899  -2.28011
   D37       -1.57620   0.00143   0.00000   0.05310   0.05285  -1.52336
   D38        1.51252   0.00135   0.00000   0.04815   0.04788   1.56040
   D39        0.52197   0.00012   0.00000   0.01974   0.01991   0.54188
   D40       -2.67249   0.00003   0.00000   0.01479   0.01494  -2.65754
   D41        2.56023   0.00164   0.00000   0.05451   0.05462   2.61484
   D42       -0.63423   0.00155   0.00000   0.04956   0.04965  -0.58458
   D43        0.57282  -0.00063   0.00000  -0.00906  -0.00903   0.56379
   D44        2.72456   0.00342   0.00000  -0.00204  -0.00153   2.72303
   D45       -1.49386   0.00487   0.00000   0.02865   0.02927  -1.46459
   D46        3.11845  -0.00003   0.00000  -0.00227  -0.00233   3.11611
   D47       -0.02577   0.00005   0.00000  -0.00038  -0.00047  -0.02624
   D48        0.03214   0.00022   0.00000   0.00327   0.00326   0.03540
   D49       -3.11208   0.00030   0.00000   0.00516   0.00512  -3.10696
   D50       -3.13037  -0.00001   0.00000  -0.00103  -0.00088  -3.13125
   D51       -0.00298   0.00072   0.00000   0.01712   0.01677   0.01380
   D52       -0.04134  -0.00021   0.00000  -0.00614  -0.00602  -0.04736
   D53        3.08605   0.00052   0.00000   0.01201   0.01163   3.09768
   D54        1.05745  -0.00348   0.00000  -0.04902  -0.04935   1.00811
   D55       -1.04235  -0.00134   0.00000  -0.01491  -0.01491  -1.05726
   D56        3.13811   0.00262   0.00000   0.03233   0.03178  -3.11330
   D57       -0.99252  -0.00150   0.00000  -0.02081  -0.02085  -1.01337
   D58       -3.09232   0.00064   0.00000   0.01330   0.01358  -3.07874
   D59        1.08814   0.00460   0.00000   0.06054   0.06027   1.14841
   D60       -3.06083  -0.00337   0.00000  -0.05040  -0.05013  -3.11096
   D61        1.12256  -0.00123   0.00000  -0.01629  -0.01569   1.10686
   D62       -0.98017   0.00273   0.00000   0.03095   0.03099  -0.94918
   D63        1.26799   0.00118   0.00000   0.02287   0.02374   1.29173
   D64       -2.88730  -0.00142   0.00000  -0.01861  -0.01839  -2.90569
   D65       -0.84552  -0.00007   0.00000  -0.01444  -0.01553  -0.86104
   D66       -0.00455   0.00009   0.00000   0.00058   0.00059  -0.00396
   D67        3.13735   0.00002   0.00000  -0.00066  -0.00068   3.13667
   D68        3.13973   0.00003   0.00000  -0.00122  -0.00127   3.13845
   D69       -0.00156  -0.00004   0.00000  -0.00247  -0.00255  -0.00411
   D70       -0.01077   0.00001   0.00000  -0.00000   0.00002  -0.01075
   D71        3.14058  -0.00009   0.00000  -0.00498  -0.00518   3.13541
   D72        3.13053   0.00008   0.00000   0.00117   0.00123   3.13176
   D73       -0.00130  -0.00002   0.00000  -0.00381  -0.00397  -0.00527
   D74       -0.00086  -0.00015   0.00000  -0.00407  -0.00415  -0.00501
   D75       -3.12793  -0.00003   0.00000  -0.00131  -0.00139  -3.12933
   D76        3.13073   0.00012   0.00000   0.00164   0.00146   3.13219
   D77        0.00366   0.00024   0.00000   0.00441   0.00422   0.00788
   D78        0.02628   0.00025   0.00000   0.00706   0.00710   0.03338
   D79       -3.10176  -0.00025   0.00000  -0.00955  -0.00993  -3.11169
   D80       -3.12975   0.00016   0.00000   0.00450   0.00457  -3.12518
   D81        0.02540  -0.00035   0.00000  -0.01212  -0.01246   0.01294
         Item               Value     Threshold  Converged?
 Maximum Force            0.019910     0.000450     NO 
 RMS     Force            0.005129     0.000300     NO 
 Maximum Displacement     0.264707     0.001800     NO 
 RMS     Displacement     0.070007     0.001200     NO 
 Predicted change in Energy=-9.761903D-03
 GradGradGradGradGradGradGradGradGradGradGradGradGradGradGradGradGradGrad

                          Input orientation:                          
 ---------------------------------------------------------------------
 Center     Atomic      Atomic             Coordinates (Angstroms)
 Number     Number       Type             X           Y           Z
 ---------------------------------------------------------------------
      1          6           0       -2.996846   -1.807539    0.791216
      2          6           0       -2.235048   -1.445485   -0.482541
      3          6           0       -1.849495    0.008887   -0.212625
      4          8           0       -3.089631   -1.468638   -1.616838
      5          1           0       -1.355159   -2.079906   -0.658104
      6          8           0       -2.697697    0.485513    0.837179
      7          1           0       -1.994576    0.618304   -1.110609
      8          7           0       -0.470191    0.157133    0.226849
      9          6           0       -3.706506   -0.497674    1.088474
     10          1           0       -2.286790   -2.042530    1.597969
     11          8           0       -3.861382   -2.902107    0.545218
     12          6           0       -4.216594   -0.328207    2.504275
     13          1           0       -4.538586   -0.369083    0.377513
     14          8           0       -3.178217   -0.443478    3.473789
     15          1           0       -4.943223   -1.122097    2.718273
     16          1           0       -4.736392    0.637570    2.601454
     17          1           0       -4.188700   -3.231729    1.387253
     18          1           0       -3.627471   -2.266929   -1.530168
     19          1           0       -2.664287    0.368753    3.421957
     20          6           0       -0.115496    0.060657    1.554068
     21          6           0        1.163132    0.167708    1.969442
     22          6           0        2.225144    0.389194    0.992155
     23          7           0        1.774496    0.453969   -0.314062
     24          6           0        0.476092    0.329645   -0.766931
     25          1           0       -0.941251   -0.107147    2.240933
     26          1           0        1.450530    0.097407    3.012893
     27          1           0        2.469568    0.595433   -1.036965
     28          8           0        3.412070    0.506395    1.262508
     29          8           0        0.180022    0.371663   -1.949519
 ---------------------------------------------------------------------
                    Distance matrix (angstroms):
                    1          2          3          4          5
     1  C    0.000000
     2  C    1.527704   0.000000
     3  C    2.371396   1.528628   0.000000
     4  O    2.433554   1.420379   2.385966   0.000000
     5  H    2.206774   1.098872   2.192232   2.073937   0.000000
     6  O    2.312941   2.384211   1.431331   3.161412   3.258782
     7  H    3.241327   2.170604   1.094903   2.410548   2.809618
     8  N    3.249990   2.487236   1.455195   3.592183   2.563329
     9  C    1.519120   2.351940   2.323350   2.939731   3.329089
    10  H    1.100114   2.165101   2.770882   3.362869   2.441148
    11  O    1.416338   2.413089   3.618826   2.706458   2.899164
    12  C    2.571144   3.754451   3.619163   4.422013   4.610522
    13  H    2.148783   2.684143   2.778910   2.699246   3.759473
    14  O    3.014922   4.188810   3.944589   5.193581   4.803538
    15  H    2.823430   4.205235   4.409132   4.727481   5.019116
    16  H    3.504503   4.484068   4.080252   4.994188   5.426061
    17  H    1.950407   3.240918   4.305007   3.652533   3.679557
    18  H    2.448989   1.926430   3.174344   0.966463   2.441080
    19  H    3.430400   4.326755   3.742135   5.380184   4.935246
    20  C    3.517710   3.302839   2.476013   4.608565   3.318506
    21  C    4.753445   4.490239   3.723246   5.798709   4.277565
    22  C    5.668792   5.043223   4.266006   6.205258   4.651708
    23  N    5.394605   4.439905   3.652628   5.390119   4.041488
    24  C    4.365396   3.253037   2.412156   4.082959   3.028409
    25  H    3.036196   3.298844   2.618839   4.620778   3.530937
    26  H    5.323892   5.308678   4.615405   6.670830   5.107720
    27  H    6.244855   5.158115   4.435975   5.958301   4.682896
    28  O    6.830126   6.224547   5.487039   7.379940   5.753623
    29  O    4.727900   3.359555   2.695801   3.766699   3.167763
                    6          7          8          9         10
     6  O    0.000000
     7  H    2.075065   0.000000
     8  N    2.332835   2.079717   0.000000
     9  C    1.430910   3.002013   3.412464   0.000000
    10  H    2.671824   3.808126   3.165205   2.159110   0.000000
[...]
 747,0.00012578,0.00005911,-0.00016890,-0.00020442,-0.00003381,-0.00032
 047,-0.01516640,0.00432898,-0.02329971,0.02985526,-0.00199754,0.019964
 94,-0.12836290,-0.02512506,0.01277284,0.74002760,0.00012775,0.00012391
 ,0.00009415,0.00047844,-0.00023068,0.00034784,0.00093509,0.00190656,0.
 00358634,-0.00005544,0.00005543,-0.00023725,-0.00000950,-0.00000834,0.
 00003228,-0.00201675,-0.00005427,0.00006721,-0.00052327,-0.00009973,0.
 00027860,-0.02301733,0.00316889,-0.00320154,0.00001630,0.00045869,-0.0
 0021882,0.00001757,0.00001597,-0.00007556,-0.00010575,-0.00007983,-0.0
 0006265,0.00003626,-0.00007803,-0.00002872,-0.00013492,-0.00008383,0.0
 0003615,-0.00014452,0.00008402,0.00008466,-0.00000642,0.00000139,0.000
 02555,-0.00002771,0.00002138,-0.00000570,0.00002637,0.00002178,-0.0000
 0149,0.00002146,0.00001485,0.00003949,0.00008755,-0.00014999,-0.000067
 96,-0.00072476,-0.00017013,0.00019714,0.00103439,0.00277378,0.02138029
 ,-0.01266283,-0.08065996,0.06663164,0.18600489,0.19656072,-0.00015953,
 0.00004423,-0.00063155,0.00032847,-0.00017201,0.00022374,0.00091879,0.
 00250886,-0.00373778,0.00001607,-0.00002977,0.00054626,0.00000642,0.00
 004557,-0.00014206,-0.00035772,-0.00019165,0.00154299,0.00206039,0.000
 41070,-0.00054854,0.01695232,-0.00449435,0.03256377,0.00041848,0.00033
 020,-0.00022730,-0.00003285,-0.00011612,0.00020395,-0.00007944,-0.0001
 4830,0.00044892,-0.00048626,-0.00003894,-0.00047639,0.00002771,-0.0000
 4648,0.00002572,0.00075986,-0.00004491,0.00034929,0.00005756,0.0000024
 8,0.00006548,0.00009004,-0.00002275,0.00005902,-0.00001768,-0.00000065
 ,-0.00011460,0.00010346,0.00007515,-0.00005131,-0.00044675,0.00019682,
 -0.00008748,-0.00994763,0.00422033,-0.01823413,0.01230175,0.01935473,-
 0.03332468,-0.02143074,0.05721741,-0.22326094,-0.00519643,-0.22671428,
 0.67588044,-0.00055701,-0.00044374,0.00084570,0.00014094,0.00025414,-0
 .00047495,-0.03379849,-0.01439871,0.01802527,0.00126499,0.00117143,0.0
 0030210,0.00035876,-0.00059257,0.00014804,0.00185301,-0.00061104,-0.00
 368556,-0.00255876,-0.00053916,0.00082581,-0.18848864,-0.03917217,0.01
 436765,-0.00207777,-0.00092799,0.00086714,0.00007029,-0.00003460,-0.00
 007332,0.00099823,0.00112775,-0.00048158,0.00009902,0.00016294,0.00042
 941,0.00025114,0.00019302,0.00007462,0.00007187,-0.00020118,-0.0008262
 2,0.00000698,0.00005619,-0.00014979,-0.00002309,-0.00008352,-0.0000200
 2,-0.00004224,-0.00022301,0.00013707,-0.00014059,-0.00013269,0.0000947
 5,0.00010973,0.00021618,0.00058682,0.04393977,-0.00401444,0.04469248,-
 0.03291126,-0.00957943,0.00185018,0.00034054,0.03467711,-0.08325298,-0
 .26667341,-0.05164968,-0.01560888,0.62456256,-0.00051950,-0.00070475,0
 .00028069,-0.00138275,-0.00050473,-0.00092006,-0.02161636,-0.00371346,
 -0.00682812,0.00123281,0.00049466,0.00127390,0.00030345,-0.00065241,0.
 00002970,0.01007701,-0.00065865,-0.00224701,0.00243662,0.00132959,0.00
 068985,-0.04310928,-0.08542482,0.04171528,-0.00032099,-0.00206233,0.00
 085992,0.00000723,-0.00002852,0.00015585,0.00060158,0.00066561,0.00003
 108,0.00004342,0.00037586,0.00023495,0.00056685,0.00038722,-0.00013515
 ,0.00030876,-0.00025968,-0.00045410,0.00001794,0.00002309,-0.00016696,
 0.00003504,-0.00009904,-0.00001341,-0.00008220,-0.00014411,0.00004018,
 -0.00010524,-0.00000539,-0.00000369,-0.00015150,0.00033367,0.00035972,
 0.00723539,-0.01021798,0.02668105,-0.01190424,-0.00253745,-0.00073953,
 0.01469560,-0.00068939,-0.02788922,-0.03599617,-0.07738710,0.02846601,
 0.05898044,0.30500150,0.00124191,0.00051958,0.00006660,-0.00473094,0.0
 0244137,-0.00022699,0.02324517,-0.00912433,0.02466288,-0.00283658,-0.0
 0242368,-0.00265755,-0.00023310,0.00084250,0.00021449,-0.00956851,0.00
 087266,-0.00066414,-0.00844412,-0.00156923,-0.00115505,0.02750252,0.04
 070408,-0.15283530,0.00073509,0.00210224,-0.00142909,-0.00003009,0.000
 13167,-0.00032257,-0.00110755,-0.00114875,-0.00037110,0.00057899,-0.00
 033212,0.00020183,-0.00083388,-0.00045992,0.00012577,-0.00121456,0.000
 25104,0.00024317,-0.00009145,-0.00004588,0.00011760,-0.00011665,0.0001
 4763,-0.00004825,0.00007203,0.00022523,0.00007730,-0.00017123,-0.00017
 944,-0.00047963,0.00075397,-0.00043783,-0.00049680,0.01339838,0.018205
 19,-0.04310636,0.00987105,0.00146766,0.00341078,-0.02963951,-0.0139485
 0,0.00067847,-0.05921560,0.01593482,-0.14591222,0.14747728,-0.21491226
 ,0.90860566,-0.00176473,-0.00073589,-0.00123692,0.00065382,-0.00029788
 ,-0.00001016,0.00049449,0.00060100,-0.00064561,-0.00024208,0.00006031,
 0.00022968,-0.00009938,0.00021478,0.00017865,-0.00081801,-0.00002444,-
 0.00059271,0.00000597,0.00009791,0.00010465,0.01106963,0.00509000,-0.0
 0733220,-0.00066903,0.00025665,-0.00021921,-0.00051250,-0.00130339,-0.
 00013194,0.00014460,0.00031846,0.00034111,-0.00129416,-0.00000005,-0.0
 0061611,0.00005716,-0.00004182,0.00013272,0.00058670,-0.00035853,-0.00
 032056,0.00005538,0.00002486,0.00002743,0.00017220,-0.00006748,0.00013
 585,0.00005187,-0.00010033,-0.00002798,0.00002491,-0.00000520,-0.00012
 839,-0.00028852,0.00110358,0.00085412,-0.21514420,-0.08669125,0.122636
 20,-0.01257467,-0.01085784,0.01597911,-0.00251536,-0.00181812,-0.00447
 600,0.00032074,0.00031876,-0.00016416,-0.00079534,-0.00031517,-0.00169
 190,0.22347493,-0.00161458,-0.00003060,-0.00127124,0.00014037,0.000067
 71,0.00002278,-0.00064135,-0.00064720,0.00025049,0.00005528,-0.0001270
 3,0.00016034,0.00011424,-0.00010356,-0.00004045,-0.00010667,-0.0003253
 2,-0.00085612,0.00002428,-0.00007359,-0.00003442,-0.00667861,-0.000528
 95,0.00583980,0.00073134,0.00060465,0.00006740,-0.00096400,-0.00070248
 ,0.00025521,0.00029447,0.00005752,0.00034852,0.00069598,-0.00003062,0.
 00075707,-0.00005844,-0.00019992,-0.00006029,-0.00132266,-0.00032421,-
 0.00006150,-0.00016301,-0.00001128,-0.00004862,-0.00006494,0.00001133,
 -0.00012798,-0.00004755,-0.00011038,-0.00008377,0.00001003,0.00001371,
 -0.00005280,0.00160349,-0.00118790,-0.00088172,-0.08234195,-0.08526798
 ,0.06548644,-0.00253329,0.00674400,0.00359392,-0.00299956,0.01045674,0
 .00340857,0.00008145,-0.00052785,-0.00069774,0.00130556,0.00351721,0.0
 0137783,0.09279312,0.07660714,-0.00073769,0.00000853,-0.00079324,-0.00
 079381,-0.00028039,-0.00080546,0.00245147,0.00010996,-0.00079503,0.000
 20257,-0.00000069,0.00028388,0.00011880,-0.00011482,-0.00017623,0.0003
 0699,-0.00021970,0.00104110,0.00020690,-0.00012901,-0.00006070,0.02345
 504,0.01433077,-0.01998985,-0.00117516,-0.00003694,0.00006641,-0.00011
 892,-0.00027865,0.00106180,0.00057126,0.00021894,0.00029913,0.00072849
 ,0.00038534,0.00109056,0.00017149,-0.00004336,-0.00009107,-0.00083652,
 -0.00019285,-0.00141024,-0.00007332,-0.00002171,-0.00006104,-0.0002208
 3,-0.00000023,-0.00023533,-0.00005025,-0.00011479,0.00004564,-0.000025
 52,-0.00004530,-0.00002627,0.00076773,-0.00070290,0.00026666,0.1160458
 1,0.06518487,-0.14759506,-0.01008822,-0.00411462,0.01212386,-0.0030715
 2,0.00354410,-0.00079119,0.00067317,-0.00040699,0.00089363,-0.00637999
 ,-0.00024598,-0.00121243,-0.12332067,-0.07478537,0.15836787,-0.0000222
 9,0.00003485,-0.00011139,-0.00000822,0.00021975,-0.00005930,0.00104763
 ,0.00013990,-0.00149611,-0.00009772,-0.00012521,0.00001569,-0.00000076
 ,-0.00001535,-0.00000673,-0.00019099,0.00002409,0.00039871,-0.00047687
 ,-0.00008766,-0.00006234,-0.00466763,-0.00308663,-0.00140243,0.0001451
 4,0.00014124,-0.00006657,-0.00000157,-0.00003502,0.00001098,0.00000284
 ,-0.00002919,0.00008807,-0.00016540,-0.00005125,-0.00016992,-0.0000229
 1,-0.00002049,0.00001435,0.00024758,0.00000996,0.00019818,0.00001328,0
 .00000498,0.00002516,0.00003165,-0.00000459,0.00002634,-0.00000703,-0.
 00001003,-0.00002736,0.00001253,-0.00001982,-0.00003922,-0.00015420,0.
 00004843,-0.00012660,-0.00235300,0.00927433,-0.02692434,-0.06900125,0.
 01329635,-0.06948854,0.01066868,-0.00481173,0.02096066,-0.00336620,-0.
 00279025,0.00323064,-0.00218921,-0.00067878,0.00022487,0.00049985,0.00
 144845,0.00056382,0.06831067,0.00000399,-0.00002886,-0.00006652,0.0001
 6519,-0.00015433,0.00021153,-0.00040165,0.00149038,0.00025190,0.000047
 75,0.00005829,0.00000585,-0.00002061,-0.00001037,0.00001176,-0.0000336
 6,-0.00008679,-0.00003156,-0.00012182,-0.00008168,-0.00014349,-0.00249
 346,0.00736676,0.00135787,-0.00003383,0.00000637,-0.00002390,0.0000151
 0,0.00001499,-0.00002349,-0.00006596,-0.00003509,0.00001327,0.00003857
 ,0.00002039,0.00006041,0.00000159,-0.00000531,-0.00000201,-0.00000038,
 -0.00008091,-0.00012806,-0.00000554,-0.00000039,-0.00000957,0.00000644
 ,-0.00000403,-0.00000242,-0.00001192,0.00001677,-0.00001238,-0.0000021
 0,0.00002316,0.00001190,0.00009195,0.00008818,0.00012671,-0.00114400,0
 .00066131,-0.00612287,0.01367683,-0.05308180,0.08448604,0.00591906,-0.
 00083442,0.01018560,-0.00251623,0.00104441,0.00223539,-0.00125667,-0.0
 0043497,0.00004823,0.00123503,-0.00466905,-0.00166554,-0.01432126,0.04
 990704,-0.00000682,-0.00001133,-0.00000024,0.00002643,-0.00001944,0.00
 003217,0.00005787,0.00063578,-0.00008578,0.00004139,0.00001105,0.00003
 896,-0.00000377,-0.00001618,-0.00002613,0.00000279,-0.00003676,0.00007
 335,-0.00012845,-0.00008910,-0.00000730,-0.00135467,0.00129708,0.00373
 375,-0.00001432,0.00002107,-0.00002147,-0.00000602,0.00001895,-0.00000
 510,0.00000719,0.00000516,0.00001144,-0.00001549,0.00002153,-0.0000071
 7,0.00000168,-0.00000747,0.00000129,0.00003482,-0.00002807,-0.00005085
 ,0.00000396,0.00000286,0.00000295,0.00000085,-0.00000630,0.00000045,-0
 .00001061,0.00000116,-0.00000165,-0.00000457,0.00000649,-0.00000007,-0
 .00002495,0.00002419,0.00003895,0.00180768,0.00191792,-0.00499403,-0.0
 7029249,0.08454062,-0.31876995,-0.00983090,0.00177428,-0.01131153,0.00
 262806,0.00203671,-0.00116962,0.00159644,0.00033790,0.00017574,0.00029
 292,-0.00197239,-0.00006848,0.07549097,-0.08909850,0.33089648,-0.00004
 035,-0.00001157,-0.00000706,-0.00019294,0.00014313,-0.00012716,0.00030
 073,-0.00076197,0.00095540,-0.00001015,-0.00004279,0.00001222,0.000008
 50,-0.00002446,-0.00000106,-0.00009460,0.00000346,0.00000434,-0.000158
 72,-0.00002749,0.00004831,-0.00424615,-0.00062695,-0.00446315,-0.00008
 337,0.00001831,-0.00000656,-0.00000046,-0.00001337,0.00002073,0.000050
 88,0.00004049,0.00000937,-0.00005068,-0.00000789,-0.00003488,-0.000004
 29,-0.00000522,0.00001460,0.00008262,-0.00000423,0.00000090,0.00000686
 ,0.00000700,0.00000304,0.00000455,-0.00000528,0.00000777,-0.00000989,-
 0.00001752,0.00000043,-0.00001078,-0.00002065,-0.00003347,-0.00005079,
 0.00001599,0.00001853,-0.00009451,0.00052936,-0.00081087,-0.00023851,0
 .00004544,-0.00342948,0.01747451,0.00589915,-0.00411264,-0.23487797,-0
 .11425873,0.15079421,-0.01872556,-0.01420671,0.02525969,-0.00005572,0.
 00007633,0.00009888,0.00063983,0.00028389,-0.00051685,0.23953380,-0.00
 004444,-0.00000502,0.00002081,0.00009033,-0.00000321,0.00001995,0.0000
 9969,0.00091302,0.00047512,0.00011792,0.00004046,0.00001059,0.00001404
 ,-0.00004314,0.00001318,-0.00023470,-0.00008192,0.00000644,-0.00004454
 ,0.00001062,-0.00004421,-0.00073981,0.00389885,0.00016843,-0.00004635,
 0.00006722,-0.00004890,0.00001201,0.00000175,0.00000929,0.00005717,0.0
 0002211,-0.00002973,-0.00001562,0.00001072,0.00001323,-0.00000693,-0.0
 0000940,0.00001027,0.00004099,-0.00003510,-0.00004370,0.00000213,0.000
 00095,0.00000130,0.00001083,-0.00001196,-0.00000731,-0.00001357,-0.000
 00828,0.00000934,-0.00001995,0.00000274,0.00002375,-0.00002106,0.00004
 655,0.00003295,0.00066759,-0.00058863,-0.00017850,0.00031913,0.0033565
 6,0.00212651,-0.00523773,-0.00196817,0.00488289,-0.11601810,-0.0906957
 7,0.11281626,-0.00227885,-0.00154995,0.00038270,0.00004614,-0.00033977
 ,-0.00009363,-0.00032575,0.00018355,0.00011364,0.12110948,0.09314129,0
 .00005209,0.00005220,-0.00003286,-0.00002558,0.00013396,0.00008380,0.0
 0022025,-0.00009697,0.00083674,-0.00011286,-0.00010343,-0.00011116,-0.
 00000825,0.00001073,-0.00000306,-0.00064424,-0.00010084,0.00015944,-0.
 00003798,-0.00000716,0.00005775,-0.00493901,0.00039586,-0.00040324,0.0
 0009348,0.00017833,-0.00006233,-0.00000441,-0.00000199,-0.00000543,-0.
 00007893,-0.00009896,0.00001049,-0.00001098,-0.00003240,-0.00002196,-0
 .00004717,-0.00002665,0.00000688,-0.00001831,0.00000377,0.00003969,-0.
 00000344,-0.00000269,0.00001747,0.00000250,0.00000795,-0.00000076,0.00
 000373,0.00001977,-0.00000497,0.00000883,0.00000567,-0.00000048,0.0000
 1562,-0.00000142,-0.00003944,-0.00086379,-0.00025730,-0.00084233,-0.00
 413927,0.00190062,-0.00410626,0.02638588,0.01316770,-0.01528735,0.1556
 5534,0.11423769,-0.21389521,-0.00710901,-0.00861860,0.01728434,0.00006
 149,-0.00013157,-0.00000299,0.00109942,0.00056259,-0.00041105,-0.16531
 373,-0.11782437,0.21580627,0.00082767,0.00026171,-0.00030261,-0.000111
 35,0.00109525,0.00118822,0.00600472,-0.00037859,0.00078625,-0.00114768
 ,-0.00081137,-0.00080894,-0.00007992,0.00020637,0.00005473,-0.00299799
 ,-0.00004449,0.00111570,-0.00005972,-0.00010870,-0.00011833,-0.0057114
 9,0.00173429,-0.00903449,0.00128049,0.00107462,-0.00039852,0.00000252,
 0.00013918,-0.00020250,-0.00110575,-0.00100330,0.00012383,0.00024345,-
 0.00026316,-0.00008647,-0.00031851,-0.00013458,-0.00003123,-0.00084894
 ,0.00034536,0.00071153,-0.00007561,-0.00004841,0.00010041,-0.00006625,
 0.00012034,-0.00003249,0.00010084,0.00028489,-0.00008491,0.00019142,0.
 00009535,-0.00002944,0.00047641,-0.00052484,-0.00063179,0.00796849,-0.
 00428068,0.01471435,-0.06338990,-0.02217197,-0.00265344,-0.64163894,-0
 .10579786,-0.12554148,-0.04708857,0.00285520,-0.05616882,0.01078043,0.
 00022495,0.00278460,-0.00119767,0.00048072,-0.00074661,0.00051592,0.00
 056236,0.00055770,-0.00308798,0.00065865,-0.00115491,0.74529363,0.0002
 2814,-0.00000799,0.00004293,0.00009693,0.00009438,0.00037447,0.0014113
 0,-0.00013889,-0.00003480,-0.00027240,-0.00009951,-0.00026163,-0.00003
 727,0.00008372,0.00004789,-0.00045813,0.00011296,0.00011650,-0.0001802
 2,-0.00006809,-0.00004781,0.00063976,0.00211064,-0.00530698,0.00023583
 ,0.00011716,-0.00005954,0.00002590,0.00006213,-0.00013653,-0.00031286,
 -0.00017529,-0.00003802,0.00012172,-0.00004984,0.00002728,-0.00006742,
 -0.00000913,-0.00001199,-0.00029279,0.00013486,0.00015284,-0.00001432,
 -0.00001126,0.00000988,-0.00003391,0.00003531,-0.00000972,0.00004992,0
 .00007257,-0.00000717,0.00005256,0.00001425,0.00001664,0.00016456,-0.0
 0018886,-0.00015031,0.00075470,0.00044551,0.00860046,-0.02961959,0.014
 98739,-0.00111626,-0.10456127,-0.09819807,-0.01372523,0.01193509,0.021
 90009,0.00141590,-0.00664495,0.00388598,0.00476156,-0.00010327,-0.0023
 6508,-0.00129763,0.00150444,-0.00113059,-0.00121331,-0.00040817,-0.003
 06682,-0.00342440,0.12406943,0.06250373,-0.00003219,0.00009961,-0.0003
 1492,-0.00016230,0.00029528,-0.00008290,0.00092822,-0.00067095,0.00042
 139,-0.00022667,-0.00021574,0.00010646,-0.00000313,0.00003801,-0.00006
 694,-0.00088181,-0.00009473,0.00084800,0.00049850,0.00009522,-0.000081
 18,-0.00561074,-0.00440658,0.00773258,0.00019755,0.00030109,-0.0001787
 5,-0.00000919,-0.00007455,0.00009353,-0.00008771,-0.00013638,0.0002329
 4,-0.00027966,-0.00005563,-0.00027932,-0.00004630,-0.00005378,0.000030
 38,0.00041212,-0.00001357,0.00019892,0.00002798,0.00000290,0.00004708,
 0.00004659,-0.00000375,0.00003320,-0.00000430,0.00000890,-0.00006361,0
 .00005102,0.00000893,-0.00008692,-0.00019018,0.00008859,-0.00008821,0.
 00093255,0.00502700,-0.00964724,0.01826882,0.00463071,0.02357206,-0.12
 899188,-0.01471003,-0.12948401,-0.08078859,-0.00520803,-0.02591769,0.0
 2056676,0.00951904,-0.00334559,0.00114287,-0.00085412,0.00051469,-0.00
 240359,-0.00198952,0.00186785,0.00195891,-0.00258283,0.00430738,0.1816
 6092,0.01192356,0.13378272,0.00004911,0.00007273,-0.00047748,0.0011184
 5,0.00039849,0.00100210,-0.00578637,-0.00060217,-0.00236348,-0.0000776
 5,-0.00025364,0.00010256,-0.00005916,-0.00040766,-0.00002140,-0.000642
 68,-0.00045994,0.00326924,0.00062207,-0.00115762,0.00445027,0.02214221
 ,-0.01202043,0.03427591,0.00116554,0.00060403,0.00006983,-0.00000704,-
 0.00004647,0.00010376,-0.00039478,-0.00047919,0.00036394,-0.00032504,-
 0.00017781,-0.00034816,-0.00003407,-0.00003219,-0.00006341,0.00028187,
 0.00003205,0.00044417,0.00000277,-0.00000553,0.00012229,0.00004970,0.0
 0001645,0.00001989,0.00000388,0.00008638,-0.00009034,0.00014584,0.0000
 8655,0.00004739,-0.00021397,-0.00002033,-0.00024200,-0.01040196,-0.000
 67206,-0.00821502,0.00727198,0.00299607,-0.00201353,-0.00180180,-0.010
 34031,0.02127660,-0.02503080,0.01616781,-0.07796929,-0.13586689,0.0336
 2184,-0.13321984,0.00035914,-0.00031850,0.00127661,0.00058966,0.000381
 35,-0.00034085,0.00393115,0.00180129,0.00091323,-0.00475970,0.00171630
 ,-0.00697456,0.14766856,0.00029051,0.00026606,-0.00001765,0.00020141,0
 .00050904,-0.00051168,0.00425589,-0.00074034,0.00144587,-0.00070977,-0
 .00037727,-0.00034213,-0.00007799,0.00022809,-0.00003989,-0.00191119,0
 .00018065,0.00125897,-0.00142724,-0.00190019,0.00109238,-0.00623698,0.
 00219765,0.03955949,0.00035122,0.00043833,-0.00000955,-0.00002167,0.00
 006043,-0.00008140,-0.00029236,-0.00025384,-0.00000383,0.00013417,-0.0
 0014051,0.00002565,-0.00014461,-0.00009803,-0.00001070,-0.00039526,0.0
 0016540,0.00015703,-0.00002590,-0.00000673,0.00004164,-0.00005776,0.00
 006371,0.00001357,0.00005521,0.00007604,-0.00001774,0.00008333,-0.0000
 0871,-0.00003194,0.00018502,-0.00024284,-0.00015368,-0.00630176,0.0037
 6743,-0.00207614,0.00237076,-0.00053046,0.00031971,-0.00361338,0.00526
 524,0.00404791,0.00517969,0.02207366,0.00337791,0.03463964,-0.12893966
 ,0.15416595,0.00056007,-0.00050724,0.00100859,0.00026624,-0.00024300,-
 0.00026753,0.00227097,-0.00328924,0.00005192,0.00135929,-0.00105126,-0
 .00096865,-0.03098751,0.10303759,-0.00082537,-0.00012956,-0.00027729,0
 .00083885,-0.00103840,-0.00095185,-0.01377615,0.00024873,-0.00721287,0
 .00124202,0.00089097,0.00166843,0.00018910,-0.00036623,-0.00020866,0.0
 0399430,-0.00059023,0.00046222,0.00436922,0.00108203,-0.00106145,0.020
 88308,0.03723851,-0.06364927,-0.00061256,-0.00096653,0.00072910,-0.000
 03450,-0.00022220,0.00032241,0.00067127,0.00058475,0.00045913,-0.00068
 105,0.00011838,-0.00044001,0.00042404,0.00019945,-0.00001822,0.0012760
 6,-0.00021945,-0.00002449,0.00008258,0.00003880,-0.00002388,0.00012751
 ,-0.00009842,0.00007678,-0.00006552,-0.00015349,-0.00009722,0.00010350
 ,0.00007192,0.00008975,-0.00065483,0.00044290,0.00026949,0.00585442,0.
 00199743,0.00391041,-0.00057246,0.00081138,-0.00356284,0.00274757,-0.0
 0083450,0.01188292,-0.04807006,0.01121844,-0.04507170,-0.13482524,0.15
 249895,-0.60160155,-0.00120229,0.00039172,-0.00194062,0.00003662,-0.00
 024922,0.00005703,-0.00035042,-0.00028346,-0.00337939,-0.00577125,-0.0
 0064860,-0.00415192,0.16460158,-0.20203407,0.71374557\\0.00000840,0.00
 003882,0.00006468,-0.00001783,0.00001031,-0.00008506,-0.00000821,-0.00
 001386,0.00000196,0.00002993,0.00000914,0.00003303,-0.00000065,-0.0000
 0307,0.00001265,-0.00000249,-0.00001406,-0.00000950,-0.00000164,0.0000
 0162,0.00000328,0.00003127,0.00005728,-0.00002712,0.00002232,-0.000005
 94,-0.00001081,-0.00000571,-0.00001658,-0.00000742,-0.00003564,-0.0000
 1629,-0.00000824,-0.00001963,0.00000153,-0.00001099,-0.00000210,-0.000
 00477,0.00000070,0.00000577,0.00000258,0.00001420,0.00000323,-0.000005
 01,-0.00000180,0.00000481,-0.00000187,0.00000760,0.00000718,-0.0000007
 6,0.00000602,0.00000708,0.00000294,0.00000751,0.00000150,0.00000026,-0
 .00000685,-0.00000729,-0.00001715,-0.00000837,-0.00001011,-0.00000374,
 0.00001669,-0.00001919,-0.00000465,-0.00005858,0.00001241,0.00003430,0
 .00003841,-0.00002831,-0.00005429,0.00004339,0.00000347,0.00000157,0.0
 0000467,0.00000634,0.00000228,-0.00000288,0.00000209,-0.00000742,-0.00
 000350,0.00001099,0.00000208,0.00001001,0.00000200,0.00000476,-0.00002
 369\\\@
 The archive entry for this job was punched.


 BREAD HAS TO MOLD IN ORDER TO GET PENICILLIN.
          -- JERRY BOATZ
 Job cpu time:       0 days 10 hours 43 minutes 38.0 seconds.
 Elapsed time:       0 days  0 hours 16 minutes 13.9 seconds.
 File lengths (MBytes):  RWF=    632 Int=      0 D2E=      0 Chk=     21 Scr=      1
 Normal termination of Gaussian 16 at Thu Oct 17 09:29:36 2024.
