 Entering Gaussian System, Link 0=g16
 Input=UridineMSallgPBE0aVDZ.gjf
 Output=UridineMSallgPBE0aVDZ.log
 Initial command:
 /sw/contrib/chem-src/g16/c01/g16/l1.exe "/scr/Gau-48886.inp" -scrdir="/scr/"
 Entering Link 1 = /sw/contrib/chem-src/g16/c01/g16/l1.exe PID=     48887.
  
 Copyright (c) 1988-2019, Gaussian, Inc.  All Rights Reserved.
  
 This is part of the Gaussian(R) 16 program.  It is based on
 the Gaussian(R) 09 system (copyright 2009, Gaussian, Inc.),
 the Gaussian(R) 03 system (copyright 2003, Gaussian, Inc.),
 the Gaussian(R) 98 system (copyright 1998, Gaussian, Inc.),
 the Gaussian(R) 94 system (copyright 1995, Gaussian, Inc.),
 the Gaussian 92(TM) system (copyright 1992, Gaussian, Inc.),
 the Gaussian 90(TM) system (copyright 1990, Gaussian, Inc.),
 the Gaussian 88(TM) system (copyright 1988, Gaussian, Inc.),
 the Gaussian 86(TM) system (copyright 1986, Carnegie Mellon
 University), and the Gaussian 82(TM) system (copyright 1983,
 Carnegie Mellon University). Gaussian is a federally registered
 trademark of Gaussian, Inc.
  
 This software contains proprietary and confidential information,
 including trade secrets, belonging to Gaussian, Inc.
  
 This software is provided under written license and may be
 used, copied, transmitted, or stored only in accord with that
 written license.
  
 The following legend is applicable only to US Government
 contracts under FAR:
  
                    RESTRICTED RIGHTS LEGEND
  
 Use, reproduction and disclosure by the US Government is
 subject to restrictions as set forth in subparagraphs (a)
 and (c) of the Commercial Computer Software - Restricted
 Rights clause in FAR 52.227-19.
  
 Gaussian, Inc.
 340 Quinnipiac St., Bldg. 40, Wallingford CT 06492
  
  
 ---------------------------------------------------------------
 Warning -- This program may not be used in any manner that
 competes with the business of Gaussian, Inc. or will provide
 assistance to any competitor of Gaussian, Inc.  The licensee
 of this program is prohibited from giving any competitor of
 Gaussian, Inc. access to this program.  By using this program,
 the user acknowledges that Gaussian, Inc. is engaged in the
 business of creating and licensing software in the field of
 computational chemistry and represents and warrants to the
 licensee that it is not a competitor of Gaussian, Inc. and that
 it will not use this program in any manner prohibited above.
 ---------------------------------------------------------------
  

 Cite this work as:
 Gaussian 16, Revision C.01,
 M. J. Frisch, G. W. Trucks, H. B. Schlegel, G. E. Scuseria, 
 M. A. Robb, J. R. Cheeseman, G. Scalmani, V. Barone, 
 G. A. Petersson, H. Nakatsuji, X. Li, M. Caricato, A. V. Marenich, 
 J. Bloino, B. G. Janesko, R. Gomperts, B. Mennucci, H. P. Hratchian, 
 J. V. Ortiz, A. F. Izmaylov, J. L. Sonnenberg, D. Williams-Young, 
 F. Ding, F. Lipparini, F. Egidi, J. Goings, B. Peng, A. Petrone, 
 T. Henderson, D. Ranasinghe, V. G. Zakrzewski, J. Gao, N. Rega, 
 G. Zheng, W. Liang, M. Hada, M. Ehara, K. Toyota, R. Fukuda, 
 J. Hasegawa, M. Ishida, T. Nakajima, Y. Honda, O. Kitao, H. Nakai, 
 T. Vreven, K. Throssell, J. A. Montgomery, Jr., J. E. Peralta, 
 F. Ogliaro, M. J. Bearpark, J. J. Heyd, E. N. Brothers, K. N. Kudin, 
 V. N. Staroverov, T. A. Keith, R. Kobayashi, J. Normand, 
 K. Raghavachari, A. P. Rendell, J. C. Burant, S. S. Iyengar, 
 J. Tomasi, M. Cossi, J. M. Millam, M. Klene, C. Adamo, R. Cammi, 
 J. W. Ochterski, R. L. Martin, K. Morokuma, O. Farkas, 
 J. B. Foresman, and D. J. Fox, Gaussian, Inc., Wallingford CT, 2019.
 
 ******************************************
 Gaussian 16:  EM64L-G16RevC.01  3-Jul-2019
                24-Oct-2024 
 ******************************************
 %nprocshared=40
 Will use up to   40 processors via shared memory.
 %mem=50gb
 ------------------------------------------------------
 # PBE1PBE/aug-cc-pVDZ opt freq EmpiricalDispersion=GD3
 ------------------------------------------------------
 1/18=20,19=15,26=3,38=1/1,3;
 2/9=110,12=2,17=6,18=5,40=1/2;
 3/5=16,7=10,11=2,25=1,30=1,71=1,74=-13,124=31/1,2,3;
 4//1;
 5/5=2,38=5/2;
 6/7=2,8=2,9=2,10=2,28=1/1;
 7//1,2,3,16;
 1/18=20,19=15,26=3/3(2);
 2/9=110/2;
 99//99;
 2/9=110/2;
 3/5=16,7=10,11=2,25=1,30=1,71=1,74=-13,124=31/1,2,3;
 4/5=5,16=3,69=1/1;
 5/5=2,38=5/2;
 7//1,2,3,16;
 1/18=20,19=15,26=3/3(-5);
 2/9=110/2;
 6/7=2,8=2,9=2,10=2,19=2,28=1/1;
 99/9=1/99;
 ----
 blah
 ----
 Symbolic Z-matrix:
 Charge = -1 Multiplicity = 1
 C                    -2.72379  -0.53444   0.24456 
 C                    -1.33101  -0.73294   0.84779 
 C                    -0.47613  -0.71251  -0.42208 
 O                    -1.22186  -1.97487   1.5173 
 H                    -1.08602   0.11257   1.49725 
 O                    -1.05648   0.23422  -1.27211 
 H                    -0.51796  -1.72409  -0.85838 
 N                     0.9431   -0.42569  -0.2529 
 C                    -2.45412   0.40199  -0.93199 
 H                    -3.42076  -0.0864    0.96855 
 O                    -3.21639  -1.7603   -0.2618 
 C                    -2.71347   1.8665   -0.63424 
 H                    -3.05538   0.08024  -1.79492 
 O                    -2.13814   2.29233   0.57706 
 H                    -3.79919   2.01947  -0.54831 
 H                    -2.35595   2.46307  -1.49146 
 H                    -3.08687  -2.42365   0.4279 
 H                    -0.87096  -1.82894   2.39821 
 H                    -1.17677   2.17573   0.5204 
 C                     1.86897  -1.3164   -0.74935 
 C                     3.20296  -1.13434  -0.67065 
 C                     3.72344   0.06445  -0.05079 
 N                     2.71657   0.92352   0.40407 
 C                     1.35708   0.76091   0.33651 
 H                     1.43796  -2.20081  -1.21499 
 H                     3.90138  -1.86311  -1.06967 
 O                     4.87213   0.35932   0.09024 
 O                     0.59402   1.60234   0.78097 
 

 GradGradGradGradGradGradGradGradGradGradGradGradGradGradGradGradGradGrad
 Berny optimization.
 Initialization pass.
                           ----------------------------
                           !    Initial Parameters    !
                           ! (Angstroms and Degrees)  !
 --------------------------                            --------------------------
 ! Name  Definition              Value          Derivative Info.                !
 --------------------------------------------------------------------------------
 ! R1    R(1,2)                  1.5307         estimate D2E/DX2                !
 ! R2    R(1,9)                  1.5277         estimate D2E/DX2                !
 ! R3    R(1,10)                 1.1003         estimate D2E/DX2                !
 ! R4    R(1,11)                 1.4148         estimate D2E/DX2                !
 ! R5    R(2,3)                  1.5309         estimate D2E/DX2                !
 ! R6    R(2,4)                  1.4151         estimate D2E/DX2                !
 ! R7    R(2,5)                  1.0939         estimate D2E/DX2                !
 ! R8    R(3,6)                  1.3984         estimate D2E/DX2                !
 ! R9    R(3,7)                  1.1025         estimate D2E/DX2                !
 ! R10   R(3,8)                  1.4578         estimate D2E/DX2                !
 ! R11   R(4,18)                 0.9594         estimate D2E/DX2                !
 ! R12   R(6,9)                  1.4482         estimate D2E/DX2                !
 ! R13   R(8,20)                 1.3773         estimate D2E/DX2                !
 ! R14   R(8,24)                 1.3881         estimate D2E/DX2                !
 ! R15   R(9,12)                 1.5168         estimate D2E/DX2                !
 ! R16   R(9,13)                 1.0998         estimate D2E/DX2                !
 ! R17   R(11,17)                0.9657         estimate D2E/DX2                !
 ! R18   R(12,14)                1.407          estimate D2E/DX2                !
 ! R19   R(12,15)                1.0998         estimate D2E/DX2                !
 ! R20   R(12,16)                1.1039         estimate D2E/DX2                !
 ! R21   R(14,19)                0.9701         estimate D2E/DX2                !
 ! R22   R(20,21)                1.3487         estimate D2E/DX2                !
 ! R23   R(20,25)                1.0885         estimate D2E/DX2                !
 ! R24   R(21,22)                1.4464         estimate D2E/DX2                !
 ! R25   R(21,26)                1.0854         estimate D2E/DX2                !
 ! R26   R(22,23)                1.3995         estimate D2E/DX2                !
 ! R27   R(22,27)                1.1943         estimate D2E/DX2                !
 ! R28   R(23,24)                1.3709         estimate D2E/DX2                !
 ! R29   R(24,28)                1.2198         estimate D2E/DX2                !
 ! A1    A(2,1,9)              102.8488         estimate D2E/DX2                !
 ! A2    A(2,1,10)             111.7066         estimate D2E/DX2                !
 ! A3    A(2,1,11)             110.2103         estimate D2E/DX2                !
 ! A4    A(9,1,10)             111.652          estimate D2E/DX2                !
 ! A5    A(9,1,11)             108.4769         estimate D2E/DX2                !
 ! A6    A(10,1,11)            111.5767         estimate D2E/DX2                !
 ! A7    A(1,2,3)              100.3391         estimate D2E/DX2                !
 ! A8    A(1,2,4)              111.7427         estimate D2E/DX2                !
 ! A9    A(1,2,5)              109.7247         estimate D2E/DX2                !
 ! A10   A(3,2,4)              111.1659         estimate D2E/DX2                !
 ! A11   A(3,2,5)              110.9206         estimate D2E/DX2                !
 ! A12   A(4,2,5)              112.3433         estimate D2E/DX2                !
 ! A13   A(2,3,6)              106.3483         estimate D2E/DX2                !
 ! A14   A(2,3,7)              107.1474         estimate D2E/DX2                !
 ! A15   A(2,3,8)              116.7439         estimate D2E/DX2                !
 ! A16   A(6,3,7)              111.4002         estimate D2E/DX2                !
 ! A17   A(6,3,8)              109.9603         estimate D2E/DX2                !
 ! A18   A(7,3,8)              105.2723         estimate D2E/DX2                !
 ! A19   A(2,4,18)             109.2159         estimate D2E/DX2                !
 ! A20   A(3,6,9)              109.645          estimate D2E/DX2                !
 ! A21   A(3,8,20)             119.0368         estimate D2E/DX2                !
 ! A22   A(3,8,24)             120.5193         estimate D2E/DX2                !
 ! A23   A(20,8,24)            120.3569         estimate D2E/DX2                !
 ! A24   A(1,9,6)              106.2732         estimate D2E/DX2                !
 ! A25   A(1,9,12)             114.2343         estimate D2E/DX2                !
 ! A26   A(1,9,13)             109.1738         estimate D2E/DX2                !
 ! A27   A(6,9,12)             108.8426         estimate D2E/DX2                !
 ! A28   A(6,9,13)             108.0253         estimate D2E/DX2                !
 ! A29   A(12,9,13)            110.0593         estimate D2E/DX2                !
 ! A30   A(1,11,17)            107.0302         estimate D2E/DX2                !
 ! A31   A(9,12,14)            113.0359         estimate D2E/DX2                !
 ! A32   A(9,12,15)            108.5674         estimate D2E/DX2                !
 ! A33   A(9,12,16)            108.2999         estimate D2E/DX2                !
 ! A34   A(14,12,15)           107.1162         estimate D2E/DX2                !
 ! A35   A(14,12,16)           111.873          estimate D2E/DX2                !
 ! A36   A(15,12,16)           107.772          estimate D2E/DX2                !
 ! A37   A(12,14,19)           108.5773         estimate D2E/DX2                !
 ! A38   A(8,20,21)            123.8191         estimate D2E/DX2                !
 ! A39   A(8,20,25)            114.4229         estimate D2E/DX2                !
 ! A40   A(21,20,25)           121.7571         estimate D2E/DX2                !
 ! A41   A(20,21,22)           119.5254         estimate D2E/DX2                !
 ! A42   A(20,21,26)           121.6262         estimate D2E/DX2                !
 ! A43   A(22,21,26)           118.8463         estimate D2E/DX2                !
 ! A44   A(21,22,23)           112.9006         estimate D2E/DX2                !
 ! A45   A(21,22,27)           126.9651         estimate D2E/DX2                !
 ! A46   A(23,22,27)           120.1341         estimate D2E/DX2                !
 ! A47   A(22,23,24)           128.6556         estimate D2E/DX2                !
 ! A48   A(8,24,23)            114.7148         estimate D2E/DX2                !
 ! A49   A(8,24,28)            123.9072         estimate D2E/DX2                !
 ! A50   A(23,24,28)           121.3731         estimate D2E/DX2                !
 ! D1    D(9,1,2,3)            -35.0219         estimate D2E/DX2                !
 ! D2    D(9,1,2,4)           -152.9198         estimate D2E/DX2                !
 ! D3    D(9,1,2,5)             81.7861         estimate D2E/DX2                !
 ! D4    D(10,1,2,3)          -154.898          estimate D2E/DX2                !
 ! D5    D(10,1,2,4)            87.204          estimate D2E/DX2                !
 ! D6    D(10,1,2,5)           -38.09           estimate D2E/DX2                !
 ! D7    D(11,1,2,3)            80.4683         estimate D2E/DX2                !
 ! D8    D(11,1,2,4)           -37.4297         estimate D2E/DX2                !
 ! D9    D(11,1,2,5)          -162.7237         estimate D2E/DX2                !
 ! D10   D(2,1,9,6)             22.7777         estimate D2E/DX2                !
 ! D11   D(2,1,9,12)           -97.2465         estimate D2E/DX2                !
 ! D12   D(2,1,9,13)           139.0597         estimate D2E/DX2                !
 ! D13   D(10,1,9,6)           142.6916         estimate D2E/DX2                !
 ! D14   D(10,1,9,12)           22.6674         estimate D2E/DX2                !
 ! D15   D(10,1,9,13)         -101.0265         estimate D2E/DX2                !
 ! D16   D(11,1,9,6)           -93.954          estimate D2E/DX2                !
 ! D17   D(11,1,9,12)          146.0218         estimate D2E/DX2                !
 ! D18   D(11,1,9,13)           22.3279         estimate D2E/DX2                !
 ! D19   D(2,1,11,17)           48.5675         estimate D2E/DX2                !
 ! D20   D(9,1,11,17)          160.4596         estimate D2E/DX2                !
 ! D21   D(10,1,11,17)         -76.1407         estimate D2E/DX2                !
 ! D22   D(1,2,3,6)             36.8438         estimate D2E/DX2                !
 ! D23   D(1,2,3,7)            -82.3949         estimate D2E/DX2                !
 ! D24   D(1,2,3,8)            159.9493         estimate D2E/DX2                !
 ! D25   D(4,2,3,6)            155.1661         estimate D2E/DX2                !
 ! D26   D(4,2,3,7)             35.9274         estimate D2E/DX2                !
 ! D27   D(4,2,3,8)            -81.7284         estimate D2E/DX2                !
 ! D28   D(5,2,3,6)            -79.0704         estimate D2E/DX2                !
 ! D29   D(5,2,3,7)            161.6908         estimate D2E/DX2                !
 ! D30   D(5,2,3,8)             44.035          estimate D2E/DX2                !
 ! D31   D(1,2,4,18)          -129.0844         estimate D2E/DX2                !
 ! D32   D(3,2,4,18)           119.7162         estimate D2E/DX2                !
 ! D33   D(5,2,4,18)            -5.2523         estimate D2E/DX2                !
 ! D34   D(2,3,6,9)            -23.8092         estimate D2E/DX2                !
 ! D35   D(7,3,6,9)             92.6118         estimate D2E/DX2                !
 ! D36   D(8,3,6,9)           -151.072          estimate D2E/DX2                !
 ! D37   D(2,3,8,20)           124.951          estimate D2E/DX2                !
 ! D38   D(2,3,8,24)           -58.4281         estimate D2E/DX2                !
 ! D39   D(6,3,8,20)          -113.8275         estimate D2E/DX2                !
 ! D40   D(6,3,8,24)            62.7934         estimate D2E/DX2                !
 ! D41   D(7,3,8,20)             6.277          estimate D2E/DX2                !
 ! D42   D(7,3,8,24)          -177.1021         estimate D2E/DX2                !
 ! D43   D(3,6,9,1)              0.4015         estimate D2E/DX2                !
 ! D44   D(3,6,9,12)           123.8668         estimate D2E/DX2                !
 ! D45   D(3,6,9,13)          -116.65           estimate D2E/DX2                !
 ! D46   D(3,8,20,21)          178.6172         estimate D2E/DX2                !
 ! D47   D(3,8,20,25)           -1.7443         estimate D2E/DX2                !
 ! D48   D(24,8,20,21)           1.9906         estimate D2E/DX2                !
 ! D49   D(24,8,20,25)        -178.3709         estimate D2E/DX2                !
 ! D50   D(3,8,24,23)         -178.3643         estimate D2E/DX2                !
 ! D51   D(3,8,24,28)            2.4348         estimate D2E/DX2                !
 ! D52   D(20,8,24,23)          -1.7881         estimate D2E/DX2                !
 ! D53   D(20,8,24,28)         179.011          estimate D2E/DX2                !
 ! D54   D(1,9,12,14)           47.5902         estimate D2E/DX2                !
 ! D55   D(1,9,12,15)          -71.1085         estimate D2E/DX2                !
 ! D56   D(1,9,12,16)          172.133          estimate D2E/DX2                !
 ! D57   D(6,9,12,14)          -70.9851         estimate D2E/DX2                !
 ! D58   D(6,9,12,15)          170.3162         estimate D2E/DX2                !
 ! D59   D(6,9,12,16)           53.5577         estimate D2E/DX2                !
 ! D60   D(13,9,12,14)         170.8064         estimate D2E/DX2                !
 ! D61   D(13,9,12,15)          52.1077         estimate D2E/DX2                !
 ! D62   D(13,9,12,16)         -64.6508         estimate D2E/DX2                !
 ! D63   D(9,12,14,19)          61.0955         estimate D2E/DX2                !
 ! D64   D(15,12,14,19)       -179.3672         estimate D2E/DX2                !
 ! D65   D(16,12,14,19)        -61.4771         estimate D2E/DX2                !
 ! D66   D(8,20,21,22)          -0.8764         estimate D2E/DX2                !
 ! D67   D(8,20,21,26)         179.6574         estimate D2E/DX2                !
 ! D68   D(25,20,21,22)        179.5107         estimate D2E/DX2                !
 ! D69   D(25,20,21,26)          0.0446         estimate D2E/DX2                !
 ! D70   D(20,21,22,23)         -0.2482         estimate D2E/DX2                !
 ! D71   D(20,21,22,27)        179.9405         estimate D2E/DX2                !
 ! D72   D(26,21,22,23)        179.2328         estimate D2E/DX2                !
 ! D73   D(26,21,22,27)         -0.5785         estimate D2E/DX2                !
 ! D74   D(21,22,23,24)          0.3112         estimate D2E/DX2                !
 ! D75   D(27,22,23,24)       -179.8632         estimate D2E/DX2                !
 ! D76   D(22,23,24,8)           0.6983         estimate D2E/DX2                !
 ! D77   D(22,23,24,28)        179.9214         estimate D2E/DX2                !
 --------------------------------------------------------------------------------
 Trust Radius=3.00D-01 FncErr=1.00D-07 GrdErr=1.00D-06 EigMax=2.50D+02 EigMin=1.00D-04
 Number of steps in this run=    166 maximum allowed number of steps=    168.
 GradGradGradGradGradGradGradGradGradGradGradGradGradGradGradGradGradGrad

                          Input orientation:                          
 ---------------------------------------------------------------------
 Center     Atomic      Atomic             Coordinates (Angstroms)
 Number     Number       Type             X           Y           Z
 ---------------------------------------------------------------------
      1          6           0       -2.723786   -0.534437    0.244558
      2          6           0       -1.331013   -0.732940    0.847786
      3          6           0       -0.476127   -0.712509   -0.422078
      4          8           0       -1.221857   -1.974871    1.517297
      5          1           0       -1.086023    0.112572    1.497249
      6          8           0       -1.056484    0.234216   -1.272106
      7          1           0       -0.517958   -1.724091   -0.858380
      8          7           0        0.943096   -0.425685   -0.252900
      9          6           0       -2.454123    0.401986   -0.931990
     10          1           0       -3.420761   -0.086403    0.968553
     11          8           0       -3.216388   -1.760302   -0.261795
     12          6           0       -2.713466    1.866497   -0.634241
     13          1           0       -3.055378    0.080242   -1.794916
     14          8           0       -2.138137    2.292331    0.577056
     15          1           0       -3.799190    2.019467   -0.548307
     16          1           0       -2.355954    2.463073   -1.491461
     17          1           0       -3.086869   -2.423647    0.427900
     18          1           0       -0.870961   -1.828935    2.398211
     19          1           0       -1.176774    2.175728    0.520401
     20          6           0        1.868966   -1.316400   -0.749350
     21          6           0        3.202958   -1.134340   -0.670646
     22          6           0        3.723439    0.064447   -0.050793
     23          7           0        2.716573    0.923520    0.404073
     24          6           0        1.357080    0.760905    0.336509
     25          1           0        1.437961   -2.200810   -1.214988
     26          1           0        3.901378   -1.863109   -1.069665
     27          8           0        4.872130    0.359319    0.090241
     28          8           0        0.594019    1.602340    0.780974
 ---------------------------------------------------------------------
                    Distance matrix (angstroms):
                    1          2          3          4          5
     1  C    0.000000
     2  C    1.530720   0.000000
     3  C    2.351188   1.530948   0.000000
     4  O    2.439366   1.415116   2.431223   0.000000
     5  H    2.161047   1.093944   2.176361   2.091954   0.000000
     6  O    2.381385   2.346209   1.398446   3.562048   2.772183
     7  H    2.738143   2.134114   1.102455   2.490423   3.040562
     8  N    3.702069   2.545091   1.457766   3.196967   2.733142
     9  C    1.527701   2.391032   2.326924   3.628627   2.802973
    10  H    1.100308   2.190808   3.316132   2.950019   2.402106
    11  O    1.414848   2.416874   2.938127   2.681299   3.337716
    12  C    2.556732   3.296157   3.420814   4.648669   3.204383
    13  H    2.155745   3.258615   3.027486   4.307673   3.836373
    14  O    2.905883   3.142771   3.576256   4.464598   2.589411
    15  H    2.882283   3.951799   4.303763   5.183059   3.896386
    16  H    3.483408   4.091098   3.842089   5.480342   4.008736
    17  H    1.932500   2.473424   3.235186   2.206004   3.402837
    18  H    3.122004   1.953630   3.058812   0.959393   2.151147
    19  H    3.132783   2.931095   3.117866   4.268876   2.284531
    20  C    4.763685   3.623691   2.443615   3.889018   3.977578
    21  C    6.026921   4.798297   3.711522   5.007252   4.964868
    22  C    6.481713   5.195263   4.286942   5.574377   5.052690
    23  N    5.634589   4.395872   3.681365   5.015094   4.038862
    24  C    4.282503   3.117502   2.471245   3.940767   2.781439
    25  H    4.714574   3.751919   2.550976   3.819825   4.367890
    26  H    6.883702   5.686107   4.572286   5.740418   5.946977
    27  O    7.649873   6.343965   5.478607   6.679941   6.127001
    28  O    3.982636   3.027168   2.819765   4.078727   2.356905
                    6          7          8          9         10
     6  O    0.000000
     7  H    2.072715   0.000000
     8  N    2.339353   2.046251   0.000000
     9  C    1.448178   2.876518   3.561924   0.000000
    10  H    3.273096   3.800786   4.544261   2.187459   0.000000
    11  O    3.108700   2.763829   4.368362   2.388660   2.087454
    12  C    2.411805   4.214596   4.332432   1.516808   2.623554
    13  H    2.071863   3.251341   4.315272   1.099849   2.792496
    14  O    2.970726   4.562576   4.191710   2.439359   2.730709
    15  H    3.351633   4.987670   5.343717   2.138379   2.622739
    16  H    2.589313   4.616423   4.556609   2.137925   3.699366
    17  H    3.751895   2.956890   4.549281   3.199042   2.422086
    18  H    4.214527   3.277345   3.505468   4.309716   3.403207
    19  H    2.645188   4.188516   3.443718   2.624351   3.217694
    20  C    3.352006   2.423944   1.377342   4.655675   5.696077
    21  C    4.514150   3.772037   2.404928   5.867807   6.903535
    22  C    4.936405   4.673384   2.830439   6.249217   7.218131
    23  N    4.185771   4.366443   2.323185   5.365926   6.245434
    24  C    2.947937   3.334476   1.388086   4.032763   4.893381
    25  H    3.486384   2.044517   2.078839   4.690731   5.731121
    26  H    5.387035   4.426567   3.388912   6.748482   7.805430
    27  O    6.084415   5.856068   4.021354   7.397348   8.351176
    28  O    2.968343   3.871578   2.302962   3.696791   4.359529
                   11         12         13         14         15
    11  O    0.000000
    12  C    3.680396   0.000000
    13  H    2.400830   2.157493   0.000000
    14  O    4.276696   1.406975   3.370596   0.000000
    15  H    3.835153   1.099810   2.422372   2.024844   0.000000
    16  H    4.482111   1.103877   2.501832   2.086950   1.780240
    17  H    0.965651   4.435415   3.348337   4.812773   4.604524
    18  H    3.547023   5.123164   5.098916   4.680510   5.662746
    19  H    4.501576   1.946855   3.644298   0.970064   2.836128
    20  C    5.127922   5.580570   5.224268   5.553302   6.580001
    21  C    6.462739   6.634035   6.473481   6.467312   7.680595
    22  C    7.178818   6.709809   6.999612   6.302042   7.788425
    23  N    6.545709   5.608264   6.233946   5.046957   6.675575
    24  C    5.256526   4.328283   4.947329   3.823568   5.380892
    25  H    4.771330   5.840770   5.072436   6.015664   6.758916
    26  H    7.164204   7.606295   7.259412   7.513662   8.639731
    27  O    8.369041   7.767736   8.153348   7.288166   8.851871
    28  O    5.187864   3.607225   4.719120   2.825305   4.608825
                   16         17         18         19         20
    16  H    0.000000
    17  H    5.300775   0.000000
    18  H    5.979639   3.024245   0.000000
    19  H    2.349600   4.981091   4.433624   0.000000
    20  C    5.717088   5.212697   4.204406   4.804556   0.000000
    21  C    6.672078   6.513911   5.147539   5.617579   1.348657
    22  C    6.692380   7.266365   5.539948   5.366177   2.415324
    23  N    5.629725   6.699555   4.941963   4.091419   2.658207
    24  C    4.474983   5.467944   3.990245   2.907913   2.399232
    25  H    6.018474   4.819007   4.304024   5.385397   1.088469
    26  H    7.618922   7.168856   5.899369   6.680430   2.128894
    27  O    7.692383   8.438281   6.564928   6.330373   3.540048
    28  O    3.821932   5.466459   4.066358   1.879463   3.533614
                   21         22         23         24         25
    21  C    0.000000
    22  C    1.446447   0.000000
    23  N    2.371999   1.399532   0.000000
    24  C    2.830827   2.496940   1.370850   0.000000
    25  H    2.132811   3.422009   3.744015   3.344464   0.000000
    26  H    1.085408   2.187518   3.367635   3.916150   2.490700
    27  O    2.365608   1.194291   2.250164   3.546477   4.477879
    28  O    4.050084   3.584720   2.260108   1.219764   4.377220
                   26         27         28
    26  H    0.000000
    27  O    2.688295   0.000000
    28  O    5.135448   4.508264   0.000000
 Stoichiometry    C9H11N2O6(1-)
 Framework group  C1[X(C9H11N2O6)]
 Deg. of freedom    78
 Full point group                 C1      NOp   1
 Largest Abelian subgroup         C1      NOp   1
 Largest concise Abelian subgroup C1      NOp   1
                         Standard orientation:                         
 ---------------------------------------------------------------------
 Center     Atomic      Atomic             Coordinates (Angstroms)
 Number     Number       Type             X           Y           Z
 ---------------------------------------------------------------------
      1          6           0       -2.695711   -0.549202    0.235103
      2          6           0       -1.303282   -0.741116    0.841251
      3          6           0       -0.444024   -0.697990   -0.425089
      4          8           0       -1.184536   -1.989475    1.497034
      5          1           0       -1.068856    0.099274    1.501178
      6          8           0       -1.030430    0.252706   -1.266489
      7          1           0       -0.474468   -1.704898   -0.872992
      8          7           0        0.971730   -0.399435   -0.247354
      9          6           0       -2.430856    0.403107   -0.929728
     10          1           0       -3.399620   -0.116180    0.961519
     11          8           0       -3.174571   -1.773920   -0.286966
     12          6           0       -2.705454    1.861565   -0.616357
     13          1           0       -3.025825    0.085420   -1.798494
     14          8           0       -2.138684    2.279115    0.601839
     15          1           0       -3.792914    2.003069   -0.532760
     16          1           0       -2.350623    2.471278   -1.465409
     17          1           0       -3.041141   -2.443791    0.395639
     18          1           0       -0.838274   -1.850196    2.380855
     19          1           0       -1.176037    2.172442    0.547466
     20          6           0        1.907983   -1.275472   -0.750406
     21          6           0        3.239854   -1.081462   -0.664646
     22          6           0        3.746442    0.115158   -0.029288
     23          7           0        2.729655    0.959248    0.431521
     24          6           0        1.372055    0.784308    0.357025
     25          1           0        1.487261   -2.158641   -1.227658
     26          1           0        3.946747   -1.798872   -1.069289
     27          8           0        4.891702    0.419471    0.119383
     28          8           0        0.599269    1.613231    0.808147
 ---------------------------------------------------------------------
 Rotational constants (GHZ):           0.9460981           0.3116894           0.2697624
 Standard basis: Aug-CC-pVDZ (5D, 7F)
 There are   524 symmetry adapted cartesian basis functions of A   symmetry.
 There are   490 symmetry adapted basis functions of A   symmetry.
   490 basis functions,   852 primitive gaussians,   524 cartesian basis functions
    64 alpha electrons       64 beta electrons
       nuclear repulsion energy      1318.5195848806 Hartrees.
 NAtoms=   28 NActive=   28 NUniq=   28 SFac= 1.00D+00 NAtFMM=   60 NAOKFM=F Big=F
 Integral buffers will be    131072 words long.
 Raffenetti 2 integral format.
 Two-electron integral symmetry is turned on.
 Nuclear repulsion after empirical dispersion term =     1318.4998512267 Hartrees.
 One-electron integrals computed using PRISM.
 NBasis=   490 RedAO= T EigKep=  3.25D-06  NBF=   490
 NBsUse=   490 1.00D-06 EigRej= -1.00D+00 NBFU=   490
 ExpMin= 2.97D-02 ExpMax= 1.17D+04 ExpMxC= 4.01D+02 IAcc=3 IRadAn=         5 AccDes= 0.00D+00
 Harris functional with IExCor= 1009 and IRadAn=       5 diagonalized for initial guess.
 HarFok:  IExCor= 1009 AccDes= 0.00D+00 IRadAn=         5 IDoV= 1 UseB2=F ITyADJ=14
 ICtDFT=  3500011 ScaDFX=  1.000000  1.000000  1.000000  1.000000
 FoFCou: FMM=F IPFlag=           0 FMFlag=      100000 FMFlg1=           0
         NFxFlg=           0 DoJE=T BraDBF=F KetDBF=T FulRan=T
         wScrn=  0.000000 ICntrl=       500 IOpCl=  0 I1Cent=   200000004 NGrid=           0
         NMat0=    1 NMatS0=      1 NMatT0=    0 NMatD0=    1 NMtDS0=    0 NMtDT0=    0
 Petite list used in FoFCou.
 Requested convergence on RMS density matrix=1.00D-08 within 128 cycles.
 Requested convergence on MAX density matrix=1.00D-06.
 Requested convergence on             energy=1.00D-06.
 No special actions if energy rises.
 EnCoef did     2 forward-backward iterations
 SCF Done:  E(RPBE1PBE) =  -909.655483398     A.U. after   16 cycles
            NFock= 16  Conv=0.85D-08     -V/T= 2.0051

 **********************************************************************

            Population analysis using the SCF Density.

 **********************************************************************

 Orbital symmetries:
       Occupied  (A) (A) (A) (A) (A) (A) (A) (A) (A) (A) (A) (A)
                 (A) (A) (A) (A) (A) (A) (A) (A) (A) (A) (A) (A)
                 (A) (A) (A) (A) (A) (A) (A) (A) (A) (A) (A) (A)
                 (A) (A) (A) (A) (A) (A) (A) (A) (A) (A) (A) (A)
                 (A) (A) (A) (A) (A) (A) (A) (A) (A) (A) (A) (A)
                 (A) (A) (A) (A)
       Virtual   (A) (A) (A) (A) (A) (A) (A) (A) (A) (A) (A) (A)
                 (A) (A) (A) (A) (A) (A) (A) (A) (A) (A) (A) (A)
                 (A) (A) (A) (A) (A) (A) (A) (A) (A) (A) (A) (A)
                 (A) (A) (A) (A) (A) (A) (A) (A) (A) (A) (A) (A)
                 (A) (A) (A) (A) (A) (A) (A) (A) (A) (A) (A) (A)
                 (A) (A) (A) (A) (A) (A) (A) (A) (A) (A) (A) (A)
                 (A) (A) (A) (A) (A) (A) (A) (A) (A) (A) (A) (A)
                 (A) (A) (A) (A) (A) (A) (A) (A) (A) (A) (A) (A)
                 (A) (A) (A) (A) (A) (A) (A) (A) (A) (A) (A) (A)
                 (A) (A) (A) (A) (A) (A) (A) (A) (A) (A) (A) (A)
                 (A) (A) (A) (A) (A) (A) (A) (A) (A) (A) (A) (A)
                 (A) (A) (A) (A) (A) (A) (A) (A) (A) (A) (A) (A)
                 (A) (A) (A) (A) (A) (A) (A) (A) (A) (A) (A) (A)
                 (A) (A) (A) (A) (A) (A) (A) (A) (A) (A) (A) (A)
                 (A) (A) (A) (A) (A) (A) (A) (A) (A) (A) (A) (A)
                 (A) (A) (A) (A) (A) (A) (A) (A) (A) (A) (A) (A)
                 (A) (A) (A) (A) (A) (A) (A) (A) (A) (A) (A) (A)
                 (A) (A) (A) (A) (A) (A) (A) (A) (A) (A) (A) (A)
                 (A) (A) (A) (A) (A) (A) (A) (A) (A) (A) (A) (A)
                 (A) (A) (A) (A) (A) (A) (A) (A) (A) (A) (A) (A)
                 (A) (A) (A) (A) (A) (A) (A) (A) (A) (A) (A) (A)
                 (A) (A) (A) (A) (A) (A) (A) (A) (A) (A) (A) (A)
                 (A) (A) (A) (A) (A) (A) (A) (A) (A) (A) (A) (A)
                 (A) (A) (A) (A) (A) (A) (A) (A) (A) (A) (A) (A)
                 (A) (A) (A) (A) (A) (A) (A) (A) (A) (A) (A) (A)
                 (A) (A) (A) (A) (A) (A) (A) (A) (A) (A) (A) (A)
                 (A) (A) (A) (A) (A) (A) (A) (A) (A) (A) (A) (A)
                 (A) (A) (A) (A) (A) (A) (A) (A) (A) (A) (A) (A)
                 (A) (A) (A) (A) (A) (A) (A) (A) (A) (A) (A) (A)
                 (A) (A) (A) (A) (A) (A) (A) (A) (A) (A) (A) (A)
                 (A) (A) (A) (A) (A) (A) (A) (A) (A) (A) (A) (A)
                 (A) (A) (A) (A) (A) (A) (A) (A) (A) (A) (A) (A)
                 (A) (A) (A) (A) (A) (A) (A) (A) (A) (A) (A) (A)
                 (A) (A) (A) (A) (A) (A) (A) (A) (A) (A) (A) (A)
                 (A) (A) (A) (A) (A) (A) (A) (A) (A) (A) (A) (A)
                 (A) (A) (A) (A) (A) (A)
 The electronic state is 1-A.
 Alpha  occ. eigenvalues --  -19.15726 -19.14247 -19.13339 -19.10486 -19.03733
 Alpha  occ. eigenvalues --  -19.01708 -14.31852 -14.19103 -10.21420 -10.19655
 Alpha  occ. eigenvalues --  -10.19431 -10.18940 -10.18924 -10.17868 -10.15828
 Alpha  occ. eigenvalues --  -10.15614 -10.09444  -1.00700  -0.98212  -0.96689
 Alpha  occ. eigenvalues --   -0.93957  -0.93514  -0.90623  -0.85784  -0.73431
 Alpha  occ. eigenvalues --   -0.70818  -0.68225  -0.65819  -0.59187  -0.55066
 Alpha  occ. eigenvalues --   -0.53642  -0.51434  -0.48019  -0.47117  -0.44000
 Alpha  occ. eigenvalues --   -0.43768  -0.41095  -0.40734  -0.40521  -0.37955
 Alpha  occ. eigenvalues --   -0.36971  -0.34441  -0.33620  -0.32633  -0.32194
 Alpha  occ. eigenvalues --   -0.31366  -0.30497  -0.30088  -0.29063  -0.27777
 Alpha  occ. eigenvalues --   -0.27076  -0.25838  -0.24873  -0.24365  -0.22460
 Alpha  occ. eigenvalues --   -0.21607  -0.20308  -0.18726  -0.17157  -0.14367
 Alpha  occ. eigenvalues --   -0.10877  -0.10643  -0.08648  -0.08517
 Alpha virt. eigenvalues --    0.06902   0.08145   0.08952   0.09666   0.10281
 Alpha virt. eigenvalues --    0.11319   0.11821   0.11876   0.12209   0.13387
 Alpha virt. eigenvalues --    0.14337   0.15035   0.15172   0.15727   0.16078
 Alpha virt. eigenvalues --    0.16370   0.16826   0.17091   0.17328   0.17483
 Alpha virt. eigenvalues --    0.18268   0.18389   0.19258   0.19482   0.19635
 Alpha virt. eigenvalues --    0.19789   0.20387   0.20719   0.20978   0.21357
 Alpha virt. eigenvalues --    0.21893   0.22051   0.22246   0.23018   0.23393
 Alpha virt. eigenvalues --    0.23765   0.24182   0.24389   0.24891   0.25315
 Alpha virt. eigenvalues --    0.25390   0.26032   0.26403   0.26853   0.27355
 Alpha virt. eigenvalues --    0.27617   0.28437   0.28907   0.29203   0.29677
 Alpha virt. eigenvalues --    0.30216   0.30865   0.31798   0.31888   0.32233
 Alpha virt. eigenvalues --    0.32751   0.33253   0.33488   0.34122   0.34425
 Alpha virt. eigenvalues --    0.34980   0.35212   0.35522   0.35667   0.36179
 Alpha virt. eigenvalues --    0.36299   0.36440   0.37130   0.37278   0.37527
 Alpha virt. eigenvalues --    0.37877   0.38126   0.38394   0.38938   0.39081
 Alpha virt. eigenvalues --    0.39511   0.40268   0.40573   0.40755   0.41195
 Alpha virt. eigenvalues --    0.41472   0.41995   0.42259   0.42467   0.42945
 Alpha virt. eigenvalues --    0.43116   0.43690   0.44113   0.44154   0.44698
 Alpha virt. eigenvalues --    0.45221   0.45507   0.45970   0.47119   0.47240
 Alpha virt. eigenvalues --    0.47985   0.48162   0.48709   0.48848   0.50032
 Alpha virt. eigenvalues --    0.50158   0.50706   0.50863   0.51371   0.51924
 Alpha virt. eigenvalues --    0.52148   0.52374   0.53075   0.54198   0.54570
 Alpha virt. eigenvalues --    0.55000   0.55803   0.56596   0.56806   0.57245
 Alpha virt. eigenvalues --    0.57515   0.58473   0.58710   0.59011   0.59385
 Alpha virt. eigenvalues --    0.60209   0.60762   0.61404   0.61665   0.62496
 Alpha virt. eigenvalues --    0.62664   0.63561   0.64133   0.64728   0.65247
 Alpha virt. eigenvalues --    0.65945   0.66319   0.66972   0.67338   0.68498
 Alpha virt. eigenvalues --    0.68589   0.69425   0.70091   0.70663   0.70885
 Alpha virt. eigenvalues --    0.71318   0.72221   0.72633   0.73205   0.74222
 Alpha virt. eigenvalues --    0.74781   0.75287   0.75720   0.76255   0.76744
 Alpha virt. eigenvalues --    0.77174   0.78036   0.78155   0.78420   0.79020
 Alpha virt. eigenvalues --    0.79494   0.80163   0.80617   0.80952   0.81471
 Alpha virt. eigenvalues --    0.82092   0.82660   0.83046   0.83324   0.83649
 Alpha virt. eigenvalues --    0.84129   0.85263   0.85837   0.85971   0.86919
 Alpha virt. eigenvalues --    0.87547   0.88226   0.89201   0.89591   0.89995
 Alpha virt. eigenvalues --    0.91045   0.91840   0.91921   0.92184   0.93658
 Alpha virt. eigenvalues --    0.94109   0.94743   0.95252   0.95873   0.96708
 Alpha virt. eigenvalues --    0.97374   0.97411   0.98417   0.98631   0.99557
 Alpha virt. eigenvalues --    1.00526   1.01552   1.02542   1.03222   1.03981
 Alpha virt. eigenvalues --    1.05691   1.05825   1.06547   1.07342   1.08889
 Alpha virt. eigenvalues --    1.09581   1.10281   1.10877   1.12055   1.12592
 Alpha virt. eigenvalues --    1.13194   1.13675   1.14824   1.16481   1.16838
 Alpha virt. eigenvalues --    1.17410   1.18165   1.18409   1.19885   1.20437
 Alpha virt. eigenvalues --    1.21866   1.22550   1.23578   1.24942   1.25553
 Alpha virt. eigenvalues --    1.25816   1.26737   1.28081   1.29479   1.30224
 Alpha virt. eigenvalues --    1.30741   1.31507   1.32315   1.33449   1.33919
 Alpha virt. eigenvalues --    1.34209   1.36088   1.36318   1.37309   1.38362
 Alpha virt. eigenvalues --    1.38624   1.39231   1.41829   1.43266   1.43971
 Alpha virt. eigenvalues --    1.44325   1.45622   1.46711   1.48769   1.48924
 Alpha virt. eigenvalues --    1.49604   1.51182   1.51763   1.53114   1.54355
 Alpha virt. eigenvalues --    1.54861   1.55303   1.55586   1.56989   1.57622
 Alpha virt. eigenvalues --    1.58613   1.60765   1.61182   1.61702   1.62903
 Alpha virt. eigenvalues --    1.63319   1.64315   1.65088   1.67066   1.67792
 Alpha virt. eigenvalues --    1.68047   1.68982   1.69464   1.71792   1.72132
 Alpha virt. eigenvalues --    1.72819   1.73580   1.74386   1.75657   1.76599
 Alpha virt. eigenvalues --    1.78020   1.79580   1.81297   1.82215   1.83019
 Alpha virt. eigenvalues --    1.84641   1.85101   1.85499   1.86787   1.87386
 Alpha virt. eigenvalues --    1.87900   1.88917   1.89774   1.90574   1.90942
 Alpha virt. eigenvalues --    1.91589   1.92146   1.93436   1.94608   1.96675
 Alpha virt. eigenvalues --    1.96792   1.97445   1.98450   1.99176   2.00404
 Alpha virt. eigenvalues --    2.01898   2.02295   2.02689   2.03547   2.05126
 Alpha virt. eigenvalues --    2.06095   2.06865   2.07918   2.09945   2.10575
 Alpha virt. eigenvalues --    2.11659   2.12811   2.14426   2.14743   2.15367
 Alpha virt. eigenvalues --    2.16335   2.17241   2.18750   2.20795   2.22047
 Alpha virt. eigenvalues --    2.23571   2.24064   2.24341   2.25425   2.26799
 Alpha virt. eigenvalues --    2.28460   2.29405   2.30481   2.32950   2.33483
 Alpha virt. eigenvalues --    2.34869   2.37050   2.38069   2.38930   2.39713
 Alpha virt. eigenvalues --    2.40322   2.42353   2.42798   2.45211   2.46716
 Alpha virt. eigenvalues --    2.48316   2.49004   2.51062   2.51450   2.51732
 Alpha virt. eigenvalues --    2.52519   2.54058   2.57497   2.58816   2.59915
 Alpha virt. eigenvalues --    2.62101   2.62142   2.63936   2.64965   2.67266
 Alpha virt. eigenvalues --    2.68028   2.68998   2.70985   2.72342   2.73149
 Alpha virt. eigenvalues --    2.73638   2.74857   2.76933   2.77665   2.79597
 Alpha virt. eigenvalues --    2.82793   2.83971   2.84364   2.85995   2.88798
 Alpha virt. eigenvalues --    2.91004   2.92909   2.93396   2.96441   2.99282
 Alpha virt. eigenvalues --    2.99728   3.02698   3.03413   3.05832   3.11818
 Alpha virt. eigenvalues --    3.12550   3.15814   3.20980   3.24341   3.29117
 Alpha virt. eigenvalues --    3.33214   3.36904   3.40573   3.41769   3.48133
 Alpha virt. eigenvalues --    3.52180   3.52546   3.56226   3.57983   3.58677
 Alpha virt. eigenvalues --    3.59094   3.60090   3.60646   3.61438   3.61913
 Alpha virt. eigenvalues --    3.63952   3.65397   3.66764   3.68153   3.71182
 Alpha virt. eigenvalues --    3.71278   3.72450   3.73456   3.75325   3.77623
 Alpha virt. eigenvalues --    3.79580   3.83483   3.84340   3.86400   3.91172
 Alpha virt. eigenvalues --    3.93123   3.97096   3.99701   4.05948   4.09271
 Alpha virt. eigenvalues --    4.13082   4.15389   4.23666   4.35238   4.49662
 Alpha virt. eigenvalues --    4.81769
          Condensed to atoms (all electrons):
               1          2          3          4          5          6
     1  C    9.598712  -2.641140   0.049020   0.275306   0.270314   0.237852
     2  C   -2.641140  10.581375  -2.497533  -0.846458  -1.159806  -0.252640
     3  C    0.049020  -2.497533  13.663769   0.303623  -0.059833  -0.472704
     4  O    0.275306  -0.846458   0.303623   8.666795  -0.014540   0.009962
     5  H    0.270314  -1.159806  -0.059833  -0.014540   2.633558   0.110573
     6  O    0.237852  -0.252640  -0.472704   0.009962   0.110573   9.547019
     7  H   -0.163029   0.097229  -1.261842  -0.020710   0.121938  -0.054895
     8  N    0.367116   0.037766  -0.628664  -0.004494  -0.112634   0.020073
     9  C   -1.878386   0.807350  -1.933958   0.028010  -0.158179  -0.282385
    10  H   -0.896808   0.516218   0.195134  -0.021852  -0.156554   0.003649
    11  O   -0.538944   0.083108  -0.071738  -0.006188   0.011217   0.031874
    12  C   -0.052896  -0.026485  -0.018773  -0.016091   0.073483   0.062790
    13  H    0.189638   0.156761   0.278175  -0.008485  -0.008506  -0.238060
    14  O   -0.000448  -0.053528  -0.062300   0.000287   0.021862  -0.018356
    15  H    0.131913  -0.046464  -0.006580  -0.000593   0.015554   0.124749
    16  H    0.003329  -0.028034   0.013370   0.000516   0.003199  -0.039640
    17  H    0.159738  -0.141059  -0.019043   0.034961   0.031070   0.008743
    18  H   -0.117692   0.359949  -0.140959   0.262115  -0.171083  -0.006243
    19  H    0.025921  -0.018731   0.025068   0.000876   0.009366   0.027635
    20  C    0.062328  -0.059277  -1.479639  -0.002345  -0.037993  -0.136353
    21  C   -0.060058   0.135982  -0.477133   0.006085   0.019034   0.024036
    22  C    0.028191  -0.081160  -0.077171   0.000421  -0.019209  -0.026027
    23  N    0.024292   0.011910   0.266443  -0.003612   0.003033  -0.027821
    24  C   -0.063088   0.120619  -1.176366   0.012970   0.036123   0.183395
    25  H   -0.002608   0.048062   0.303886  -0.002400   0.006576   0.079573
    26  H    0.001663  -0.002541   0.141148  -0.000065  -0.003116  -0.003130
    27  O   -0.000965   0.001747  -0.003497  -0.000085   0.001299   0.000903
    28  O    0.048487  -0.046846   0.088541  -0.007946   0.085979   0.004743
               7          8          9         10         11         12
     1  C   -0.163029   0.367116  -1.878386  -0.896808  -0.538944  -0.052896
     2  C    0.097229   0.037766   0.807350   0.516218   0.083108  -0.026485
     3  C   -1.261842  -0.628664  -1.933958   0.195134  -0.071738  -0.018773
     4  O   -0.020710  -0.004494   0.028010  -0.021852  -0.006188  -0.016091
     5  H    0.121938  -0.112634  -0.158179  -0.156554   0.011217   0.073483
     6  O   -0.054895   0.020073  -0.282385   0.003649   0.031874   0.062790
     7  H    2.717504  -0.197263   0.238277   0.010777   0.044492  -0.007925
     8  N   -0.197263   8.008104  -0.231087  -0.040735  -0.007566   0.016993
     9  C    0.238277  -0.231087   9.965821  -0.148492   0.301662  -0.294812
    10  H    0.010777  -0.040735  -0.148492   2.062743  -0.104536  -0.043174
    11  O    0.044492  -0.007566   0.301662  -0.104536   8.785498  -0.012853
    12  C   -0.007925   0.016993  -0.294812  -0.043174  -0.012853   5.018073
    13  H   -0.009516   0.003621  -0.844155   0.060276  -0.091414  -0.037108
    14  O    0.002622   0.004405   0.104258   0.040479   0.002076   0.027150
    15  H   -0.004429   0.005159  -0.320227  -0.041739   0.006417   0.272719
    16  H    0.005912   0.001669   0.153361   0.023777  -0.000241   0.054358
    17  H   -0.001765   0.000418  -0.075218  -0.045250   0.292831   0.009042
    18  H   -0.009917   0.015897   0.026984   0.017244   0.002303  -0.002706
    19  H    0.000175  -0.002885  -0.056491  -0.010073  -0.000600  -0.005605
    20  C    0.188409   0.368964  -0.307990  -0.000987  -0.022576  -0.010047
    21  C    0.045330  -0.472439  -0.004999  -0.002753   0.003085   0.001365
    22  C    0.023377  -0.087181  -0.009660   0.001840  -0.000592  -0.008193
    23  N   -0.006944  -0.014753  -0.027254   0.000718  -0.000663   0.002898
    24  C    0.037335   0.008454   0.180705  -0.005520   0.005723  -0.050971
    25  H   -0.283922  -0.021984   0.015665  -0.000616   0.000224   0.014737
    26  H    0.003130   0.104651   0.001409   0.000136  -0.000106  -0.000834
    27  O   -0.000411  -0.011834   0.000714  -0.000087   0.000006   0.000173
    28  O    0.013899  -0.137032  -0.048422  -0.007068  -0.000473   0.026051
              13         14         15         16         17         18
     1  C    0.189638  -0.000448   0.131913   0.003329   0.159738  -0.117692
     2  C    0.156761  -0.053528  -0.046464  -0.028034  -0.141059   0.359949
     3  C    0.278175  -0.062300  -0.006580   0.013370  -0.019043  -0.140959
     4  O   -0.008485   0.000287  -0.000593   0.000516   0.034961   0.262115
     5  H   -0.008506   0.021862   0.015554   0.003199   0.031070  -0.171083
     6  O   -0.238060  -0.018356   0.124749  -0.039640   0.008743  -0.006243
     7  H   -0.009516   0.002622  -0.004429   0.005912  -0.001765  -0.009917
     8  N    0.003621   0.004405   0.005159   0.001669   0.000418   0.015897
     9  C   -0.844155   0.104258  -0.320227   0.153361  -0.075218   0.026984
    10  H    0.060276   0.040479  -0.041739   0.023777  -0.045250   0.017244
    11  O   -0.091414   0.002076   0.006417  -0.000241   0.292831   0.002303
    12  C   -0.037108   0.027150   0.272719   0.054358   0.009042  -0.002706
    13  H    2.089684   0.026614  -0.130797   0.003102  -0.007874   0.001726
    14  O    0.026614   8.488346  -0.182722  -0.056312  -0.000203  -0.002062
    15  H   -0.130797  -0.182722   1.831868  -0.380249   0.003914  -0.001235
    16  H    0.003102  -0.056312  -0.380249   1.532462  -0.000343  -0.000164
    17  H   -0.007874  -0.000203   0.003914  -0.000343   0.618896  -0.013001
    18  H    0.001726  -0.002062  -0.001235  -0.000164  -0.013001   0.632369
    19  H    0.006683   0.193396   0.030584  -0.059081   0.000097  -0.000859
    20  C    0.008164  -0.000556  -0.000574   0.004790   0.002724   0.001515
    21  C   -0.000830   0.000076   0.000482  -0.000972  -0.001789   0.002927
    22  C   -0.000560   0.000970  -0.001239   0.001631   0.000234  -0.001626
    23  N   -0.000599  -0.005933   0.000181  -0.000197   0.000021   0.001285
    24  C   -0.000408   0.038040  -0.019111   0.029344   0.000776  -0.003139
    25  H    0.003362  -0.000224   0.001425  -0.000332   0.001883   0.000551
    26  H    0.000062   0.000094  -0.000096   0.000051  -0.000090   0.000282
    27  O    0.000026  -0.000004   0.000023  -0.000006   0.000004  -0.000010
    28  O   -0.001229  -0.045238   0.006800  -0.002515   0.000668  -0.001854
              19         20         21         22         23         24
     1  C    0.025921   0.062328  -0.060058   0.028191   0.024292  -0.063088
     2  C   -0.018731  -0.059277   0.135982  -0.081160   0.011910   0.120619
     3  C    0.025068  -1.479639  -0.477133  -0.077171   0.266443  -1.176366
     4  O    0.000876  -0.002345   0.006085   0.000421  -0.003612   0.012970
     5  H    0.009366  -0.037993   0.019034  -0.019209   0.003033   0.036123
     6  O    0.027635  -0.136353   0.024036  -0.026027  -0.027821   0.183395
     7  H    0.000175   0.188409   0.045330   0.023377  -0.006944   0.037335
     8  N   -0.002885   0.368964  -0.472439  -0.087181  -0.014753   0.008454
     9  C   -0.056491  -0.307990  -0.004999  -0.009660  -0.027254   0.180705
    10  H   -0.010073  -0.000987  -0.002753   0.001840   0.000718  -0.005520
    11  O   -0.000600  -0.022576   0.003085  -0.000592  -0.000663   0.005723
    12  C   -0.005605  -0.010047   0.001365  -0.008193   0.002898  -0.050971
    13  H    0.006683   0.008164  -0.000830  -0.000560  -0.000599  -0.000408
    14  O    0.193396  -0.000556   0.000076   0.000970  -0.005933   0.038040
    15  H    0.030584  -0.000574   0.000482  -0.001239   0.000181  -0.019111
    16  H   -0.059081   0.004790  -0.000972   0.001631  -0.000197   0.029344
    17  H    0.000097   0.002724  -0.001789   0.000234   0.000021   0.000776
    18  H   -0.000859   0.001515   0.002927  -0.001626   0.001285  -0.003139
    19  H    0.571962  -0.012633   0.006394  -0.004623   0.008601  -0.041590
    20  C   -0.012633  10.068532  -1.718014   0.033003  -0.031930  -1.117981
    21  C    0.006394  -1.718014   9.831760  -2.653251   0.405525   0.945241
    22  C   -0.004623   0.033003  -2.653251   9.547350  -0.378223  -0.722840
    23  N    0.008601  -0.031930   0.405525  -0.378223   8.359693  -0.452885
    24  C   -0.041590  -1.117981   0.945241  -0.722840  -0.452885   7.335160
    25  H   -0.000293  -0.872414  -0.177830  -0.170153   0.012693   0.086199
    26  H    0.000105   0.537963  -0.955002   0.068976  -0.041393  -0.152331
    27  O   -0.000126   0.035592  -0.032801   0.056635  -0.131697   0.079636
    28  O    0.074796  -0.052071  -0.016460   0.029677  -0.315930   0.247443
              25         26         27         28
     1  C   -0.002608   0.001663  -0.000965   0.048487
     2  C    0.048062  -0.002541   0.001747  -0.046846
     3  C    0.303886   0.141148  -0.003497   0.088541
     4  O   -0.002400  -0.000065  -0.000085  -0.007946
     5  H    0.006576  -0.003116   0.001299   0.085979
     6  O    0.079573  -0.003130   0.000903   0.004743
     7  H   -0.283922   0.003130  -0.000411   0.013899
     8  N   -0.021984   0.104651  -0.011834  -0.137032
     9  C    0.015665   0.001409   0.000714  -0.048422
    10  H   -0.000616   0.000136  -0.000087  -0.007068
    11  O    0.000224  -0.000106   0.000006  -0.000473
    12  C    0.014737  -0.000834   0.000173   0.026051
    13  H    0.003362   0.000062   0.000026  -0.001229
    14  O   -0.000224   0.000094  -0.000004  -0.045238
    15  H    0.001425  -0.000096   0.000023   0.006800
    16  H   -0.000332   0.000051  -0.000006  -0.002515
    17  H    0.001883  -0.000090   0.000004   0.000668
    18  H    0.000551   0.000282  -0.000010  -0.001854
    19  H   -0.000293   0.000105  -0.000126   0.074796
    20  C   -0.872414   0.537963   0.035592  -0.052071
    21  C   -0.177830  -0.955002  -0.032801  -0.016460
    22  C   -0.170153   0.068976   0.056635   0.029677
    23  N    0.012693  -0.041393  -0.131697  -0.315930
    24  C    0.086199  -0.152331   0.079636   0.247443
    25  H    2.946085  -0.156774   0.001157   0.002747
    26  H   -0.156774   2.063671  -0.013778   0.003331
    27  O    0.001157  -0.013778   8.768054  -0.010493
    28  O    0.002747   0.003331  -0.010493   8.820370
 Mulliken charges:
               1
     1  C    0.942240
     2  C    0.943629
     3  C    1.059556
     4  O   -0.646064
     5  H   -0.552723
     6  O   -0.919314
     7  H   -0.527841
     8  N    0.007261
     9  C    0.797501
    10  H   -0.406746
    11  O   -0.712026
    12  C    1.008644
    13  H   -0.448352
    14  O   -0.522786
    15  H   -0.295736
    16  H   -0.262783
    17  H    0.139613
    18  H    0.147402
    19  H    0.231933
    20  C    0.551396
    21  C    1.147009
    22  C    0.449404
    23  N   -0.657461
    24  C    0.459070
    25  H   -0.835275
    26  H   -0.597417
    27  O   -0.740177
    28  O   -0.759955
 Sum of Mulliken charges =  -1.00000
 Mulliken charges with hydrogens summed into heavy atoms:
               1
     1  C    0.535495
     2  C    0.390906
     3  C    0.531715
     4  O   -0.498662
     6  O   -0.919314
     8  N    0.007261
     9  C    0.349148
    11  O   -0.572413
    12  C    0.450125
    14  O   -0.290854
    20  C   -0.283879
    21  C    0.549592
    22  C    0.449404
    23  N   -0.657461
    24  C    0.459070
    27  O   -0.740177
    28  O   -0.759955
 Electronic spatial extent (au):  <R**2>=           4106.7823
 Charge=             -1.0000 electrons
 Dipole moment (field-independent basis, Debye):
    X=            -11.4472    Y=             -6.2415    Z=             -0.8709  Tot=             13.0673
 Quadrupole moment (field-independent basis, Debye-Ang):
   XX=           -169.4048   YY=           -116.1670   ZZ=           -100.7003
   XY=            -12.4513   XZ=             -6.2655   YZ=             -9.2379
 Traceless Quadrupole moment (field-independent basis, Debye-Ang):
   XX=            -40.6474   YY=             12.5904   ZZ=             28.0570
   XY=            -12.4513   XZ=             -6.2655   YZ=             -9.2379
 Octapole moment (field-independent basis, Debye-Ang**2):
  XXX=           -295.4996  YYY=            -28.6519  ZZZ=             25.2018  XYY=             -6.9927
  XXY=            -38.6884  XXZ=            -14.1031  XZZ=            -13.5835  YZZ=            -13.7775
  YYZ=            -13.2718  XYZ=              9.1963
 Hexadecapole moment (field-independent basis, Debye-Ang**3):
 XXXX=          -5387.1987 YYYY=          -1144.9202 ZZZZ=           -428.1377 XXXY=           -199.4589
 XXXZ=            -87.3225 YYYX=             41.5366 YYYZ=            -40.0763 ZZZX=             -5.3458
 ZZZY=            -42.3610 XXYY=           -909.6012 XXZZ=           -735.5410 YYZZ=           -256.0970
 XXYZ=            -63.8319 YYXZ=            -11.7588 ZZXY=              4.8368
 N-N= 1.318499851227D+03 E-N=-4.786699808297D+03  KE= 9.050101853612D+02
 Calling FoFJK, ICntrl=      2127 FMM=F ISym2X=0 I1Cent= 0 IOpClX= 0 NMat=1 NMatS=1 NMatT=0.
 ***** Axes restored to original set *****
 -------------------------------------------------------------------
 Center     Atomic                   Forces (Hartrees/Bohr)
 Number     Number              X              Y              Z
 -------------------------------------------------------------------
      1        6           0.002427273    0.001657567    0.002129537
      2        6          -0.000864292    0.004127391   -0.004249599
      3        6           0.020354515   -0.004030884    0.003829001
      4        8          -0.002327208   -0.004441475    0.002532010
      5        1           0.002298571    0.000555793   -0.000930618
      6        8          -0.012538731    0.003685214   -0.002865586
      7        1          -0.002337439   -0.000919067   -0.000820472
      8        7          -0.028638165   -0.018132154   -0.007943190
      9        6           0.008233494   -0.001491724   -0.001118363
     10        1          -0.001249600   -0.000003896   -0.000013510
     11        8          -0.005038482   -0.003037085   -0.000725892
     12        6           0.002130458    0.000374045    0.003905266
     13        1          -0.001491444   -0.000155161   -0.000676023
     14        8          -0.009917883    0.001658420   -0.002661111
     15        1          -0.001384751    0.000156138   -0.000022336
     16        1           0.000567434   -0.000085296   -0.000544947
     17        1           0.002319388    0.001266557   -0.000200589
     18        1           0.000853503    0.001418701   -0.001537163
     19        1           0.013128509   -0.003987913    0.000993074
     20        6          -0.002659572   -0.001440168   -0.000568200
     21        6           0.001371733   -0.010771549   -0.005945657
     22        6          -0.092736548    0.018199972    0.010647003
     23        7          -0.009349312    0.007283746    0.004199779
     24        6           0.092061382   -0.008201645   -0.005631780
     25        1          -0.000825683   -0.001131130   -0.000521137
     26        1          -0.000457409   -0.005289267   -0.002823234
     27        8           0.068802348    0.004097821    0.001578437
     28        8          -0.042732090    0.018637048    0.009985299
 -------------------------------------------------------------------
 Cartesian Forces:  Max     0.092736548 RMS     0.018053255

 GradGradGradGradGradGradGradGradGradGradGradGradGradGradGradGradGradGrad
 Berny optimization.
 FormGI is forming the generalized inverse of G from B-inverse, IUseBI=4.
 Internal  Forces:  Max     0.067373243 RMS     0.009112818
 Search for a local minimum.
 Step number   1 out of a maximum of  166
 All quantities printed in internal units (Hartrees-Bohrs-Radians)
 Mixed Optimization -- RFO/linear search
 Second derivative matrix not updated -- first step.
 ITU=  0
     Eigenvalues ---    0.00540   0.00544   0.00919   0.00928   0.01492
     Eigenvalues ---    0.01495   0.01509   0.01538   0.01600   0.01763
     Eigenvalues ---    0.01920   0.01930   0.02114   0.02268   0.02465
     Eigenvalues ---    0.03071   0.03889   0.04343   0.04879   0.04918
     Eigenvalues ---    0.05310   0.05468   0.05724   0.05907   0.06108
     Eigenvalues ---    0.06154   0.06962   0.07722   0.08450   0.09681
     Eigenvalues ---    0.11652   0.12868   0.14021   0.15999   0.16000
     Eigenvalues ---    0.16000   0.16000   0.16000   0.16132   0.17091
     Eigenvalues ---    0.18228   0.20195   0.22078   0.22437   0.24473
     Eigenvalues ---    0.24956   0.24995   0.24998   0.25000   0.26607
     Eigenvalues ---    0.28265   0.28981   0.30676   0.33257   0.33412
     Eigenvalues ---    0.33648   0.33699   0.33703   0.34361   0.34990
     Eigenvalues ---    0.35349   0.36830   0.37245   0.37616   0.43204
     Eigenvalues ---    0.43246   0.43403   0.43628   0.44484   0.46215
     Eigenvalues ---    0.48155   0.49853   0.53364   0.54230   0.54276
     Eigenvalues ---    0.55604   0.95488   1.07745
 RFO step:  Lambda=-2.99362506D-02 EMin= 5.39844994D-03
 Linear search not attempted -- first point.
 Iteration  1 RMS(Cart)=  0.14542240 RMS(Int)=  0.00580915
 Iteration  2 RMS(Cart)=  0.01276956 RMS(Int)=  0.00023146
 Iteration  3 RMS(Cart)=  0.00008435 RMS(Int)=  0.00022845
 Iteration  4 RMS(Cart)=  0.00000001 RMS(Int)=  0.00022845
 Variable       Old X    -DE/DX   Delta X   Delta X   Delta X     New X
                                 (Linear)    (Quad)   (Total)
    R1        2.89264  -0.00120   0.00000  -0.00583  -0.00577   2.88687
    R2        2.88694   0.00037   0.00000  -0.00219  -0.00226   2.88468
    R3        2.07928   0.00078   0.00000   0.00213   0.00213   2.08141
    R4        2.67368   0.00281   0.00000   0.00608   0.00608   2.67975
    R5        2.89307  -0.00349   0.00000  -0.00719  -0.00713   2.88595
    R6        2.67418   0.00301   0.00000   0.00651   0.00651   2.68069
    R7        2.06725   0.00039   0.00000   0.00105   0.00105   2.06831
    R8        2.64268   0.00370   0.00000   0.00942   0.00945   2.65213
    R9        2.08334   0.00126   0.00000   0.00345   0.00345   2.08679
   R10        2.75478  -0.01378   0.00000  -0.03424  -0.03424   2.72054
   R11        1.81299  -0.00088   0.00000  -0.00151  -0.00151   1.81148
   R12        2.73666  -0.00869   0.00000  -0.02153  -0.02160   2.71506
   R13        2.60280  -0.01062   0.00000  -0.01903  -0.01900   2.58380
   R14        2.62310   0.02517   0.00000   0.04976   0.04987   2.67297
   R15        2.86635  -0.00227   0.00000  -0.00673  -0.00673   2.85962
   R16        2.07841   0.00139   0.00000   0.00379   0.00379   2.08221
   R17        1.82482  -0.00070   0.00000  -0.00123  -0.00123   1.82359
   R18        2.65880  -0.00083   0.00000  -0.00175  -0.00175   2.65705
   R19        2.07834   0.00139   0.00000   0.00378   0.00378   2.08212
   R20        2.08602   0.00056   0.00000   0.00155   0.00155   2.08758
   R21        1.83316   0.01343   0.00000   0.02383   0.02383   1.85699
   R22        2.54859  -0.00554   0.00000  -0.00844  -0.00852   2.54007
   R23        2.05691   0.00147   0.00000   0.00387   0.00387   2.06078
   R24        2.73339   0.02161   0.00000   0.05187   0.05175   2.78514
   R25        2.05112   0.00430   0.00000   0.01120   0.01120   2.06233
   R26        2.64473  -0.01121   0.00000  -0.02433  -0.02435   2.62038
   R27        2.25688   0.06737   0.00000   0.06084   0.06084   2.31772
   R28        2.59053  -0.02442   0.00000  -0.04654  -0.04646   2.54407
   R29        2.30502   0.04323   0.00000   0.04389   0.04389   2.34891
    A1        1.79505  -0.00334   0.00000  -0.01486  -0.01469   1.78036
    A2        1.94965  -0.00037   0.00000  -0.00820  -0.00829   1.94135
    A3        1.92353   0.00274   0.00000   0.01685   0.01682   1.94035
    A4        1.94869   0.00125   0.00000   0.00097   0.00083   1.94952
    A5        1.89328   0.00113   0.00000   0.01077   0.01070   1.90398
    A6        1.94738  -0.00140   0.00000  -0.00522  -0.00515   1.94223
    A7        1.75125   0.00225   0.00000   0.02319   0.02331   1.77456
    A8        1.95028  -0.00034   0.00000   0.00546   0.00498   1.95526
    A9        1.91506  -0.00074   0.00000  -0.01126  -0.01104   1.90402
   A10        1.94021   0.00124   0.00000   0.00932   0.00904   1.94926
   A11        1.93593  -0.00305   0.00000  -0.02752  -0.02752   1.90841
   A12        1.96076   0.00069   0.00000   0.00205   0.00213   1.96289
   A13        1.85613  -0.00068   0.00000  -0.00783  -0.00880   1.84733
   A14        1.87007   0.00102   0.00000   0.00986   0.01059   1.88066
   A15        2.03757  -0.00780   0.00000  -0.04931  -0.04972   1.98785
   A16        1.94430  -0.00057   0.00000   0.00212   0.00213   1.94643
   A17        1.91917   0.00178   0.00000  -0.01080  -0.01230   1.90687
   A18        1.83735   0.00630   0.00000   0.05750   0.05792   1.89526
   A19        1.90618  -0.00310   0.00000  -0.01635  -0.01635   1.88983
   A20        1.91367  -0.00139   0.00000   0.00792   0.00821   1.92188
   A21        2.07758   0.00658   0.00000   0.02212   0.02204   2.09963
   A22        2.10346  -0.00663   0.00000  -0.02525  -0.02532   2.07814
   A23        2.10062   0.00006   0.00000   0.00340   0.00353   2.10415
   A24        1.85482   0.00428   0.00000   0.01212   0.01144   1.86626
   A25        1.99376  -0.00094   0.00000  -0.01006  -0.01025   1.98351
   A26        1.90544  -0.00126   0.00000   0.00263   0.00245   1.90789
   A27        1.89966  -0.00698   0.00000  -0.04727  -0.04727   1.85239
   A28        1.88540   0.00142   0.00000   0.01605   0.01629   1.90169
   A29        1.92090   0.00357   0.00000   0.02697   0.02719   1.94809
   A30        1.86803  -0.00311   0.00000  -0.01637  -0.01637   1.85166
   A31        1.97285  -0.00617   0.00000  -0.02616  -0.02628   1.94657
   A32        1.89486   0.00269   0.00000   0.01728   0.01742   1.91228
   A33        1.89019  -0.00003   0.00000  -0.00826  -0.00850   1.88170
   A34        1.86953   0.00237   0.00000   0.01588   0.01603   1.88556
   A35        1.95255   0.00180   0.00000  -0.00052  -0.00091   1.95164
   A36        1.88098  -0.00035   0.00000   0.00409   0.00410   1.88508
   A37        1.89503   0.00142   0.00000   0.00750   0.00750   1.90253
   A38        2.16105  -0.01179   0.00000  -0.04146  -0.04152   2.11953
   A39        1.99706   0.00562   0.00000   0.01928   0.01931   2.01637
   A40        2.12506   0.00617   0.00000   0.02217   0.02220   2.14726
   A41        2.08611  -0.00002   0.00000   0.00347   0.00327   2.08938
   A42        2.12278  -0.00431   0.00000  -0.02445  -0.02435   2.09843
   A43        2.07426   0.00433   0.00000   0.02101   0.02111   2.09537
   A44        1.97049   0.01628   0.00000   0.05678   0.05663   2.02712
   A45        2.21596  -0.02464   0.00000  -0.08734  -0.08727   2.12869
   A46        2.09674   0.00836   0.00000   0.03056   0.03063   2.12737
   A47        2.24546  -0.02329   0.00000  -0.08801  -0.08793   2.15753
   A48        2.00215   0.01875   0.00000   0.06573   0.06592   2.06807
   A49        2.16259  -0.03255   0.00000  -0.11566  -0.11575   2.04684
   A50        2.11836   0.01379   0.00000   0.04990   0.04981   2.16817
    D1       -0.61125   0.00157   0.00000   0.01108   0.01127  -0.59997
    D2       -2.66895  -0.00095   0.00000  -0.01467  -0.01460  -2.68356
    D3        1.42744  -0.00105   0.00000  -0.01291  -0.01274   1.41469
    D4       -2.70348   0.00225   0.00000   0.02273   0.02273  -2.68075
    D5        1.52200  -0.00027   0.00000  -0.00302  -0.00315   1.51885
    D6       -0.66480  -0.00037   0.00000  -0.00125  -0.00128  -0.66608
    D7        1.40444   0.00231   0.00000   0.02299   0.02306   1.42749
    D8       -0.65327  -0.00021   0.00000  -0.00276  -0.00282  -0.65609
    D9       -2.84006  -0.00031   0.00000  -0.00100  -0.00096  -2.84102
   D10        0.39755  -0.00098   0.00000   0.01128   0.01114   0.40868
   D11       -1.69727   0.00536   0.00000   0.06797   0.06797  -1.62930
   D12        2.42705   0.00233   0.00000   0.03781   0.03779   2.46484
   D13        2.49044  -0.00277   0.00000  -0.00669  -0.00676   2.48368
   D14        0.39562   0.00356   0.00000   0.05000   0.05008   0.44570
   D15       -1.76324   0.00054   0.00000   0.01984   0.01989  -1.74335
   D16       -1.63981  -0.00293   0.00000  -0.00516  -0.00524  -1.64505
   D17        2.54856   0.00341   0.00000   0.05153   0.05160   2.60016
   D18        0.38970   0.00038   0.00000   0.02137   0.02141   0.41111
   D19        0.84766  -0.00028   0.00000  -0.02425  -0.02441   0.82326
   D20        2.80055  -0.00224   0.00000  -0.02752  -0.02735   2.77320
   D21       -1.32891  -0.00080   0.00000  -0.02227  -0.02229  -1.35119
   D22        0.64305  -0.00102   0.00000  -0.03471  -0.03488   0.60816
   D23       -1.43806  -0.00052   0.00000  -0.03815  -0.03814  -1.47620
   D24        2.79164  -0.00452   0.00000  -0.08854  -0.08829   2.70335
   D25        2.70816   0.00031   0.00000  -0.01208  -0.01216   2.69600
   D26        0.62705   0.00081   0.00000  -0.01551  -0.01541   0.61164
   D27       -1.42643  -0.00319   0.00000  -0.06590  -0.06557  -1.49200
   D28       -1.38004  -0.00015   0.00000  -0.02311  -0.02324  -1.40328
   D29        2.82204   0.00035   0.00000  -0.02655  -0.02649   2.79554
   D30        0.76856  -0.00365   0.00000  -0.07694  -0.07665   0.69191
   D31       -2.25295   0.00065   0.00000   0.00027   0.00035  -2.25260
   D32        2.08944  -0.00261   0.00000  -0.03647  -0.03659   2.05285
   D33       -0.09167  -0.00006   0.00000  -0.00886  -0.00882  -0.10049
   D34       -0.41555   0.00134   0.00000   0.04948   0.04935  -0.36620
   D35        1.61638   0.00186   0.00000   0.05779   0.05795   1.67433
   D36       -2.63670   0.01036   0.00000   0.12312   0.12313  -2.51357
   D37        2.18081   0.00212   0.00000   0.02656   0.02596   2.20677
   D38       -1.01976   0.00235   0.00000   0.03182   0.03123  -0.98853
   D39       -1.98666  -0.00304   0.00000  -0.02866  -0.02844  -2.01511
   D40        1.09595  -0.00281   0.00000  -0.02340  -0.02317   1.07278
   D41        0.10955   0.00086   0.00000   0.00142   0.00179   0.11134
   D42       -3.09101   0.00109   0.00000   0.00668   0.00705  -3.08396
   D43        0.00701  -0.00058   0.00000  -0.03809  -0.03819  -0.03119
   D44        2.16188  -0.00315   0.00000  -0.07010  -0.07014   2.09174
   D45       -2.03593  -0.00201   0.00000  -0.05531  -0.05548  -2.09140
   D46        3.11746  -0.00016   0.00000   0.00470   0.00465   3.12211
   D47       -0.03044  -0.00012   0.00000   0.00384   0.00381  -0.02664
   D48        0.03474  -0.00016   0.00000   0.00043   0.00029   0.03503
   D49       -3.11316  -0.00011   0.00000  -0.00042  -0.00055  -3.11371
   D50       -3.11304  -0.00091   0.00000  -0.01153  -0.01158  -3.12462
   D51        0.04250  -0.00077   0.00000  -0.00989  -0.00993   0.03256
   D52       -0.03121  -0.00047   0.00000  -0.00558  -0.00567  -0.03688
   D53        3.12433  -0.00033   0.00000  -0.00394  -0.00403   3.12031
   D54        0.83061   0.00110   0.00000   0.00771   0.00781   0.83842
   D55       -1.24108   0.00015   0.00000  -0.00757  -0.00731  -1.24839
   D56        3.00429  -0.00088   0.00000  -0.01727  -0.01693   2.98736
   D57       -1.23892   0.00116   0.00000   0.03174   0.03128  -1.20764
   D58        2.97258   0.00020   0.00000   0.01646   0.01615   2.98873
   D59        0.93476  -0.00083   0.00000   0.00677   0.00654   0.94130
   D60        2.98113   0.00153   0.00000   0.02478   0.02475   3.00588
   D61        0.90945   0.00057   0.00000   0.00950   0.00962   0.91907
   D62       -1.12837  -0.00046   0.00000  -0.00020   0.00001  -1.12836
   D63        1.06632  -0.00317   0.00000  -0.05189  -0.05181   1.01451
   D64       -3.13055  -0.00193   0.00000  -0.03551  -0.03557   3.11707
   D65       -1.07298   0.00012   0.00000  -0.02103  -0.02105  -1.09403
   D66       -0.01530   0.00007   0.00000   0.00385   0.00374  -0.01156
   D67        3.13561  -0.00007   0.00000  -0.00072  -0.00073   3.13489
   D68        3.13305   0.00003   0.00000   0.00480   0.00467   3.13773
   D69        0.00078  -0.00011   0.00000   0.00023   0.00021   0.00099
   D70       -0.00433  -0.00018   0.00000  -0.00479  -0.00484  -0.00917
   D71        3.14055  -0.00021   0.00000  -0.00506  -0.00507   3.13548
   D72        3.12820  -0.00009   0.00000  -0.00059  -0.00062   3.12758
   D73       -0.01010  -0.00012   0.00000  -0.00086  -0.00086  -0.01095
   D74        0.00543   0.00003   0.00000   0.00112   0.00112   0.00655
   D75       -3.13920  -0.00002   0.00000   0.00111   0.00110  -3.13810
   D76        0.01219   0.00014   0.00000   0.00359   0.00362   0.01580
   D77        3.14022  -0.00041   0.00000   0.00053   0.00041   3.14063
         Item               Value     Threshold  Converged?
 Maximum Force            0.067373     0.000450     NO 
 RMS     Force            0.009113     0.000300     NO 
 Maximum Displacement     0.661227     0.001800     NO 
 RMS     Displacement     0.153724     0.001200     NO 
 Predicted change in Energy=-1.727165D-02
 GradGradGradGradGradGradGradGradGradGradGradGradGradGradGradGradGradGrad

                          Input orientation:                          
 ---------------------------------------------------------------------
 Center     Atomic      Atomic             Coordinates (Angstroms)
 Number     Number       Type             X           Y           Z
 ---------------------------------------------------------------------
      1          6           0       -2.733314   -0.515924    0.270298
      2          6           0       -1.325722   -0.781861    0.801072
      3          6           0       -0.509408   -0.811761   -0.489279
      4          8           0       -1.244857   -2.013014    1.501101
      5          1           0       -1.006951    0.068406    1.412106
      6          8           0       -1.103519    0.132750   -1.340512
      7          1           0       -0.576431   -1.831965   -0.906568
      8          7           0        0.879812   -0.480269   -0.308283
      9          6           0       -2.455433    0.389106   -0.927166
     10          1           0       -3.355926   -0.011644    1.026088
     11          8           0       -3.343802   -1.712361   -0.184398
     12          6           0       -2.522658    1.865227   -0.600873
     13          1           0       -3.137913    0.123895   -1.750556
     14          8           0       -1.788231    2.171409    0.558370
     15          1           0       -3.570799    2.157482   -0.427755
     16          1           0       -2.153417    2.422842   -1.480124
     17          1           0       -3.195687   -2.368086    0.507927
     18          1           0       -0.835190   -1.848702    2.352030
     19          1           0       -0.854210    1.895388    0.427709
     20          6           0        1.855176   -1.324705   -0.761122
     21          6           0        3.158888   -1.027544   -0.624143
     22          6           0        3.556032    0.240329    0.013793
     23          7           0        2.521963    1.065357    0.429502
     24          6           0        1.219217    0.758613    0.283934
     25          1           0        1.501030   -2.244741   -1.227320
     26          1           0        3.921162   -1.718967   -0.987304
     27          8           0        4.733017    0.550063    0.165576
     28          8           0        0.283526    1.488841    0.653090
 ---------------------------------------------------------------------
                    Distance matrix (angstroms):
                    1          2          3          4          5
     1  C    0.000000
     2  C    1.527665   0.000000
     3  C    2.368593   1.527176   0.000000
     4  O    2.443698   1.418562   2.438340   0.000000
     5  H    2.150697   1.094500   2.153487   2.096861   0.000000
     6  O    2.381537   2.339288   1.403449   3.563572   2.755062
     7  H    2.787314   2.140138   1.104282   2.505283   3.028697
     8  N    3.659331   2.487168   1.439645   3.183927   2.611638
     9  C    1.526505   2.373651   2.328270   3.623832   2.770044
    10  H    1.101437   2.183024   3.322528   2.947496   2.381828
    11  O    1.418064   2.430973   2.989619   2.708666   3.343775
    12  C    2.544247   3.225706   3.351402   4.592583   3.094838
    13  H    2.157989   3.258103   3.061913   4.327044   3.813989
    14  O    2.863202   2.999104   3.410610   4.323586   2.400393
    15  H    2.887171   3.897451   4.265244   5.150100   3.784528
    16  H    3.469380   4.019832   3.761276   5.421254   3.901634
    17  H    1.923737   2.469578   3.260776   2.217704   3.397734
    18  H    3.116534   1.945313   3.042107   0.958596   2.142023
    19  H    3.061084   2.743972   2.878960   4.071901   2.080920
    20  C    4.772022   3.585142   2.434803   3.898926   3.854276
    21  C    5.981624   4.712041   3.677111   4.988064   4.764622
    22  C    6.339841   5.049376   4.229394   5.508009   4.775526
    23  N    5.490331   4.284269   3.681975   4.981327   3.796400
    24  C    4.152966   3.019471   2.460097   3.903213   2.589397
    25  H    4.812623   3.774244   2.576819   3.877869   4.313604
    26  H    6.878295   5.621944   4.549836   5.741635   5.765255
    27  O    7.542771   6.235880   5.455861   6.639877   5.893476
    28  O    3.642381   2.787053   2.688219   3.913830   2.063752
                    6          7          8          9         10
     6  O    0.000000
     7  H    2.079960   0.000000
     8  N    2.318381   2.075012   0.000000
     9  C    1.436748   2.909335   3.501812   0.000000
    10  H    3.270318   3.843738   4.465605   2.187851   0.000000
    11  O    3.124084   2.862547   4.401399   2.399389   2.087550
    12  C    2.358494   4.189329   4.142917   1.513248   2.619920
    13  H    2.075324   3.331500   4.311296   1.101856   2.788486
    14  O    2.868922   4.431874   3.860173   2.414246   2.728030
    15  H    3.319659   5.011107   5.174934   2.149560   2.620103
    16  H    2.523152   4.573754   4.359098   2.129098   3.695111
    17  H    3.748077   3.024686   4.565057   3.195243   2.418055
    18  H    4.199169   3.268899   3.448348   4.287902   3.389250
    19  H    2.509113   3.968704   3.031874   2.582341   3.202095
    20  C    3.348693   2.488208   1.367286   4.641774   5.663376
    21  C    4.475218   3.831379   2.365051   5.798217   6.796920
    22  C    4.853569   4.713673   2.790187   6.086481   6.990236
    23  N    4.140872   4.447427   2.372750   5.203108   6.005450
    24  C    2.902693   3.369383   1.414476   3.886689   4.698513
    25  H    3.528308   2.142221   2.084204   4.762441   5.801258
    26  H    5.366660   4.499738   3.353395   6.716291   7.741106
    27  O    6.042152   5.917246   4.016630   7.272813   8.153956
    28  O    2.781604   3.768264   2.270944   3.347913   3.954263
                   11         12         13         14         15
    11  O    0.000000
    12  C    3.694166   0.000000
    13  H    2.422205   2.175441   0.000000
    14  O    4.249138   1.406050   3.368248   0.000000
    15  H    3.884126   1.101809   2.464279   2.037201   0.000000
    16  H    4.493976   1.104697   2.515457   2.086154   1.785181
    17  H    0.965002   4.427567   3.363637   4.752946   4.636484
    18  H    3.570041   5.035916   5.101459   4.504087   5.591089
    19  H    4.425900   1.960258   3.619160   0.982677   2.860134
    20  C    5.245213   5.419112   5.292292   5.219031   6.455847
    21  C    6.553421   6.375628   6.499562   6.008795   7.447929
    22  C    7.173561   6.322071   6.923538   5.708483   7.393386
    23  N    6.519186   5.210534   6.137849   4.451710   6.248950
    24  C    5.210200   4.001138   4.850422   3.334074   5.040594
    25  H    4.984327   5.785701   5.234883   5.788809   6.763307
    26  H    7.309200   7.383671   7.335478   7.079641   8.453961
    27  O    8.395002   7.413631   8.112011   6.731250   8.478750
    28  O    4.909846   3.096572   4.398504   2.183357   4.058464
                   16         17         18         19         20
    16  H    0.000000
    17  H    5.290715   0.000000
    18  H    5.888057   3.040136   0.000000
    19  H    2.367694   4.864788   4.209701   0.000000
    20  C    5.534427   5.311341   4.147813   4.372995   0.000000
    21  C    6.392061   6.592364   5.048224   5.074926   1.344148
    22  C    6.292293   7.254909   5.395760   4.728719   2.437772
    23  N    5.229590   6.669798   4.843380   3.476708   2.752196
[...]
 003788,0.00006536,0.00002351,-0.00006630,0.00000368,0.00006885,-0.0002
 1395,-0.00078139,0.00012742,-0.00012249,-0.03122861,-0.03698432,-0.077
 01813,-0.01609869,0.22658218,0.23410652,-0.00063597,-0.00037919,-0.000
 52817,0.00064665,-0.00111191,0.00114970,-0.00579626,0.00076354,-0.0007
 1118,0.00051863,0.00155127,-0.00092424,-0.00092565,-0.00037541,0.00045
 647,0.00305822,-0.00051394,0.00095126,0.00107162,0.00104965,0.00049378
 ,0.00838250,0.01395459,0.00761426,-0.00177435,0.00031558,0.00037662,0.
 00030295,-0.00002353,-0.00001571,0.00116845,0.00093198,0.00023865,-0.0
 0068263,-0.00024837,-0.00142015,0.00045446,0.00005426,0.00019262,0.003
 60107,-0.00072113,0.00080764,0.00047707,-0.00003633,0.00008377,-0.0001
 4767,-0.00000994,0.00029008,-0.00043406,-0.00031417,0.00005538,-0.0001
 7543,-0.00066993,0.00067301,-0.00538006,0.00155936,-0.00030279,-0.0063
 9164,-0.03373379,-0.02086506,-0.09912852,-0.02458741,-0.01375972,0.881
 84966,0.00029132,0.00015447,-0.00054916,0.00038272,0.00035773,0.001240
 77,-0.00571741,-0.00257002,-0.00346455,0.00035785,-0.00090005,-0.00053
 636,0.00087197,0.00061425,-0.00046537,0.00324511,-0.00230383,0.0009073
 8,-0.00120039,-0.00060715,-0.00019217,0.01401536,-0.03655174,-0.018709
 41,-0.00088723,0.00057868,0.00081355,0.00033583,-0.00000725,-0.0000136
 8,0.00005731,-0.00046102,-0.00018580,0.00092730,0.00082933,0.00147709,
 0.00029139,-0.00014596,-0.00009726,-0.00361616,-0.00024920,-0.00091437
 ,-0.00019806,-0.00018448,-0.00020981,0.00003513,-0.00003629,-0.0001861
 8,-0.00019467,0.00004053,0.00007243,-0.00033690,0.00036666,0.00065117,
 0.00530486,-0.00077408,0.00013925,-0.05304062,0.01915456,0.00827008,-0
 .00555603,-0.17790133,-0.05899060,0.03271868,0.47741911,0.00019955,-0.
 00001814,-0.00041343,0.00041835,0.00017157,0.00106320,-0.00321470,-0.0
 0115546,-0.00212474,0.00011451,-0.00036187,-0.00052937,0.00054281,0.00
 043316,-0.00027980,0.00155247,-0.00126886,0.00009391,-0.00057375,-0.00
 028525,0.00012883,0.00780089,-0.01609454,-0.01727486,-0.00066494,0.000
 27646,0.00042425,0.00022320,-0.00001712,-0.00000529,0.00004423,-0.0001
 5341,-0.00014650,0.00042414,0.00038424,0.00062852,0.00014892,-0.000066
 79,-0.00003527,-0.00114557,-0.00017900,-0.00071025,-0.00006889,-0.0000
 9141,-0.00010215,-0.00000780,-0.00000045,-0.00008916,-0.00008801,0.000
 00562,0.00007563,-0.00008011,0.00017227,0.00043701,0.00173459,-0.00040
 187,0.00075447,-0.02957606,0.00817883,0.00910862,-0.00354962,-0.058982
 79,-0.11722689,0.05655328,0.15524799,0.30998132,0.00103334,0.00053412,
 0.00019066,-0.00078084,0.00175055,-0.00050352,0.00395230,-0.00169424,-
 0.00106945,-0.00008690,-0.00279593,0.00075661,0.00190070,0.00140722,-0
 .00124579,-0.00091176,-0.00158109,-0.00095252,-0.00165330,-0.00147431,
 -0.00066707,-0.02051235,-0.04994640,-0.02871338,0.00121603,0.00029698,
 0.00016460,-0.00004067,0.00004405,-0.00003505,-0.00120899,-0.00141576,
 -0.00039515,0.00168948,0.00114570,0.00351741,-0.00027461,-0.00023062,-
 0.00028189,-0.00908804,0.00135294,-0.00213376,-0.00078858,-0.00014132,
 -0.00044360,0.00014680,-0.00000168,-0.00064553,0.00025975,0.00034842,-
 0.00005147,-0.00038700,0.00072735,-0.00027230,0.01331473,-0.00431617,0
 .00114137,-0.03362747,0.01903637,0.01101836,0.02503550,0.01730443,0.00
 831356,-0.15969874,0.09027152,0.04738435,0.72105299,-0.00030055,-0.000
 22517,0.00009753,0.00111002,-0.00040368,-0.00099689,0.00391262,-0.0063
 2185,-0.00305163,-0.00024510,0.00101695,0.00037076,-0.00077063,-0.0004
 4548,0.00087382,-0.00157166,0.00234541,-0.00023800,-0.00179716,-0.0006
 8217,-0.00004491,-0.03962478,0.00103703,-0.01001497,0.00056095,-0.0005
 0773,-0.00053535,-0.00020409,-0.00000036,0.00004777,-0.00004492,0.0005
 9196,0.00027679,-0.00085050,-0.00080556,-0.00145158,-0.00016020,0.0001
 1938,0.00008617,0.00404638,-0.00025414,0.00108155,0.00025931,0.0001670
 1,0.00021559,-0.00002302,0.00003775,0.00019857,0.00015877,-0.00004841,
 -0.00008493,0.00024886,-0.00023434,-0.00035185,-0.00547278,0.00178543,
 -0.00083274,0.00524394,-0.00216882,-0.00054855,0.01900908,-0.02353197,
 -0.02360959,0.06849093,-0.19220227,-0.07204895,-0.09165723,0.30520189,
 -0.00015315,-0.00019933,0.00010741,-0.00034138,-0.00006379,-0.00060052
 ,0.00206069,-0.00555194,0.00163198,-0.00004836,0.00018073,0.00048960,-
 0.00035284,-0.00039396,0.00005541,0.00024604,0.00130758,0.00042771,-0.
 00134848,-0.00003653,-0.00060168,-0.02059205,-0.01036794,0.01439798,0.
 00045197,-0.00017272,-0.00006650,-0.00012189,0.00000263,0.00002111,-0.
 00009743,0.00017069,0.00014418,-0.00041464,-0.00029799,-0.00077254,-0.
 00001997,0.00004619,0.00001707,0.00183242,-0.00019164,0.00051920,0.000
 08553,0.00007551,0.00012608,0.00001464,-0.00001282,0.00013123,0.000044
 67,-0.00001131,-0.00009839,-0.00008764,-0.00023168,-0.00032992,-0.0024
 9291,0.00082907,-0.00006235,0.00184188,-0.00044328,-0.00065719,0.01078
 375,-0.02424731,0.00545824,0.03454791,-0.06914728,-0.09922285,-0.02659
 652,0.13047273,0.13005489,-0.00171361,-0.00066372,-0.00004412,0.001795
 99,-0.00370922,-0.00065331,-0.00629779,-0.03510291,-0.01424595,0.00012
 480,0.00473140,-0.00047425,-0.00555633,-0.00239013,0.00374507,0.001350
 63,0.00625833,0.00110360,-0.00504911,0.00016133,0.00061823,-0.14387551
 ,0.00336800,0.00320439,-0.00169748,-0.00061412,-0.00095159,-0.00005421
 ,0.00003572,-0.00000135,0.00156087,0.00243473,0.00101392,-0.00311034,-
 0.00122511,-0.00431182,0.00036309,0.00028549,0.00042904,0.00932102,-0.
 00112239,0.00172734,0.00092674,0.00013735,0.00033342,-0.00026657,0.000
 02246,0.00073109,-0.00016873,-0.00049999,-0.00009368,0.00077143,-0.001
 36056,0.00012189,-0.01536929,0.00511579,0.00142836,0.04758253,-0.00247
 485,-0.00265744,-0.01869096,-0.01140783,-0.00651529,-0.07735858,0.0363
 0860,0.01695333,-0.34595572,-0.03270335,-0.02552127,0.83640030,0.00155
 670,0.00066454,-0.00218042,0.00010082,0.00058179,0.00432653,-0.0365741
 4,0.00686599,-0.00222099,0.00146238,-0.00399990,-0.00142449,0.00315133
 ,0.00318398,-0.00272355,0.01073701,-0.01089522,0.00161910,0.00430632,0
 .00344141,-0.00000285,-0.01241368,-0.10783781,-0.02768600,-0.00275812,
 0.00196774,0.00290256,0.00130824,-0.00008083,-0.00003977,0.00045566,-0
 .00150321,-0.00060385,0.00402979,0.00313802,0.00562713,0.00097207,-0.0
 0056234,-0.00031671,-0.01627768,0.00183259,-0.00369788,-0.00087302,-0.
 00072656,-0.00085423,0.00004439,-0.00016628,-0.00078905,-0.00071824,-0
 .00004379,0.00023568,-0.00174393,0.00004261,0.00233587,0.02180988,-0.0
 0929732,0.00169344,0.03086330,-0.04051680,-0.02129407,-0.01664675,-0.0
 0509892,-0.00316188,0.01753821,0.01630434,0.02145350,-0.04882043,-0.10
 654352,-0.02199261,-0.16543809,0.51867896,0.00085142,0.00018549,-0.000
 92028,0.00088541,0.00164028,0.00342525,-0.01979894,0.00574006,-0.00524
 455,0.00046825,-0.00167671,-0.00128375,0.00261178,0.00120225,-0.001489
 48,0.00544219,-0.00630224,0.00046911,0.00339656,0.00063080,0.00179126,
 -0.00472150,-0.02036697,-0.07662148,-0.00251653,0.00117028,0.00164754,
 0.00060622,0.00003733,-0.00014625,0.00013224,-0.00075005,-0.00052555,0
 .00216700,0.00161147,0.00354560,0.00068535,-0.00032544,-0.00017249,-0.
 01098372,0.00109080,-0.00155936,-0.00043907,-0.00041101,-0.00062787,0.
 00001728,0.00004681,-0.00053855,-0.00024008,0.00001521,0.00020548,-0.0
 0046572,0.00054782,0.00111723,0.01467494,-0.00382699,-0.00065553,0.017
 04195,-0.02452143,-0.01361879,-0.00929774,-0.00372532,-0.00150240,0.00
 706217,0.02014211,-0.00790623,-0.03497725,-0.01996351,-0.08284378,-0.0
 6800180,0.14734620,0.29426216,-0.00002406,0.00002472,0.00001579,-0.000
 13384,-0.00020650,-0.00002190,-0.00004678,0.00464980,0.00184799,0.0000
 1243,0.00006373,-0.00015278,0.00010330,0.00009612,-0.00013475,0.000357
 73,-0.00069405,0.00036833,-0.00072977,-0.00013766,0.00019718,0.0068278
 9,0.01858132,0.01112178,-0.00027599,0.00011027,0.00010047,0.00004047,-
 0.00000757,-0.00001705,0.00011400,-0.00000412,-0.00004857,0.00004171,0
 .00005939,0.00003840,0.00006181,0.00000791,-0.00000130,-0.00009620,-0.
 00004730,-0.00004772,0.00001182,-0.00001729,-0.00001468,-0.00000899,-0
 .00000207,0.00000256,-0.00004470,-0.00002327,0.00003298,0.00004186,-0.
 00004093,0.00002135,0.00015862,-0.00000860,0.00003833,-0.09711152,-0.0
 9047137,-0.05380382,-0.00384786,-0.02572274,-0.01517457,-0.00448041,0.
 00378329,0.00246483,0.00101258,-0.00044168,-0.00025468,-0.00389973,0.0
 0025876,0.00053393,0.10292691,-0.00000206,-0.00003578,-0.00003760,0.00
 033849,0.00061288,-0.00011212,-0.00400045,-0.00142059,0.00078840,0.000
 02443,0.00001126,0.00016622,-0.00026596,-0.00004176,0.00025684,0.00032
 790,0.00029996,0.00017733,0.00097896,0.00138881,0.00028881,-0.00834095
 ,-0.02004190,-0.01316347,0.00024276,-0.00000588,0.00009281,-0.00002604
 ,-0.00000352,0.00001679,-0.00004740,0.00006594,0.00008013,-0.00012569,
 -0.00008059,-0.00018175,0.00004253,-0.00000460,-0.00001384,0.00037662,
 0.00003290,0.00014525,0.00001517,0.00002601,0.00002776,-0.00000173,-0.
 00000825,0.00002708,0.00002476,0.00000427,-0.00003477,-0.00006288,-0.0
 0007783,-0.00007259,-0.00057001,0.00011558,-0.00009421,-0.08313054,-0.
 22621420,-0.11211699,0.00052773,0.00109677,-0.00411890,-0.00006391,0.0
 0480165,-0.00400039,-0.00100249,-0.00032464,0.00100511,0.00549895,0.00
 449254,0.00024373,0.08978855,0.23968645,0.00007062,-0.00009979,-0.0001
 3955,0.00040753,-0.00010240,0.00034406,-0.00176610,-0.00061337,-0.0012
 1547,-0.00023408,0.00035578,0.00006511,-0.00015445,-0.00002162,0.00009
 511,-0.00016663,0.00059689,-0.00000835,0.00075448,0.00070626,0.0004304
 7,-0.00529110,-0.01256028,-0.00450470,0.00009299,0.00003192,-0.0000533
 9,0.00001020,0.00000026,0.00002463,-0.00005657,0.00012396,0.00002644,-
 0.00008281,-0.00005734,-0.00007471,-0.00000957,0.00000123,-0.00000213,
 0.00022262,0.00003464,0.00005338,0.00000832,0.00001849,0.00001923,-0.0
 0000177,0.00001075,0.00000387,0.00008593,-0.00002515,0.00000119,0.0000
 6017,-0.00018512,-0.00019694,-0.00035427,0.00005530,-0.00004415,-0.049
 24663,-0.11249060,-0.10492089,-0.00048634,-0.00430306,0.00583989,-0.00
 021590,-0.00388829,0.00953329,-0.00015392,0.00098022,-0.00148730,0.003
 20856,0.00103190,0.00296917,0.05322297,0.12828245,0.09976615,-0.000009
 28,0.00006913,0.00009466,-0.00020821,0.00001020,-0.00029562,0.00042586
 ,0.00103650,0.00089678,-0.00002329,-0.00011682,0.00011278,0.00001624,-
 0.00002243,-0.00000864,-0.00042012,0.00010893,-0.00005336,-0.00004947,
 -0.00004006,-0.00004438,-0.00392365,-0.00301436,-0.00191204,0.00009194
 ,-0.00005757,-0.00007096,-0.00004915,-0.00000024,-0.00000921,-0.000059
 34,-0.00007274,-0.00002013,-0.00001266,-0.00002402,0.00001098,-0.00005
 403,0.00001473,-0.00000607,-0.00001876,0.00003805,-0.00000342,-0.00001
 180,0.00001241,0.00000542,0.00000635,0.00000393,-0.00000690,0.00002099
 ,0.00002707,-0.00000113,0.00000366,0.00004476,-0.00004466,0.00003247,-
 0.00004010,-0.00000016,-0.01339518,0.02172582,0.01289758,-0.18468246,0
 .12600723,0.07410804,0.00701218,-0.00648591,-0.00403329,0.00081059,-0.
 00238113,-0.00126513,-0.00054846,-0.00078427,-0.00043935,0.00060214,-0
 .00026963,-0.00008973,0.19330636,-0.00001494,0.00000471,-0.00006540,0.
 00020885,0.00000586,0.00008200,0.00001735,0.00084698,-0.00063468,0.000
 00486,0.00004011,0.00000200,-0.00005997,-0.00002470,0.00003772,-0.0004
 6226,0.00004480,-0.00007699,-0.00002312,0.00002308,0.00008464,-0.00258
 159,0.00368330,-0.00308981,-0.00003027,-0.00001969,-0.00011917,0.00001
 471,-0.00000789,0.00001311,0.00004303,0.00003270,0.00002336,-0.0000609
 6,-0.00003509,-0.00010387,-0.00003310,0.00001404,0.00001984,0.00022909
 ,-0.00001781,0.00007877,0.00001965,0.00001051,0.00001193,-0.00000440,-
 0.00000588,0.00001830,-0.00001786,-0.00001154,0.00000114,-0.00001266,-
 0.00002392,-0.00000547,-0.00030779,0.00007932,-0.00003017,-0.00747080,
 0.00441733,0.00340568,0.12948406,-0.16769757,-0.08375390,0.02232624,-0
 .00786025,-0.00530159,-0.00099848,-0.00482170,-0.00371568,-0.00344229,
 -0.00085183,-0.00058760,0.00066292,-0.00079837,0.00285674,-0.13689158,
 0.17100476,-0.00006456,-0.00000171,0.00015644,-0.00048410,-0.00018091,
 -0.00025722,-0.00082295,-0.00079283,0.00152478,0.00000157,0.00007423,-
 0.00000913,0.00001565,0.00000008,-0.00000781,0.00064842,0.00003944,0.0
 0013920,0.00000442,0.00005896,-0.00001168,-0.00062368,-0.00272754,0.00
 718585,-0.00001840,0.00001356,0.00015415,-0.00005240,0.00001554,-0.000
 02408,0.00000656,0.00001664,-0.00002322,-0.00000722,-0.00001670,-0.000
 01885,0.00004622,-0.00000557,-0.00001441,0.00008726,0.00000175,0.00000
 479,0.00001078,-0.00000447,0.00000076,-0.00000165,0.00001089,-0.000000
 40,0.00001046,-0.00000083,0.00000550,0.00002503,-0.00004119,0.00000992
 ,-0.00012607,0.00003946,-0.00001796,-0.00435911,0.00351475,0.00061720,
 0.07569362,-0.08364837,-0.07615594,0.01344718,-0.00517037,-0.00112463,
 -0.00045032,-0.00402445,-0.00076654,-0.00218585,-0.00073723,-0.0004515
 4,0.00036221,0.00283637,-0.00393234,-0.08059674,0.08828083,0.07369008,
 0.00049604,0.00029281,0.00064677,-0.00079653,0.00112335,-0.00127164,0.
 00606844,0.00017219,0.00162182,-0.00043586,-0.00116799,0.00088633,0.00
 057010,0.00019019,-0.00033264,-0.00339344,0.00100516,-0.00109189,-0.00
 038866,-0.00025721,-0.00014343,-0.00938216,-0.00643758,-0.00232984,0.0
 0170059,-0.00035023,-0.00055853,-0.00032920,0.00002954,-0.00000116,-0.
 00098323,-0.00073156,-0.00017976,0.00039993,0.00009439,0.00103120,-0.0
 0045224,-0.00002012,-0.00013571,-0.00267267,0.00077731,-0.00059215,-0.
 00037922,0.00005837,-0.00004981,0.00011004,0.00001496,-0.00022803,0.00
 038671,0.00025776,-0.00006613,0.00016283,0.00047406,-0.00068907,0.0039
 9717,-0.00148782,0.00032770,0.00627685,-0.00380188,-0.00224249,-0.0440
 8940,-0.02794382,-0.02025438,-0.56444713,-0.08889645,-0.08173013,-0.09
 514932,0.02461267,0.00697184,0.02749935,0.00835837,0.00478924,-0.00178
 780,-0.00078915,-0.00023352,0.00098429,-0.00179172,-0.00109470,0.69068
 591,-0.00002174,-0.00003157,0.00022046,-0.00021486,0.00003147,-0.00046
 375,0.00198114,0.00054922,0.00153843,-0.00017934,0.00015673,0.00023058
 ,-0.00013992,-0.00012533,0.00008641,-0.00120236,0.00078896,-0.00038075
 ,0.00037536,0.00029360,0.00005880,-0.00305385,0.00783152,0.00524451,0.
 00047934,-0.00020750,-0.00025911,-0.00013640,0.00000863,0.00000750,-0.
 00015127,0.00006206,0.00002525,-0.00019943,-0.00022516,-0.00025069,-0.
 00012810,0.00003538,0.00000321,0.00060442,0.00019721,0.00018006,0.0000
 0552,0.00005811,0.00005103,0.00000910,0.00001480,0.00001180,0.00011809
 ,0.00001505,-0.00002615,0.00013144,-0.00006637,-0.00025648,-0.00083320
 ,0.00002485,-0.00003763,0.00865391,-0.00915561,-0.00714916,-0.04789691
 ,-0.00220764,-0.01779033,-0.08900078,-0.10767970,-0.02458207,0.0403490
 3,0.01790139,0.00414186,-0.00348534,-0.00420997,-0.00754380,-0.0020491
 4,-0.00116169,0.00092454,0.00087514,0.00205208,0.00212299,0.09110244,0
 .09561960,0.00001151,0.00003398,0.00014970,-0.00012732,0.00014185,-0.0
 0043062,0.00142064,0.00066800,0.00020579,-0.00006811,-0.00007843,0.000
 32451,-0.00008343,-0.00006744,0.00004809,-0.00092493,0.00045602,-0.000
 07980,0.00020415,0.00010317,0.00002267,-0.00224971,0.00426315,0.002064
 77,0.00037957,-0.00010487,-0.00020420,-0.00009619,0.00000746,0.0000086
 3,-0.00011763,-0.00003844,0.00004668,-0.00008565,-0.00009684,-0.000115
 07,-0.00009292,0.00001798,-0.00000133,0.00009786,0.00011282,0.00017198
 ,-0.00002294,0.00003392,0.00002760,0.00001343,-0.00000654,0.00001786,0
 .00005900,0.00002384,-0.00004482,0.00001422,0.00000146,-0.00025341,-0.
 00011264,-0.00001980,-0.00017800,0.00490561,-0.00743556,-0.00163982,-0
 .03206727,-0.01666453,0.01238720,-0.08140205,-0.02536460,-0.09523367,0
 .01589798,0.00479768,0.01808467,-0.00079159,-0.00765618,0.00606041,-0.
 00144573,0.00069354,-0.00201223,0.00066091,0.00221474,-0.00035516,0.09
 438851,0.04321379,0.06224370,0.00182046,0.00098219,-0.00098892,-0.0022
 9614,0.00063331,0.00359296,-0.01434501,0.00600304,-0.00141610,0.000454
 27,-0.00578592,-0.00006287,0.00044420,-0.00122614,-0.00273113,0.004279
 88,-0.00863302,-0.00165101,0.00136534,-0.00012475,-0.00026653,0.022819
 07,0.01733953,0.00553796,-0.00061434,0.00145023,0.00171827,0.00063057,
 0.00002003,-0.00015253,-0.00100096,-0.00231643,-0.00079236,0.00349281,
 0.00387026,0.00921477,0.00025153,-0.00062927,-0.00047688,-0.03190761,0
 .00714931,-0.00670894,-0.00174900,-0.00071358,-0.00170192,0.00004079,-
 0.00000245,-0.00157698,-0.00008744,0.00031409,0.00010224,-0.00128968,0
 .00076396,0.00066852,0.01018065,-0.00730087,-0.00195428,-0.00971679,0.
 00465989,0.00336002,0.00484493,0.00742310,0.00433431,0.01891365,-0.023
 06840,-0.01182659,-0.10126049,0.05059524,0.02082700,-0.29808433,0.1960
 9514,0.09051578,0.00017437,0.00051203,0.00039900,0.00015278,0.00119301
 ,0.00052836,-0.01465139,0.00400768,0.00163472,0.40713787,-0.00015734,-
 0.00149512,0.00061589,-0.00312541,-0.00104716,0.00105144,0.01348477,-0
 .00097365,0.00545135,-0.00114844,-0.00017039,0.00019576,-0.00259611,-0
 .00517219,0.00003449,-0.00555654,0.00474114,-0.00230806,-0.00049997,0.
 00031539,0.00001030,0.02795668,-0.06370852,-0.03910215,0.00239910,-0.0
 0152474,-0.00075124,-0.00074214,-0.00010909,0.00014747,-0.00084526,0.0
 0101147,-0.00016753,-0.00233092,-0.00354284,-0.00657498,-0.00047772,0.
 00057717,0.00019135,0.02385589,0.00018018,0.00487560,0.00120659,0.0007
 0495,0.00126698,-0.00016976,0.00011267,0.00090713,0.00057988,0.0000661
 7,-0.00000894,0.00042383,0.00010924,-0.00085931,-0.02245225,0.00330636
 ,-0.00113230,-0.00827658,-0.00280804,-0.00282352,0.00123182,-0.0027489
 0,-0.00044503,-0.00946454,0.00981331,-0.00131368,0.03150746,0.00931761
 ,-0.00115430,0.20128174,-0.26886019,-0.09164956,0.00178751,-0.00241542
 ,-0.00166432,0.00022697,-0.00008331,0.00032669,0.00511195,-0.00057014,
 0.00074982,-0.25321119,0.32497402,-0.00113755,0.00085269,0.00027427,0.
 00257233,-0.00103962,-0.00204475,0.00622706,0.00287486,-0.00133499,-0.
 00027374,0.00202191,0.00112155,-0.00176419,-0.00021661,0.00139367,-0.0
 0501748,-0.00187942,-0.00209134,-0.00040451,0.00003697,0.00020995,0.01
 325372,-0.04094239,-0.00173436,0.00248965,-0.00011150,-0.00104801,-0.0
 0024223,-0.00000334,0.00007237,0.00077545,0.00055239,0.00079702,0.0002
 8963,-0.00090896,-0.00121293,-0.00043765,0.00011561,0.00013979,0.00368
 100,-0.00004624,0.00518842,0.00015323,0.00019368,0.00034485,0.00020267
 ,-0.00016089,0.00050856,-0.00011173,-0.00018140,-0.00013765,0.00043820
 ,-0.00068765,-0.00075617,-0.00900908,0.00216294,-0.00755826,-0.0038179
 3,-0.00274083,0.00241946,0.00065042,-0.00010506,-0.00197359,-0.0048488
 1,-0.00087657,0.01019604,0.01120360,-0.00170128,0.01584278,0.09183105,
 -0.09119015,-0.11938531,0.00074845,-0.00118200,-0.00057985,0.00011374,
 0.00035353,-0.00031777,0.00256158,0.00067869,-0.00131616,-0.11012686,0
 .13413064,0.10298241\\-0.00000901,0.00002997,-0.00001426,-0.00001775,0
 .00000883,-0.00001022,0.00000753,0.00001199,0.00001472,0.00004330,-0.0
 0001013,0.00000850,-0.00000012,-0.00000214,-0.00000031,-0.00000976,-0.
 00001445,-0.00000631,0.00000016,0.00000316,-0.00000607,0.00000026,0.00
 000417,-0.00001750,0.00000822,0.00000128,0.00000565,0.00000234,-0.0000
 0126,0.00000219,0.00001297,-0.00001308,-0.00000849,0.00000546,-0.00000
 015,0.00000289,-0.00000019,0.00000431,-0.00000047,0.00000089,0.0000020
 7,0.00000541,-0.00000093,-0.00000078,-0.00000292,0.00000170,0.00000183
 ,-0.00000014,-0.00001244,-0.00000186,0.00000795,-0.00002046,-0.0000091
 5,0.00000456,-0.00000376,-0.00000255,-0.00000872,0.00000037,0.00000152
 ,0.00000752,-0.00000041,0.00000324,0.00000150,-0.00000463,-0.00000859,
 0.00000023,0.00000215,0.00000317,-0.00000358,-0.00000363,-0.00001754,0
 .00001633,-0.00000015,0.00000054,-0.00000169,0.00000198,0.00000166,0.0
 0000174,0.00000335,0.00000079,0.00000110,-0.00000746,0.00000317,0.0000
 0038\\\@
 The archive entry for this job was punched.


 THE MORE POWERFUL THE METHOD, THE MORE CATASTROPHIC THE ERRORS.
     -- M.D. KAMEN
 Job cpu time:       0 days 10 hours  9 minutes 34.8 seconds.
 Elapsed time:       0 days  0 hours 15 minutes 22.8 seconds.
 File lengths (MBytes):  RWF=    600 Int=      0 D2E=      0 Chk=     20 Scr=      1
 Normal termination of Gaussian 16 at Thu Oct 24 07:55:40 2024.
