 Entering Gaussian System, Link 0=g16
 Input=UridineRSallgPBE0aVDZ.gjf
 Output=UridineRSallgPBE0aVDZ.log
 Initial command:
 /sw/contrib/chem-src/g16/c01/g16/l1.exe "/scr/Gau-80132.inp" -scrdir="/scr/"
 Entering Link 1 = /sw/contrib/chem-src/g16/c01/g16/l1.exe PID=     80133.
  
 Copyright (c) 1988-2019, Gaussian, Inc.  All Rights Reserved.
  
 This is part of the Gaussian(R) 16 program.  It is based on
 the Gaussian(R) 09 system (copyright 2009, Gaussian, Inc.),
 the Gaussian(R) 03 system (copyright 2003, Gaussian, Inc.),
 the Gaussian(R) 98 system (copyright 1998, Gaussian, Inc.),
 the Gaussian(R) 94 system (copyright 1995, Gaussian, Inc.),
 the Gaussian 92(TM) system (copyright 1992, Gaussian, Inc.),
 the Gaussian 90(TM) system (copyright 1990, Gaussian, Inc.),
 the Gaussian 88(TM) system (copyright 1988, Gaussian, Inc.),
 the Gaussian 86(TM) system (copyright 1986, Carnegie Mellon
 University), and the Gaussian 82(TM) system (copyright 1983,
 Carnegie Mellon University). Gaussian is a federally registered
 trademark of Gaussian, Inc.
  
 This software contains proprietary and confidential information,
 including trade secrets, belonging to Gaussian, Inc.
  
 This software is provided under written license and may be
 used, copied, transmitted, or stored only in accord with that
 written license.
  
 The following legend is applicable only to US Government
 contracts under FAR:
  
                    RESTRICTED RIGHTS LEGEND
  
 Use, reproduction and disclosure by the US Government is
 subject to restrictions as set forth in subparagraphs (a)
 and (c) of the Commercial Computer Software - Restricted
 Rights clause in FAR 52.227-19.
  
 Gaussian, Inc.
 340 Quinnipiac St., Bldg. 40, Wallingford CT 06492
  
  
 ---------------------------------------------------------------
 Warning -- This program may not be used in any manner that
 competes with the business of Gaussian, Inc. or will provide
 assistance to any competitor of Gaussian, Inc.  The licensee
 of this program is prohibited from giving any competitor of
 Gaussian, Inc. access to this program.  By using this program,
 the user acknowledges that Gaussian, Inc. is engaged in the
 business of creating and licensing software in the field of
 computational chemistry and represents and warrants to the
 licensee that it is not a competitor of Gaussian, Inc. and that
 it will not use this program in any manner prohibited above.
 ---------------------------------------------------------------
  

 Cite this work as:
 Gaussian 16, Revision C.01,
 M. J. Frisch, G. W. Trucks, H. B. Schlegel, G. E. Scuseria, 
 M. A. Robb, J. R. Cheeseman, G. Scalmani, V. Barone, 
 G. A. Petersson, H. Nakatsuji, X. Li, M. Caricato, A. V. Marenich, 
 J. Bloino, B. G. Janesko, R. Gomperts, B. Mennucci, H. P. Hratchian, 
 J. V. Ortiz, A. F. Izmaylov, J. L. Sonnenberg, D. Williams-Young, 
 F. Ding, F. Lipparini, F. Egidi, J. Goings, B. Peng, A. Petrone, 
 T. Henderson, D. Ranasinghe, V. G. Zakrzewski, J. Gao, N. Rega, 
 G. Zheng, W. Liang, M. Hada, M. Ehara, K. Toyota, R. Fukuda, 
 J. Hasegawa, M. Ishida, T. Nakajima, Y. Honda, O. Kitao, H. Nakai, 
 T. Vreven, K. Throssell, J. A. Montgomery, Jr., J. E. Peralta, 
 F. Ogliaro, M. J. Bearpark, J. J. Heyd, E. N. Brothers, K. N. Kudin, 
 V. N. Staroverov, T. A. Keith, R. Kobayashi, J. Normand, 
 K. Raghavachari, A. P. Rendell, J. C. Burant, S. S. Iyengar, 
 J. Tomasi, M. Cossi, J. M. Millam, M. Klene, C. Adamo, R. Cammi, 
 J. W. Ochterski, R. L. Martin, K. Morokuma, O. Farkas, 
 J. B. Foresman, and D. J. Fox, Gaussian, Inc., Wallingford CT, 2019.
 
 ******************************************
 Gaussian 16:  EM64L-G16RevC.01  3-Jul-2019
                26-Oct-2024 
 ******************************************
 %nprocshared=40
 Will use up to   40 processors via shared memory.
 %mem=50gb
 ------------------------------------------------------
 # PBE1PBE/aug-cc-pVDZ opt freq EmpiricalDispersion=GD3
 ------------------------------------------------------
 1/18=20,19=15,26=3,38=1/1,3;
 2/9=110,12=2,17=6,18=5,40=1/2;
 3/5=16,7=10,11=2,25=1,30=1,71=1,74=-13,124=31/1,2,3;
 4//1;
 5/5=2,38=5/2;
 6/7=2,8=2,9=2,10=2,28=1/1;
 7//1,2,3,16;
 1/18=20,19=15,26=3/3(2);
 2/9=110/2;
 99//99;
 2/9=110/2;
 3/5=16,7=10,11=2,25=1,30=1,71=1,74=-13,124=31/1,2,3;
 4/5=5,16=3,69=1/1;
 5/5=2,38=5/2;
 7//1,2,3,16;
 1/18=20,19=15,26=3/3(-5);
 2/9=110/2;
 6/7=2,8=2,9=2,10=2,19=2,28=1/1;
 99/9=1/99;
 ----
 blah
 ----
 Symbolic Z-matrix:
 Charge =  0 Multiplicity = 2
 C                    -2.683    -0.52144   0.29009 
 C                    -1.27766  -0.71746   0.84021 
 C                    -0.43861  -0.71732  -0.44249 
 O                    -1.20099  -1.94978   1.54471 
 H                    -0.99714   0.1291    1.47404 
 O                    -1.08415   0.17814  -1.32676 
 H                    -0.48151  -1.74081  -0.85509 
 N                     0.95556  -0.41018  -0.28925 
 C                    -2.4392    0.39567  -0.90902 
 H                    -3.3523   -0.05363   1.02754 
 O                    -3.22342  -1.75565  -0.16597 
 C                    -2.63981   1.87334  -0.61166 
 H                    -3.10869   0.09144  -1.73035 
 O                    -2.01977   2.30165   0.56615 
 H                    -3.72141   2.062    -0.50525 
 H                    -2.28781   2.43806  -1.49591 
 H                    -2.89351  -2.4313    0.43988 
 H                    -0.31039  -2.02759   1.89909 
 H                    -1.05561   2.08256   0.52507 
 C                     1.88024  -1.26184  -0.84511 
 C                     3.20199  -1.03937  -0.72744 
 C                     3.66471   0.1405    0.01803 
 N                     2.71499   1.00326   0.49679 
 C                     1.4119    0.79318   0.34888 
 H                     1.46562  -2.12138  -1.37455 
 H                     3.93307  -1.71845  -1.16154 
 O                     4.87789   0.32892   0.19 
 O                     0.5295    1.58008   0.75878 
 

 GradGradGradGradGradGradGradGradGradGradGradGradGradGradGradGradGradGrad
 Berny optimization.
 Initialization pass.
                           ----------------------------
                           !    Initial Parameters    !
                           ! (Angstroms and Degrees)  !
 --------------------------                            --------------------------
 ! Name  Definition              Value          Derivative Info.                !
 --------------------------------------------------------------------------------
 ! R1    R(1,2)                  1.5219         estimate D2E/DX2                !
 ! R2    R(1,9)                  1.5292         estimate D2E/DX2                !
 ! R3    R(1,10)                 1.1003         estimate D2E/DX2                !
 ! R4    R(1,11)                 1.4224         estimate D2E/DX2                !
 ! R5    R(2,3)                  1.5328         estimate D2E/DX2                !
 ! R6    R(2,4)                  1.4216         estimate D2E/DX2                !
 ! R7    R(2,5)                  1.0941         estimate D2E/DX2                !
 ! R8    R(3,6)                  1.4144         estimate D2E/DX2                !
 ! R9    R(3,7)                  1.1044         estimate D2E/DX2                !
 ! R10   R(3,8)                  1.4358         estimate D2E/DX2                !
 ! R11   R(4,18)                 0.9617         estimate D2E/DX2                !
 ! R12   R(6,9)                  1.4346         estimate D2E/DX2                !
 ! R13   R(8,20)                 1.3745         estimate D2E/DX2                !
 ! R14   R(8,24)                 1.4365         estimate D2E/DX2                !
 ! R15   R(9,12)                 1.5206         estimate D2E/DX2                !
 ! R16   R(9,13)                 1.1024         estimate D2E/DX2                !
 ! R17   R(11,17)                0.9656         estimate D2E/DX2                !
 ! R18   R(12,14)                1.3983         estimate D2E/DX2                !
 ! R19   R(12,15)                1.1031         estimate D2E/DX2                !
 ! R20   R(12,16)                1.1067         estimate D2E/DX2                !
 ! R21   R(14,19)                0.9896         estimate D2E/DX2                !
 ! R22   R(20,21)                1.3455         estimate D2E/DX2                !
 ! R23   R(20,25)                1.0913         estimate D2E/DX2                !
 ! R24   R(21,22)                1.4703         estimate D2E/DX2                !
 ! R25   R(21,26)                1.0881         estimate D2E/DX2                !
 ! R26   R(22,23)                1.3695         estimate D2E/DX2                !
 ! R27   R(22,27)                1.2397         estimate D2E/DX2                !
 ! R28   R(23,24)                1.3282         estimate D2E/DX2                !
 ! R29   R(24,28)                1.2513         estimate D2E/DX2                !
 ! A1    A(2,1,9)              102.3266         estimate D2E/DX2                !
 ! A2    A(2,1,10)             111.975          estimate D2E/DX2                !
 ! A3    A(2,1,11)             110.7925         estimate D2E/DX2                !
 ! A4    A(9,1,10)             111.5648         estimate D2E/DX2                !
 ! A5    A(9,1,11)             109.2406         estimate D2E/DX2                !
 ! A6    A(10,1,11)            110.6518         estimate D2E/DX2                !
 ! A7    A(1,2,3)              101.7113         estimate D2E/DX2                !
 ! A8    A(1,2,4)              109.9137         estimate D2E/DX2                !
 ! A9    A(1,2,5)              110.2741         estimate D2E/DX2                !
 ! A10   A(3,2,4)              112.6616         estimate D2E/DX2                !
 ! A11   A(3,2,5)              110.1438         estimate D2E/DX2                !
 ! A12   A(4,2,5)              111.7046         estimate D2E/DX2                !
 ! A13   A(2,3,6)              105.8675         estimate D2E/DX2                !
 ! A14   A(2,3,7)              106.9365         estimate D2E/DX2                !
 ! A15   A(2,3,8)              116.2472         estimate D2E/DX2                !
 ! A16   A(6,3,7)              109.599          estimate D2E/DX2                !
 ! A17   A(6,3,8)              111.9911         estimate D2E/DX2                !
 ! A18   A(7,3,8)              106.0128         estimate D2E/DX2                !
 ! A19   A(2,4,18)             107.6208         estimate D2E/DX2                !
 ! A20   A(3,6,9)              110.1855         estimate D2E/DX2                !
 ! A21   A(3,8,20)             118.5234         estimate D2E/DX2                !
 ! A22   A(3,8,24)             122.349          estimate D2E/DX2                !
 ! A23   A(20,8,24)            119.0108         estimate D2E/DX2                !
 ! A24   A(1,9,6)              106.7374         estimate D2E/DX2                !
 ! A25   A(1,9,12)             114.1064         estimate D2E/DX2                !
 ! A26   A(1,9,13)             108.7767         estimate D2E/DX2                !
 ! A27   A(6,9,12)             109.2029         estimate D2E/DX2                !
 ! A28   A(6,9,13)             108.3511         estimate D2E/DX2                !
 ! A29   A(12,9,13)            109.4968         estimate D2E/DX2                !
 ! A30   A(1,11,17)            106.0309         estimate D2E/DX2                !
 ! A31   A(9,12,14)            113.822          estimate D2E/DX2                !
 ! A32   A(9,12,15)            108.326          estimate D2E/DX2                !
 ! A33   A(9,12,16)            107.3174         estimate D2E/DX2                !
 ! A34   A(14,12,15)           107.5273         estimate D2E/DX2                !
 ! A35   A(14,12,16)           112.0675         estimate D2E/DX2                !
 ! A36   A(15,12,16)           107.5587         estimate D2E/DX2                !
 ! A37   A(12,14,19)           109.2233         estimate D2E/DX2                !
 ! A38   A(8,20,21)            121.5365         estimate D2E/DX2                !
 ! A39   A(8,20,25)            115.379          estimate D2E/DX2                !
 ! A40   A(21,20,25)           123.0833         estimate D2E/DX2                !
 ! A41   A(20,21,22)           119.0888         estimate D2E/DX2                !
 ! A42   A(20,21,26)           121.4613         estimate D2E/DX2                !
 ! A43   A(22,21,26)           119.4463         estimate D2E/DX2                !
 ! A44   A(21,22,23)           117.6795         estimate D2E/DX2                !
 ! A45   A(21,22,27)           120.0168         estimate D2E/DX2                !
 ! A46   A(23,22,27)           122.3031         estimate D2E/DX2                !
 ! A47   A(22,23,24)           122.8065         estimate D2E/DX2                !
 ! A48   A(8,24,23)            119.5806         estimate D2E/DX2                !
 ! A49   A(8,24,28)            116.6339         estimate D2E/DX2                !
 ! A50   A(23,24,28)           123.7725         estimate D2E/DX2                !
 ! D1    D(9,1,2,3)            -34.6562         estimate D2E/DX2                !
 ! D2    D(9,1,2,4)           -154.2336         estimate D2E/DX2                !
 ! D3    D(9,1,2,5)             82.1838         estimate D2E/DX2                !
 ! D4    D(10,1,2,3)          -154.2522         estimate D2E/DX2                !
 ! D5    D(10,1,2,4)            86.1705         estimate D2E/DX2                !
 ! D6    D(10,1,2,5)           -37.4121         estimate D2E/DX2                !
 ! D7    D(11,1,2,3)            81.6896         estimate D2E/DX2                !
 ! D8    D(11,1,2,4)           -37.8878         estimate D2E/DX2                !
 ! D9    D(11,1,2,5)          -161.4704         estimate D2E/DX2                !
 ! D10   D(2,1,9,6)             24.9852         estimate D2E/DX2                !
 ! D11   D(2,1,9,12)           -95.7348         estimate D2E/DX2                !
 ! D12   D(2,1,9,13)           141.6959         estimate D2E/DX2                !
 ! D13   D(10,1,9,6)           144.8679         estimate D2E/DX2                !
 ! D14   D(10,1,9,12)           24.1479         estimate D2E/DX2                !
 ! D15   D(10,1,9,13)          -98.4214         estimate D2E/DX2                !
 ! D16   D(11,1,9,6)           -92.4748         estimate D2E/DX2                !
 ! D17   D(11,1,9,12)          146.8051         estimate D2E/DX2                !
 ! D18   D(11,1,9,13)           24.2359         estimate D2E/DX2                !
 ! D19   D(2,1,11,17)           35.6135         estimate D2E/DX2                !
 ! D20   D(9,1,11,17)          147.6007         estimate D2E/DX2                !
 ! D21   D(10,1,11,17)         -89.1978         estimate D2E/DX2                !
 ! D22   D(1,2,3,6)             33.6002         estimate D2E/DX2                !
 ! D23   D(1,2,3,7)            -83.2135         estimate D2E/DX2                !
 ! D24   D(1,2,3,8)            158.6443         estimate D2E/DX2                !
 ! D25   D(4,2,3,6)            151.2133         estimate D2E/DX2                !
 ! D26   D(4,2,3,7)             34.3996         estimate D2E/DX2                !
 ! D27   D(4,2,3,8)            -83.7426         estimate D2E/DX2                !
 ! D28   D(5,2,3,6)            -83.3344         estimate D2E/DX2                !
 ! D29   D(5,2,3,7)            159.8519         estimate D2E/DX2                !
 ! D30   D(5,2,3,8)             41.7097         estimate D2E/DX2                !
 ! D31   D(1,2,4,18)          -178.3444         estimate D2E/DX2                !
 ! D32   D(3,2,4,18)            68.9992         estimate D2E/DX2                !
 ! D33   D(5,2,4,18)           -55.6017         estimate D2E/DX2                !
 ! D34   D(2,3,6,9)            -18.7139         estimate D2E/DX2                !
 ! D35   D(7,3,6,9)             96.2904         estimate D2E/DX2                !
 ! D36   D(8,3,6,9)           -146.3491         estimate D2E/DX2                !
 ! D37   D(2,3,8,20)           128.9555         estimate D2E/DX2                !
 ! D38   D(2,3,8,24)           -55.0168         estimate D2E/DX2                !
 ! D39   D(6,3,8,20)          -109.1811         estimate D2E/DX2                !
 ! D40   D(6,3,8,24)            66.8465         estimate D2E/DX2                !
 ! D41   D(7,3,8,20)            10.3079         estimate D2E/DX2                !
 ! D42   D(7,3,8,24)          -173.6644         estimate D2E/DX2                !
 ! D43   D(3,6,9,1)             -4.0649         estimate D2E/DX2                !
 ! D44   D(3,6,9,12)           119.7403         estimate D2E/DX2                !
 ! D45   D(3,6,9,13)          -121.0579         estimate D2E/DX2                !
 ! D46   D(3,8,20,21)         -179.3555         estimate D2E/DX2                !
 ! D47   D(3,8,20,25)            0.2607         estimate D2E/DX2                !
 ! D48   D(24,8,20,21)           4.4816         estimate D2E/DX2                !
 ! D49   D(24,8,20,25)        -175.9021         estimate D2E/DX2                !
 ! D50   D(3,8,24,23)          177.998          estimate D2E/DX2                !
 ! D51   D(3,8,24,28)           -0.7367         estimate D2E/DX2                !
 ! D52   D(20,8,24,23)          -5.993          estimate D2E/DX2                !
 ! D53   D(20,8,24,28)         175.2723         estimate D2E/DX2                !
 ! D54   D(1,9,12,14)           46.8499         estimate D2E/DX2                !
 ! D55   D(1,9,12,15)          -72.6903         estimate D2E/DX2                !
 ! D56   D(1,9,12,16)          171.4503         estimate D2E/DX2                !
 ! D57   D(6,9,12,14)          -72.4864         estimate D2E/DX2                !
 ! D58   D(6,9,12,15)          167.9734         estimate D2E/DX2                !
 ! D59   D(6,9,12,16)           52.1139         estimate D2E/DX2                !
 ! D60   D(13,9,12,14)         169.025          estimate D2E/DX2                !
 ! D61   D(13,9,12,15)          49.4848         estimate D2E/DX2                !
 ! D62   D(13,9,12,16)         -66.3746         estimate D2E/DX2                !
 ! D63   D(9,12,14,19)          55.8596         estimate D2E/DX2                !
 ! D64   D(15,12,14,19)        175.8516         estimate D2E/DX2                !
 ! D65   D(16,12,14,19)        -66.1522         estimate D2E/DX2                !
 ! D66   D(8,20,21,22)           0.2302         estimate D2E/DX2                !
 ! D67   D(8,20,21,26)         179.5304         estimate D2E/DX2                !
 ! D68   D(25,20,21,22)       -179.356          estimate D2E/DX2                !
 ! D69   D(25,20,21,26)         -0.0558         estimate D2E/DX2                !
 ! D70   D(20,21,22,23)         -3.5943         estimate D2E/DX2                !
 ! D71   D(20,21,22,27)        176.668          estimate D2E/DX2                !
 ! D72   D(26,21,22,23)        177.0911         estimate D2E/DX2                !
 ! D73   D(26,21,22,27)         -2.6466         estimate D2E/DX2                !
 ! D74   D(21,22,23,24)          2.0876         estimate D2E/DX2                !
 ! D75   D(27,22,23,24)       -178.1812         estimate D2E/DX2                !
 ! D76   D(22,23,24,8)           2.6215         estimate D2E/DX2                !
 ! D77   D(22,23,24,28)       -178.7392         estimate D2E/DX2                !
 --------------------------------------------------------------------------------
 Trust Radius=3.00D-01 FncErr=1.00D-07 GrdErr=1.00D-06 EigMax=2.50D+02 EigMin=1.00D-04
 Number of steps in this run=    166 maximum allowed number of steps=    168.
 GradGradGradGradGradGradGradGradGradGradGradGradGradGradGradGradGradGrad

                          Input orientation:                          
 ---------------------------------------------------------------------
 Center     Atomic      Atomic             Coordinates (Angstroms)
 Number     Number       Type             X           Y           Z
 ---------------------------------------------------------------------
      1          6           0       -2.682997   -0.521442    0.290090
      2          6           0       -1.277661   -0.717459    0.840214
      3          6           0       -0.438609   -0.717323   -0.442490
      4          8           0       -1.200993   -1.949780    1.544709
      5          1           0       -0.997140    0.129101    1.474041
      6          8           0       -1.084145    0.178139   -1.326756
      7          1           0       -0.481514   -1.740807   -0.855091
      8          7           0        0.955556   -0.410180   -0.289253
      9          6           0       -2.439203    0.395671   -0.909024
     10          1           0       -3.352295   -0.053631    1.027545
     11          8           0       -3.223424   -1.755646   -0.165966
     12          6           0       -2.639809    1.873341   -0.611658
     13          1           0       -3.108692    0.091439   -1.730350
     14          8           0       -2.019771    2.301647    0.566152
     15          1           0       -3.721409    2.061997   -0.505252
     16          1           0       -2.287810    2.438057   -1.495912
     17          1           0       -2.893513   -2.431303    0.439883
     18          1           0       -0.310394   -2.027593    1.899089
     19          1           0       -1.055607    2.082558    0.525065
     20          6           0        1.880238   -1.261837   -0.845106
     21          6           0        3.201991   -1.039367   -0.727438
     22          6           0        3.664712    0.140503    0.018031
     23          7           0        2.714993    1.003263    0.496787
     24          6           0        1.411897    0.793179    0.348880
     25          1           0        1.465623   -2.121382   -1.374550
     26          1           0        3.933065   -1.718445   -1.161537
     27          8           0        4.877890    0.328918    0.190000
     28          8           0        0.529504    1.580077    0.758776
 ---------------------------------------------------------------------
                    Distance matrix (angstroms):
                    1          2          3          4          5
     1  C    0.000000
     2  C    1.521850   0.000000
     3  C    2.369034   1.532755   0.000000
     4  O    2.410509   1.421551   2.459500   0.000000
     5  H    2.160338   1.094117   2.168290   2.090047   0.000000
     6  O    2.379061   2.352723   1.414389   3.575892   2.802577
     7  H    2.764926   2.134280   1.104355   2.514033   3.031053
     8  N    3.686066   2.521383   1.435797   3.222497   2.685712
     9  C    1.529185   2.376567   2.336404   3.613186   2.798143
    10  H    1.100294   2.186291   3.330324   2.913922   2.404060
    11  O    1.422430   2.424092   2.984925   2.655998   3.346376
    12  C    2.559297   3.267357   3.403739   4.619130   3.176614
    13  H    2.153838   3.258035   3.072787   4.304870   3.837733
    14  O    2.913059   3.121032   3.554098   4.438761   2.567098
    15  H    2.895691   3.937964   4.301783   5.162286   3.882696
    16  H    3.479168   4.054031   3.806004   5.447904   3.977151
    17  H    1.927258   2.389248   3.121356   2.077770   3.349833
    18  H    3.238304   1.942491   2.686306   0.961669   2.302958
    19  H    3.079680   2.826433   3.025919   4.161798   2.172549
    20  C    4.760249   3.620632   2.415708   3.959604   3.948728
    21  C    5.994722   4.756936   3.665907   5.037636   4.883086
    22  C    6.387926   5.083221   4.217249   5.511362   4.883949
    23  N    5.612998   4.361205   3.713201   5.015331   3.936892
    24  C    4.301144   3.123645   2.516397   3.972534   2.740519
    25  H    4.747829   3.794969   2.542876   3.957570   4.386838
    26  H    6.878395   5.671036   4.542115   5.808256   5.887837
    27  O    7.609214   6.277618   5.455257   6.631781   6.017031
    28  O    3.867326   2.924235   2.767369   4.009015   2.224315
                    6          7          8          9         10
     6  O    0.000000
     7  H    2.065910   0.000000
     8  N    2.362819   2.038605   0.000000
     9  C    1.434574   2.898274   3.543713   0.000000
    10  H    3.277340   3.825214   4.518702   2.187672   0.000000
    11  O    3.108613   2.827222   4.391965   2.407343   2.082770
    12  C    2.409391   4.216582   4.271424   1.520585   2.628278
    13  H    2.066203   3.320432   4.341255   1.102429   2.772431
    14  O    2.994626   4.552757   4.115616   2.446388   2.745148
    15  H    3.343494   5.008056   5.294555   2.140964   2.638483
    16  H    2.566058   4.597419   4.481953   2.130422   3.702631
    17  H    3.633733   2.823381   4.408164   3.165080   2.491817
    18  H    3.983719   2.774353   3.001249   4.276627   3.729514
    19  H    2.656476   4.105184   3.304789   2.610850   3.176565
    20  C    3.330628   2.409852   1.374529   4.626985   5.687353
    21  C    4.495827   3.751869   2.373679   5.823691   6.856406
    22  C    4.935738   4.636039   2.781583   6.179184   7.091910
    23  N    4.294134   4.424381   2.389832   5.376914   6.181481
    24  C    3.068592   3.384618   1.436501   4.070787   4.886225
    25  H    3.433861   2.050858   2.089557   4.669040   5.766974
    26  H    5.366258   4.425259   3.367194   6.718560   7.787179
    27  O    6.153791   5.839451   4.020032   7.399470   8.281532
    28  O    2.986425   3.828184   2.289325   3.605218   4.220142
                   11         12         13         14         15
    11  O    0.000000
    12  C    3.702539   0.000000
    13  H    2.423259   2.155574   0.000000
    14  O    4.294928   1.398259   3.368188   0.000000
    15  H    3.864906   1.103074   2.399872   2.025071   0.000000
    16  H    4.497919   1.106667   2.497083   2.083881   1.782704
    17  H    0.965612   4.438475   3.334732   4.814580   4.665666
    18  H    3.581082   5.191080   5.049118   4.841592   5.842998
    19  H    4.461924   1.961022   3.642336   0.989596   2.858055
    20  C    5.172277   5.505875   5.244467   5.468102   6.522409
    21  C    6.489550   6.528698   6.489166   6.332657   7.589552
    22  C    7.146723   6.568578   6.995588   6.106089   7.649885
    23  N    6.581460   5.537110   6.301339   4.910051   6.599414
    24  C    5.314864   4.301826   5.025073   3.754867   5.356330
    25  H    4.856089   5.778788   5.093872   5.956298   6.720241
    26  H    7.225502   7.510391   7.292844   7.387984   8.562326
    27  O    8.372778   7.716456   8.217642   7.184071   8.799709
    28  O    5.105552   3.465348   4.652769   2.656421   4.460972
                   16         17         18         19         20
    16  H    0.000000
    17  H    5.274926   0.000000
    18  H    5.947961   2.994122   0.000000
    19  H    2.393544   4.874433   4.397343   0.000000
    20  C    5.611184   5.080113   3.593864   4.656343   0.000000
    21  C    6.543771   6.360448   4.495785   5.426078   1.345500
    22  C    6.557690   7.057086   4.903110   5.129335   2.428150
    23  N    5.572928   6.576840   4.506163   3.922130   2.761914
    24  C    4.449350   5.379788   3.650505   2.789644   2.422403
    25  H    5.906900   4.731837   3.725553   5.257209   1.091345
    26  H    7.489166   7.048041   5.241178   6.494544   2.126668
    27  O    7.657547   8.250816   5.949153   6.196282   3.547938
    28  O    3.709044   5.282983   3.875697   1.679192   3.531769
                   21         22         23         24         25
    21  C    0.000000
    22  C    1.470350   0.000000
    23  N    2.430685   1.369499   0.000000
    24  C    2.778691   2.368675   1.328183   0.000000
    25  H    2.145806   3.448391   3.850485   3.386409   0.000000
    26  H    1.088144   2.217900   3.411954   3.865993   2.509184
    27  O    2.350007   1.239707   2.286260   3.500555   4.482784
    28  O    4.026476   3.528542   2.275459   1.251336   4.373579
                   26         27         28
    26  H    0.000000
    27  O    2.628886   0.000000
    28  O    5.113910   4.560413   0.000000
 Stoichiometry    C9H11N2O6(2)
 Framework group  C1[X(C9H11N2O6)]
 Deg. of freedom    78
 Full point group                 C1      NOp   1
 Largest Abelian subgroup         C1      NOp   1
 Largest concise Abelian subgroup C1      NOp   1
                         Standard orientation:                         
 ---------------------------------------------------------------------
 Center     Atomic      Atomic             Coordinates (Angstroms)
 Number     Number       Type             X           Y           Z
 ---------------------------------------------------------------------
      1          6           0       -2.682997   -0.521442    0.290090
      2          6           0       -1.277661   -0.717459    0.840214
      3          6           0       -0.438609   -0.717323   -0.442490
      4          8           0       -1.200993   -1.949780    1.544709
      5          1           0       -0.997140    0.129101    1.474041
      6          8           0       -1.084145    0.178139   -1.326756
      7          1           0       -0.481514   -1.740807   -0.855091
      8          7           0        0.955556   -0.410180   -0.289253
      9          6           0       -2.439203    0.395671   -0.909024
     10          1           0       -3.352295   -0.053631    1.027545
     11          8           0       -3.223424   -1.755646   -0.165966
     12          6           0       -2.639809    1.873341   -0.611658
     13          1           0       -3.108692    0.091439   -1.730350
     14          8           0       -2.019771    2.301647    0.566152
     15          1           0       -3.721409    2.061997   -0.505252
     16          1           0       -2.287810    2.438057   -1.495912
     17          1           0       -2.893513   -2.431303    0.439883
     18          1           0       -0.310394   -2.027593    1.899089
     19          1           0       -1.055607    2.082558    0.525065
     20          6           0        1.880238   -1.261837   -0.845106
     21          6           0        3.201991   -1.039367   -0.727438
     22          6           0        3.664712    0.140503    0.018031
     23          7           0        2.714993    1.003263    0.496787
     24          6           0        1.411897    0.793179    0.348880
     25          1           0        1.465623   -2.121382   -1.374550
     26          1           0        3.933065   -1.718445   -1.161537
     27          8           0        4.877890    0.328918    0.190000
     28          8           0        0.529504    1.580077    0.758776
 ---------------------------------------------------------------------
 Rotational constants (GHZ):           0.9468260           0.3153589           0.2739550
 Standard basis: Aug-CC-pVDZ (5D, 7F)
 There are   524 symmetry adapted cartesian basis functions of A   symmetry.
 There are   490 symmetry adapted basis functions of A   symmetry.
   490 basis functions,   852 primitive gaussians,   524 cartesian basis functions
    64 alpha electrons       63 beta electrons
       nuclear repulsion energy      1321.9954782756 Hartrees.
 NAtoms=   28 NActive=   28 NUniq=   28 SFac= 1.00D+00 NAtFMM=   60 NAOKFM=F Big=F
 Integral buffers will be    131072 words long.
 Raffenetti 2 integral format.
 Two-electron integral symmetry is turned on.
 Nuclear repulsion after empirical dispersion term =     1321.9754682143 Hartrees.
 One-electron integrals computed using PRISM.
 NBasis=   490 RedAO= T EigKep=  3.35D-06  NBF=   490
 NBsUse=   490 1.00D-06 EigRej= -1.00D+00 NBFU=   490
 ExpMin= 2.97D-02 ExpMax= 1.17D+04 ExpMxC= 4.01D+02 IAcc=3 IRadAn=         5 AccDes= 0.00D+00
 Harris functional with IExCor= 1009 and IRadAn=       5 diagonalized for initial guess.
 HarFok:  IExCor= 1009 AccDes= 0.00D+00 IRadAn=         5 IDoV= 1 UseB2=F ITyADJ=14
 ICtDFT=  3500011 ScaDFX=  1.000000  1.000000  1.000000  1.000000
 FoFCou: FMM=F IPFlag=           0 FMFlag=      100000 FMFlg1=           0
         NFxFlg=           0 DoJE=T BraDBF=F KetDBF=T FulRan=T
         wScrn=  0.000000 ICntrl=       500 IOpCl=  0 I1Cent=   200000004 NGrid=           0
         NMat0=    1 NMatS0=      1 NMatT0=    0 NMatD0=    1 NMtDS0=    0 NMtDT0=    0
 Petite list used in FoFCou.
 Initial guess <Sx>= 0.0000 <Sy>= 0.0000 <Sz>= 0.5000 <S**2>= 0.7500 S= 0.5000
 Requested convergence on RMS density matrix=1.00D-08 within 128 cycles.
 Requested convergence on MAX density matrix=1.00D-06.
 Requested convergence on             energy=1.00D-06.
 No special actions if energy rises.
 Restarting incremental Fock formation.
 Restarting incremental Fock formation.
 Restarting incremental Fock formation.
 Restarting incremental Fock formation.
 Restarting incremental Fock formation.
 Restarting incremental Fock formation.
 >>>>>>>>>> Convergence criterion not met.
 SCF Done:  E(UPBE1PBE) =  -909.504010482     A.U. after  129 cycles
            NFock=128  Conv=0.20D-04     -V/T= 2.0055
 <Sx>= 0.0000 <Sy>= 0.0000 <Sz>= 0.5000 <S**2>= 0.7574 S= 0.5037
 <L.S>= 0.000000000000E+00
 Annihilation of the first spin contaminant:
 S**2 before annihilation     0.7574,   after     0.7500
 Convergence failure -- run terminated.
 Error termination via Lnk1e in /sw/contrib/chem-src/g16/c01/g16/l502.exe at Sat Oct 26 18:32:26 2024.
 Job cpu time:       0 days 15 hours 55 minutes 54.9 seconds.
 Elapsed time:       0 days  0 hours 24 minutes  4.8 seconds.
 File lengths (MBytes):  RWF=    226 Int=      0 D2E=      0 Chk=      8 Scr=      1
