 Entering Gaussian System, Link 0=g16
 Input=UridineMNarrgPBE0aVDZ.gjf
 Output=UridineMNarrgPBE0aVDZ.log
 Initial command:
 /sw/contrib/chem-src/g16/c01/g16/l1.exe "/scr/Gau-48653.inp" -scrdir="/scr/"
 Entering Link 1 = /sw/contrib/chem-src/g16/c01/g16/l1.exe PID=     48654.
  
 Copyright (c) 1988-2019, Gaussian, Inc.  All Rights Reserved.
  
 This is part of the Gaussian(R) 16 program.  It is based on
 the Gaussian(R) 09 system (copyright 2009, Gaussian, Inc.),
 the Gaussian(R) 03 system (copyright 2003, Gaussian, Inc.),
 the Gaussian(R) 98 system (copyright 1998, Gaussian, Inc.),
 the Gaussian(R) 94 system (copyright 1995, Gaussian, Inc.),
 the Gaussian 92(TM) system (copyright 1992, Gaussian, Inc.),
 the Gaussian 90(TM) system (copyright 1990, Gaussian, Inc.),
 the Gaussian 88(TM) system (copyright 1988, Gaussian, Inc.),
 the Gaussian 86(TM) system (copyright 1986, Carnegie Mellon
 University), and the Gaussian 82(TM) system (copyright 1983,
 Carnegie Mellon University). Gaussian is a federally registered
 trademark of Gaussian, Inc.
  
 This software contains proprietary and confidential information,
 including trade secrets, belonging to Gaussian, Inc.
  
 This software is provided under written license and may be
 used, copied, transmitted, or stored only in accord with that
 written license.
  
 The following legend is applicable only to US Government
 contracts under FAR:
  
                    RESTRICTED RIGHTS LEGEND
  
 Use, reproduction and disclosure by the US Government is
 subject to restrictions as set forth in subparagraphs (a)
 and (c) of the Commercial Computer Software - Restricted
 Rights clause in FAR 52.227-19.
  
 Gaussian, Inc.
 340 Quinnipiac St., Bldg. 40, Wallingford CT 06492
  
  
 ---------------------------------------------------------------
 Warning -- This program may not be used in any manner that
 competes with the business of Gaussian, Inc. or will provide
 assistance to any competitor of Gaussian, Inc.  The licensee
 of this program is prohibited from giving any competitor of
 Gaussian, Inc. access to this program.  By using this program,
 the user acknowledges that Gaussian, Inc. is engaged in the
 business of creating and licensing software in the field of
 computational chemistry and represents and warrants to the
 licensee that it is not a competitor of Gaussian, Inc. and that
 it will not use this program in any manner prohibited above.
 ---------------------------------------------------------------
  

 Cite this work as:
 Gaussian 16, Revision C.01,
 M. J. Frisch, G. W. Trucks, H. B. Schlegel, G. E. Scuseria, 
 M. A. Robb, J. R. Cheeseman, G. Scalmani, V. Barone, 
 G. A. Petersson, H. Nakatsuji, X. Li, M. Caricato, A. V. Marenich, 
 J. Bloino, B. G. Janesko, R. Gomperts, B. Mennucci, H. P. Hratchian, 
 J. V. Ortiz, A. F. Izmaylov, J. L. Sonnenberg, D. Williams-Young, 
 F. Ding, F. Lipparini, F. Egidi, J. Goings, B. Peng, A. Petrone, 
 T. Henderson, D. Ranasinghe, V. G. Zakrzewski, J. Gao, N. Rega, 
 G. Zheng, W. Liang, M. Hada, M. Ehara, K. Toyota, R. Fukuda, 
 J. Hasegawa, M. Ishida, T. Nakajima, Y. Honda, O. Kitao, H. Nakai, 
 T. Vreven, K. Throssell, J. A. Montgomery, Jr., J. E. Peralta, 
 F. Ogliaro, M. J. Bearpark, J. J. Heyd, E. N. Brothers, K. N. Kudin, 
 V. N. Staroverov, T. A. Keith, R. Kobayashi, J. Normand, 
 K. Raghavachari, A. P. Rendell, J. C. Burant, S. S. Iyengar, 
 J. Tomasi, M. Cossi, J. M. Millam, M. Klene, C. Adamo, R. Cammi, 
 J. W. Ochterski, R. L. Martin, K. Morokuma, O. Farkas, 
 J. B. Foresman, and D. J. Fox, Gaussian, Inc., Wallingford CT, 2019.
 
 ******************************************
 Gaussian 16:  EM64L-G16RevC.01  3-Jul-2019
                24-Oct-2024 
 ******************************************
 %nprocshared=40
 Will use up to   40 processors via shared memory.
 %mem=50gb
 ------------------------------------------------------
 # PBE1PBE/aug-cc-pVDZ opt freq EmpiricalDispersion=GD3
 ------------------------------------------------------
 1/18=20,19=15,26=3,38=1/1,3;
 2/9=110,12=2,17=6,18=5,40=1/2;
 3/5=16,7=10,11=2,25=1,30=1,71=1,74=-13,124=31/1,2,3;
 4//1;
 5/5=2,38=5/2;
 6/7=2,8=2,9=2,10=2,28=1/1;
 7//1,2,3,16;
 1/18=20,19=15,26=3/3(2);
 2/9=110/2;
 99//99;
 2/9=110/2;
 3/5=16,7=10,11=2,25=1,30=1,71=1,74=-13,124=31/1,2,3;
 4/5=5,16=3,69=1/1;
 5/5=2,38=5/2;
 7//1,2,3,16;
 1/18=20,19=15,26=3/3(-5);
 2/9=110/2;
 6/7=2,8=2,9=2,10=2,19=2,28=1/1;
 99/9=1/99;
 ----
 blah
 ----
 Symbolic Z-matrix:
 Charge = -1 Multiplicity = 1
 C                    -2.2964    0.20115  -0.62599 
 C                    -1.20977   1.29228  -0.61574 
 C                    -0.34178   0.92631   0.60323 
 O                    -1.77616   2.5606   -0.38054 
 H                    -0.61555   1.29834  -1.54133 
 O                    -0.97005  -0.12351   1.29378 
 H                    -0.27704   1.82273   1.23659 
 N                     1.03779   0.54754   0.31701 
 C                    -2.30292  -0.31321   0.81254 
 H                    -2.0165   -0.60688  -1.30864 
 O                    -3.57286   0.73403  -0.94739 
 C                    -2.65238  -1.77985   0.96148 
 H                    -3.0066    0.29704   1.40499 
 O                    -1.95196  -2.6136    0.06938 
 H                    -3.72457  -1.90722   0.75465 
 H                    -2.4736   -2.07027   2.01145 
 H                    -3.77935   0.51655  -1.8601 
 H                    -2.70802   2.48674  -0.63785 
 H                    -1.04589  -2.28475  -0.01916 
 C                     2.07698   1.21657   0.91849 
 C                     3.37461   0.9022    0.72406 
 C                     3.72279  -0.20322  -0.14807 
 N                     2.59921  -0.83797  -0.70129 
 C                     1.27567  -0.53405  -0.51758 
 H                     1.77431   2.03518   1.56967 
 H                     4.17299   1.45341   1.21087 
 O                     4.84221  -0.59754  -0.41546 
 O                     0.37611  -1.16389  -1.05646 
 

 GradGradGradGradGradGradGradGradGradGradGradGradGradGradGradGradGradGrad
 Berny optimization.
 Initialization pass.
                           ----------------------------
                           !    Initial Parameters    !
                           ! (Angstroms and Degrees)  !
 --------------------------                            --------------------------
 ! Name  Definition              Value          Derivative Info.                !
 --------------------------------------------------------------------------------
 ! R1    R(1,2)                  1.54           estimate D2E/DX2                !
 ! R2    R(1,9)                  1.5277         estimate D2E/DX2                !
 ! R3    R(1,10)                 1.0942         estimate D2E/DX2                !
 ! R4    R(1,11)                 1.4201         estimate D2E/DX2                !
 ! R5    R(2,3)                  1.5405         estimate D2E/DX2                !
 ! R6    R(2,4)                  1.4088         estimate D2E/DX2                !
 ! R7    R(2,5)                  1.0999         estimate D2E/DX2                !
 ! R8    R(3,6)                  1.4049         estimate D2E/DX2                !
 ! R9    R(3,7)                  1.0995         estimate D2E/DX2                !
 ! R10   R(3,8)                  1.459          estimate D2E/DX2                !
 ! R11   R(4,18)                 0.9696         estimate D2E/DX2                !
 ! R12   R(6,9)                  1.4297         estimate D2E/DX2                !
 ! R13   R(8,20)                 1.3745         estimate D2E/DX2                !
 ! R14   R(8,24)                 1.3867         estimate D2E/DX2                !
 ! R15   R(9,12)                 1.515          estimate D2E/DX2                !
 ! R16   R(9,13)                 1.1039         estimate D2E/DX2                !
 ! R17   R(11,17)                0.9607         estimate D2E/DX2                !
 ! R18   R(12,14)                1.4077         estimate D2E/DX2                !
 ! R19   R(12,15)                1.0994         estimate D2E/DX2                !
 ! R20   R(12,16)                1.104          estimate D2E/DX2                !
 ! R21   R(14,19)                0.968          estimate D2E/DX2                !
 ! R22   R(20,21)                1.3493         estimate D2E/DX2                !
 ! R23   R(20,25)                1.0889         estimate D2E/DX2                !
 ! R24   R(21,22)                1.4504         estimate D2E/DX2                !
 ! R25   R(21,26)                1.0855         estimate D2E/DX2                !
 ! R26   R(22,23)                1.4041         estimate D2E/DX2                !
 ! R27   R(22,27)                1.2166         estimate D2E/DX2                !
 ! R28   R(23,24)                1.3704         estimate D2E/DX2                !
 ! R29   R(24,28)                1.2232         estimate D2E/DX2                !
 ! A1    A(2,1,9)              103.6092         estimate D2E/DX2                !
 ! A2    A(2,1,10)             110.2975         estimate D2E/DX2                !
 ! A3    A(2,1,11)             111.7087         estimate D2E/DX2                !
 ! A4    A(9,1,10)             109.8717         estimate D2E/DX2                !
 ! A5    A(9,1,11)             109.6104         estimate D2E/DX2                !
 ! A6    A(10,1,11)            111.4591         estimate D2E/DX2                !
 ! A7    A(1,2,3)              103.5632         estimate D2E/DX2                !
 ! A8    A(1,2,4)              110.8129         estimate D2E/DX2                !
 ! A9    A(1,2,5)              112.3028         estimate D2E/DX2                !
 ! A10   A(3,2,4)              107.9568         estimate D2E/DX2                !
 ! A11   A(3,2,5)              111.2703         estimate D2E/DX2                !
 ! A12   A(4,2,5)              110.6537         estimate D2E/DX2                !
 ! A13   A(2,3,6)              108.3297         estimate D2E/DX2                !
 ! A14   A(2,3,7)              107.1751         estimate D2E/DX2                !
 ! A15   A(2,3,8)              116.0543         estimate D2E/DX2                !
 ! A16   A(6,3,7)              110.6354         estimate D2E/DX2                !
 ! A17   A(6,3,8)              108.9835         estimate D2E/DX2                !
 ! A18   A(7,3,8)              105.6046         estimate D2E/DX2                !
 ! A19   A(2,4,18)             105.8732         estimate D2E/DX2                !
 ! A20   A(3,6,9)              110.5246         estimate D2E/DX2                !
 ! A21   A(3,8,20)             120.1774         estimate D2E/DX2                !
 ! A22   A(3,8,24)             118.8664         estimate D2E/DX2                !
 ! A23   A(20,8,24)            120.8849         estimate D2E/DX2                !
 ! A24   A(1,9,6)              105.5629         estimate D2E/DX2                !
 ! A25   A(1,9,12)             114.8019         estimate D2E/DX2                !
 ! A26   A(1,9,13)             108.781          estimate D2E/DX2                !
 ! A27   A(6,9,12)             108.0828         estimate D2E/DX2                !
 ! A28   A(6,9,13)             109.8934         estimate D2E/DX2                !
 ! A29   A(12,9,13)            109.5941         estimate D2E/DX2                !
 ! A30   A(1,11,17)            108.8606         estimate D2E/DX2                !
 ! A31   A(9,12,14)            113.3463         estimate D2E/DX2                !
 ! A32   A(9,12,15)            108.5796         estimate D2E/DX2                !
 ! A33   A(9,12,16)            108.1079         estimate D2E/DX2                !
 ! A34   A(14,12,15)           107.3026         estimate D2E/DX2                !
 ! A35   A(14,12,16)           111.4907         estimate D2E/DX2                !
 ! A36   A(15,12,16)           107.8431         estimate D2E/DX2                !
 ! A37   A(12,14,19)           108.8144         estimate D2E/DX2                !
 ! A38   A(8,20,21)            123.4115         estimate D2E/DX2                !
 ! A39   A(8,20,25)            114.6739         estimate D2E/DX2                !
 ! A40   A(21,20,25)           121.9137         estimate D2E/DX2                !
 ! A41   A(20,21,22)           119.6753         estimate D2E/DX2                !
 ! A42   A(20,21,26)           121.6306         estimate D2E/DX2                !
 ! A43   A(22,21,26)           118.6929         estimate D2E/DX2                !
 ! A44   A(21,22,23)           112.9144         estimate D2E/DX2                !
 ! A45   A(21,22,27)           126.874          estimate D2E/DX2                !
 ! A46   A(23,22,27)           120.2113         estimate D2E/DX2                !
 ! A47   A(22,23,24)           128.3025         estimate D2E/DX2                !
 ! A48   A(8,24,23)            114.7935         estimate D2E/DX2                !
 ! A49   A(8,24,28)            122.7233         estimate D2E/DX2                !
 ! A50   A(23,24,28)           122.4814         estimate D2E/DX2                !
 ! D1    D(9,1,2,3)             21.7061         estimate D2E/DX2                !
 ! D2    D(9,1,2,4)            -93.8241         estimate D2E/DX2                !
 ! D3    D(9,1,2,5)            141.8587         estimate D2E/DX2                !
 ! D4    D(10,1,2,3)           -95.838          estimate D2E/DX2                !
 ! D5    D(10,1,2,4)           148.6318         estimate D2E/DX2                !
 ! D6    D(10,1,2,5)            24.3146         estimate D2E/DX2                !
 ! D7    D(11,1,2,3)           139.6148         estimate D2E/DX2                !
 ! D8    D(11,1,2,4)            24.0846         estimate D2E/DX2                !
 ! D9    D(11,1,2,5)          -100.2326         estimate D2E/DX2                !
 ! D10   D(2,1,9,6)            -29.2126         estimate D2E/DX2                !
 ! D11   D(2,1,9,12)          -148.1361         estimate D2E/DX2                !
 ! D12   D(2,1,9,13)            88.6787         estimate D2E/DX2                !
 ! D13   D(10,1,9,6)            88.6282         estimate D2E/DX2                !
 ! D14   D(10,1,9,12)          -30.2954         estimate D2E/DX2                !
 ! D15   D(10,1,9,13)         -153.4806         estimate D2E/DX2                !
 ! D16   D(11,1,9,6)          -148.5705         estimate D2E/DX2                !
 ! D17   D(11,1,9,12)           92.506          estimate D2E/DX2                !
 ! D18   D(11,1,9,13)          -30.6792         estimate D2E/DX2                !
 ! D19   D(2,1,11,17)          103.0691         estimate D2E/DX2                !
 ! D20   D(9,1,11,17)         -142.6819         estimate D2E/DX2                !
 ! D21   D(10,1,11,17)         -20.8267         estimate D2E/DX2                !
 ! D22   D(1,2,3,6)             -7.1993         estimate D2E/DX2                !
 ! D23   D(1,2,3,7)           -126.6042         estimate D2E/DX2                !
 ! D24   D(1,2,3,8)            115.7173         estimate D2E/DX2                !
 ! D25   D(4,2,3,6)            110.3436         estimate D2E/DX2                !
 ! D26   D(4,2,3,7)             -9.0614         estimate D2E/DX2                !
 ! D27   D(4,2,3,8)           -126.7399         estimate D2E/DX2                !
 ! D28   D(5,2,3,6)           -128.0524         estimate D2E/DX2                !
 ! D29   D(5,2,3,7)            112.5427         estimate D2E/DX2                !
 ! D30   D(5,2,3,8)             -5.1358         estimate D2E/DX2                !
 ! D31   D(1,2,4,18)           -22.4224         estimate D2E/DX2                !
 ! D32   D(3,2,4,18)          -135.1859         estimate D2E/DX2                !
 ! D33   D(5,2,4,18)           102.8291         estimate D2E/DX2                !
 ! D34   D(2,3,6,9)            -11.7595         estimate D2E/DX2                !
 ! D35   D(7,3,6,9)            105.4445         estimate D2E/DX2                !
 ! D36   D(8,3,6,9)           -138.8646         estimate D2E/DX2                !
 ! D37   D(2,3,8,20)           124.1365         estimate D2E/DX2                !
 ! D38   D(2,3,8,24)           -58.9058         estimate D2E/DX2                !
 ! D39   D(6,3,8,20)          -113.2902         estimate D2E/DX2                !
 ! D40   D(6,3,8,24)            63.6676         estimate D2E/DX2                !
 ! D41   D(7,3,8,20)             5.5933         estimate D2E/DX2                !
 ! D42   D(7,3,8,24)          -177.449          estimate D2E/DX2                !
 ! D43   D(3,6,9,1)             26.0696         estimate D2E/DX2                !
 ! D44   D(3,6,9,12)           149.3687         estimate D2E/DX2                !
 ! D45   D(3,6,9,13)           -91.0722         estimate D2E/DX2                !
 ! D46   D(3,8,20,21)          178.4966         estimate D2E/DX2                !
 ! D47   D(3,8,20,25)           -1.8184         estimate D2E/DX2                !
 ! D48   D(24,8,20,21)           1.6011         estimate D2E/DX2                !
 ! D49   D(24,8,20,25)        -178.7139         estimate D2E/DX2                !
 ! D50   D(3,8,24,23)         -178.3621         estimate D2E/DX2                !
 ! D51   D(3,8,24,28)            2.1161         estimate D2E/DX2                !
 ! D52   D(20,8,24,23)          -1.4266         estimate D2E/DX2                !
 ! D53   D(20,8,24,28)         179.0516         estimate D2E/DX2                !
 ! D54   D(1,9,12,14)           47.2559         estimate D2E/DX2                !
 ! D55   D(1,9,12,15)          -71.8771         estimate D2E/DX2                !
 ! D56   D(1,9,12,16)          171.3777         estimate D2E/DX2                !
 ! D57   D(6,9,12,14)          -70.2473         estimate D2E/DX2                !
 ! D58   D(6,9,12,15)          170.6196         estimate D2E/DX2                !
 ! D59   D(6,9,12,16)           53.8745         estimate D2E/DX2                !
 ! D60   D(13,9,12,14)         170.0048         estimate D2E/DX2                !
 ! D61   D(13,9,12,15)          50.8718         estimate D2E/DX2                !
 ! D62   D(13,9,12,16)         -65.8733         estimate D2E/DX2                !
 ! D63   D(9,12,14,19)          38.3458         estimate D2E/DX2                !
 ! D64   D(15,12,14,19)        158.2097         estimate D2E/DX2                !
 ! D65   D(16,12,14,19)        -83.9139         estimate D2E/DX2                !
 ! D66   D(8,20,21,22)          -0.6908         estimate D2E/DX2                !
 ! D67   D(8,20,21,26)         179.7179         estimate D2E/DX2                !
 ! D68   D(25,20,21,22)        179.6463         estimate D2E/DX2                !
 ! D69   D(25,20,21,26)          0.0551         estimate D2E/DX2                !
 ! D70   D(20,21,22,23)         -0.2334         estimate D2E/DX2                !
 ! D71   D(20,21,22,27)        179.9645         estimate D2E/DX2                !
 ! D72   D(26,21,22,23)        179.3699         estimate D2E/DX2                !
 ! D73   D(26,21,22,27)         -0.4323         estimate D2E/DX2                !
 ! D74   D(21,22,23,24)          0.3094         estimate D2E/DX2                !
 ! D75   D(27,22,23,24)       -179.8738         estimate D2E/DX2                !
 ! D76   D(22,23,24,8)           0.506          estimate D2E/DX2                !
 ! D77   D(22,23,24,28)       -179.9709         estimate D2E/DX2                !
 --------------------------------------------------------------------------------
 Trust Radius=3.00D-01 FncErr=1.00D-07 GrdErr=1.00D-06 EigMax=2.50D+02 EigMin=1.00D-04
 Number of steps in this run=    166 maximum allowed number of steps=    168.
 GradGradGradGradGradGradGradGradGradGradGradGradGradGradGradGradGradGrad

                          Input orientation:                          
 ---------------------------------------------------------------------
 Center     Atomic      Atomic             Coordinates (Angstroms)
 Number     Number       Type             X           Y           Z
 ---------------------------------------------------------------------
      1          6           0       -2.296403    0.201147   -0.625986
      2          6           0       -1.209768    1.292284   -0.615735
      3          6           0       -0.341776    0.926306    0.603225
      4          8           0       -1.776156    2.560603   -0.380540
      5          1           0       -0.615552    1.298340   -1.541325
      6          8           0       -0.970051   -0.123512    1.293777
      7          1           0       -0.277040    1.822727    1.236594
      8          7           0        1.037790    0.547535    0.317007
      9          6           0       -2.302917   -0.313213    0.812536
     10          1           0       -2.016505   -0.606884   -1.308639
     11          8           0       -3.572864    0.734031   -0.947394
     12          6           0       -2.652383   -1.779852    0.961482
     13          1           0       -3.006601    0.297037    1.404991
     14          8           0       -1.951963   -2.613601    0.069380
     15          1           0       -3.724565   -1.907218    0.754645
     16          1           0       -2.473595   -2.070266    2.011452
     17          1           0       -3.779348    0.516550   -1.860103
     18          1           0       -2.708018    2.486737   -0.637852
     19          1           0       -1.045888   -2.284751   -0.019157
     20          6           0        2.076976    1.216567    0.918492
     21          6           0        3.374608    0.902202    0.724064
     22          6           0        3.722794   -0.203215   -0.148071
     23          7           0        2.599211   -0.837969   -0.701290
     24          6           0        1.275671   -0.534050   -0.517583
     25          1           0        1.774308    2.035184    1.569670
     26          1           0        4.172987    1.453411    1.210872
     27          8           0        4.842214   -0.597544   -0.415457
     28          8           0        0.376107   -1.163885   -1.056457
 ---------------------------------------------------------------------
                    Distance matrix (angstroms):
                    1          2          3          4          5
     1  C    0.000000
     2  C    1.539955   0.000000
     3  C    2.420203   1.540524   0.000000
     4  O    2.428566   1.408810   2.386664   0.000000
     5  H    2.206114   1.099930   2.193731   2.070684   0.000000
     6  O    2.355866   2.389179   1.404888   3.264600   3.191416
     7  H    3.190071   2.140671   1.099508   2.325281   2.847175
     8  N    3.482250   2.544833   1.458969   3.529491   2.598200
     9  C    1.527728   2.410924   2.329440   3.155903   3.314357
    10  H    1.094199   2.176644   2.968268   3.309397   2.376277
    11  O    1.420078   2.450687   3.589055   2.624090   3.068696
    12  C    2.563422   3.742562   3.576387   4.626915   4.459595
    13  H    2.153705   2.881399   2.853086   3.134621   3.924347
    14  O    2.919757   4.034374   3.925383   5.196703   4.436626
    15  H    2.896721   4.294061   4.415320   5.004635   5.021259
    16  H    3.485225   4.450406   3.937918   5.258611   5.236607
    17  H    1.954904   2.958540   4.248857   3.221807   3.274511
    18  H    2.322389   1.916236   3.094240   0.969553   2.570402
    19  H    2.848108   3.630143   3.345747   4.913384   3.916724
    20  C    4.747940   3.627985   2.456421   4.282586   3.647889
    21  C    5.871497   4.792048   3.718426   5.522754   4.605463
    22  C    6.051665   5.175461   4.284973   6.158830   4.797611
    23  N    5.005244   4.365045   3.669309   5.549505   3.950212
    24  C    3.648558   3.085861   2.450507   4.348483   2.825319
    25  H    4.975468   3.772612   2.577099   4.084750   3.991574
    26  H    6.840703   5.686520   4.585865   6.257058   5.525282
    27  O    7.186243   6.343347   5.498507   7.333344   5.886354
    28  O    3.031654   2.956688   2.763838   4.354413   2.698340
                    6          7          8          9         10
     6  O    0.000000
     7  H    2.066732   0.000000
     8  N    2.331482   2.049520   0.000000
     9  C    1.429724   2.974263   3.485220   0.000000
    10  H    2.846275   3.925170   3.647482   2.160476   0.000000
    11  O    3.540178   4.100917   4.784519   2.409738   2.085858
    12  C    2.384140   4.323947   4.410154   1.515038   2.633181
    13  H    2.082490   3.131548   4.195659   1.103893   3.026739
    14  O    2.943441   4.883519   4.358064   2.442792   2.435162
    15  H    3.325600   5.101979   5.375627   2.136653   2.977495
    16  H    2.562334   4.536590   4.696153   2.133955   3.656969
    17  H    4.271860   4.854049   5.286359   3.164072   2.161905
    18  H    3.683086   3.140718   4.324736   3.179222   3.240160
    19  H    2.529921   4.363418   3.532218   2.481692   2.328111
    20  C    3.349780   2.451532   1.374516   4.640573   5.004166
    21  C    4.500303   3.800603   2.398375   5.806837   5.955948
    22  C    4.909997   4.692591   2.826512   6.102791   5.869363
    23  N    4.150948   4.371215   2.322625   5.157315   4.661235
    24  C    2.914247   3.323018   1.386706   3.824170   3.386665
    25  H    3.502512   2.089044   2.079597   4.765709   5.443845
    26  H    5.380000   4.465400   3.383647   6.724356   6.993037
    27  O    6.076892   5.898622   4.039969   7.255461   6.916638
    28  O    2.901399   3.821588   2.291983   3.375492   2.469502
                   11         12         13         14         15
    11  O    0.000000
    12  C    3.287963   0.000000
    13  H    2.458726   2.153053   0.000000
    14  O    3.855877   1.407683   3.371636   0.000000
    15  H    3.145814   1.099353   2.407730   2.027482   0.000000
    16  H    4.222232   1.103967   2.501202   2.083016   1.780751
    17  H    0.960714   3.808524   3.362464   4.106103   3.565748
    18  H    1.978826   4.556835   3.009509   5.204349   4.720091
    19  H    4.044784   1.948692   3.540935   0.967963   2.813647
    20  C    5.969511   5.598858   5.188928   5.623480   6.591112
    21  C    7.147686   6.601091   6.445907   6.415749   7.634922
    22  C    7.398917   6.660313   6.924378   6.169288   7.692963
    23  N    6.373873   5.588488   6.095062   4.945704   6.576715
    24  C    5.030016   4.378272   4.767059   3.884157   5.339149
    25  H    6.051517   5.875371   5.089731   6.143872   6.815013
    26  H    8.073031   7.556577   7.274707   7.440336   8.594958
    27  O    8.536368   7.711212   8.106676   7.103548   8.744946
    28  O    4.382733   3.690968   4.431222   2.964641   4.544023
                   16         17         18         19         20
    16  H    0.000000
    17  H    4.835860   0.000000
    18  H    5.276366   2.554072   0.000000
    19  H    2.491530   4.325295   5.090438   0.000000
    20  C    5.718875   6.519750   5.189577   4.784422   0.000000
    21  C    6.685388   7.616149   6.431478   5.499985   1.349250
    22  C    6.822364   7.728599   6.987923   5.204780   2.421168
    23  N    5.883102   6.622959   6.262937   3.980607   2.667872
    24  C    4.776293   5.334729   5.000940   2.950088   2.401887
    25  H    5.924067   6.701693   5.016802   5.398121   1.088933
    26  H    7.565334   8.576026   7.199568   6.536320   2.129517
    27  O    7.847284   8.812465   8.158937   6.137871   3.566085
    28  O    4.284203   4.553846   4.797301   2.086720   3.529863
                   21         22         23         24         25
    21  C    0.000000
    22  C    1.450448   0.000000
    23  N    2.379300   1.404066   0.000000
    24  C    2.830202   2.496878   1.370355   0.000000
    25  H    2.135336   3.428945   3.754029   3.347570   0.000000
    26  H    1.085460   2.189477   3.373953   3.915610   2.494165
    27  O    2.387805   1.216590   2.273888   3.568570   4.503780
    28  O    4.053391   3.598384   2.274765   1.223230   4.368701
                   26         27         28
    26  H    0.000000
    27  O    2.701708   0.000000
    28  O    5.138805   4.547278   0.000000
 Stoichiometry    C9H11N2O6(1-)
 Framework group  C1[X(C9H11N2O6)]
 Deg. of freedom    78
 Full point group                 C1      NOp   1
 Largest Abelian subgroup         C1      NOp   1
 Largest concise Abelian subgroup C1      NOp   1
                         Standard orientation:                         
 ---------------------------------------------------------------------
 Center     Atomic      Atomic             Coordinates (Angstroms)
 Number     Number       Type             X           Y           Z
 ---------------------------------------------------------------------
      1          6           0        2.276208   -0.216658   -0.621017
      2          6           0        1.180922   -1.298928   -0.598558
      3          6           0        0.309543   -0.906060    0.609567
      4          8           0        1.736015   -2.567585   -0.339473
      5          1           0        0.591489   -1.315625   -1.527070
      6          8           0        0.942524    0.150073    1.286049
      7          1           0        0.234420   -1.791354    1.257277
      8          7           0       -1.065474   -0.521271    0.309808
      9          6           0        2.279331    0.321342    0.808843
     10          1           0        2.006268    0.582147   -1.318379
     11          8           0        3.550057   -0.764770   -0.926800
     12          6           0        2.639630    1.787459    0.935444
     13          1           0        2.975074   -0.284527    1.415015
     14          8           0        1.950478    2.611812    0.026003
     15          1           0        3.713847    1.902982    0.732242
     16          1           0        2.457702    2.096581    1.979517
     17          1           0        3.762992   -0.564030   -1.841859
     18          1           0        2.669756   -2.505288   -0.593006
     19          1           0        1.042297    2.288654   -0.061919
     20          6           0       -2.113037   -1.172105    0.916705
     21          6           0       -3.407110   -0.850837    0.710220
     22          6           0       -3.741995    0.242708   -0.181863
     23          7           0       -2.610562    0.859406   -0.739487
     24          6           0       -1.290443    0.548202   -0.543755
     25          1           0       -1.820248   -1.982194    1.582893
     26          1           0       -4.212348   -1.387650    1.201796
     27          8           0       -4.856853    0.641324   -0.461666
     28          8           0       -0.383132    1.161974   -1.088148
 ---------------------------------------------------------------------
 Rotational constants (GHZ):           0.9315530           0.3073220           0.2664387
 Standard basis: Aug-CC-pVDZ (5D, 7F)
 There are   524 symmetry adapted cartesian basis functions of A   symmetry.
 There are   490 symmetry adapted basis functions of A   symmetry.
   490 basis functions,   852 primitive gaussians,   524 cartesian basis functions
    64 alpha electrons       64 beta electrons
       nuclear repulsion energy      1314.2957154226 Hartrees.
 NAtoms=   28 NActive=   28 NUniq=   28 SFac= 1.00D+00 NAtFMM=   60 NAOKFM=F Big=F
 Integral buffers will be    131072 words long.
 Raffenetti 2 integral format.
 Two-electron integral symmetry is turned on.
 Nuclear repulsion after empirical dispersion term =     1314.2761270496 Hartrees.
 One-electron integrals computed using PRISM.
 NBasis=   490 RedAO= T EigKep=  2.87D-06  NBF=   490
 NBsUse=   490 1.00D-06 EigRej= -1.00D+00 NBFU=   490
 ExpMin= 2.97D-02 ExpMax= 1.17D+04 ExpMxC= 4.01D+02 IAcc=3 IRadAn=         5 AccDes= 0.00D+00
 Harris functional with IExCor= 1009 and IRadAn=       5 diagonalized for initial guess.
 HarFok:  IExCor= 1009 AccDes= 0.00D+00 IRadAn=         5 IDoV= 1 UseB2=F ITyADJ=14
 ICtDFT=  3500011 ScaDFX=  1.000000  1.000000  1.000000  1.000000
 FoFCou: FMM=F IPFlag=           0 FMFlag=      100000 FMFlg1=           0
         NFxFlg=           0 DoJE=T BraDBF=F KetDBF=T FulRan=T
         wScrn=  0.000000 ICntrl=       500 IOpCl=  0 I1Cent=   200000004 NGrid=           0
         NMat0=    1 NMatS0=      1 NMatT0=    0 NMatD0=    1 NMtDS0=    0 NMtDT0=    0
 Petite list used in FoFCou.
 Requested convergence on RMS density matrix=1.00D-08 within 128 cycles.
 Requested convergence on MAX density matrix=1.00D-06.
 Requested convergence on             energy=1.00D-06.
 No special actions if energy rises.
 EnCoef did     2 forward-backward iterations
 SCF Done:  E(RPBE1PBE) =  -909.656364177     A.U. after   17 cycles
            NFock= 17  Conv=0.25D-08     -V/T= 2.0053

 **********************************************************************

            Population analysis using the SCF Density.

 **********************************************************************

 Orbital symmetries:
       Occupied  (A) (A) (A) (A) (A) (A) (A) (A) (A) (A) (A) (A)
                 (A) (A) (A) (A) (A) (A) (A) (A) (A) (A) (A) (A)
                 (A) (A) (A) (A) (A) (A) (A) (A) (A) (A) (A) (A)
                 (A) (A) (A) (A) (A) (A) (A) (A) (A) (A) (A) (A)
                 (A) (A) (A) (A) (A) (A) (A) (A) (A) (A) (A) (A)
                 (A) (A) (A) (A)
       Virtual   (A) (A) (A) (A) (A) (A) (A) (A) (A) (A) (A) (A)
                 (A) (A) (A) (A) (A) (A) (A) (A) (A) (A) (A) (A)
                 (A) (A) (A) (A) (A) (A) (A) (A) (A) (A) (A) (A)
                 (A) (A) (A) (A) (A) (A) (A) (A) (A) (A) (A) (A)
                 (A) (A) (A) (A) (A) (A) (A) (A) (A) (A) (A) (A)
                 (A) (A) (A) (A) (A) (A) (A) (A) (A) (A) (A) (A)
                 (A) (A) (A) (A) (A) (A) (A) (A) (A) (A) (A) (A)
                 (A) (A) (A) (A) (A) (A) (A) (A) (A) (A) (A) (A)
                 (A) (A) (A) (A) (A) (A) (A) (A) (A) (A) (A) (A)
                 (A) (A) (A) (A) (A) (A) (A) (A) (A) (A) (A) (A)
                 (A) (A) (A) (A) (A) (A) (A) (A) (A) (A) (A) (A)
                 (A) (A) (A) (A) (A) (A) (A) (A) (A) (A) (A) (A)
                 (A) (A) (A) (A) (A) (A) (A) (A) (A) (A) (A) (A)
                 (A) (A) (A) (A) (A) (A) (A) (A) (A) (A) (A) (A)
                 (A) (A) (A) (A) (A) (A) (A) (A) (A) (A) (A) (A)
                 (A) (A) (A) (A) (A) (A) (A) (A) (A) (A) (A) (A)
                 (A) (A) (A) (A) (A) (A) (A) (A) (A) (A) (A) (A)
                 (A) (A) (A) (A) (A) (A) (A) (A) (A) (A) (A) (A)
                 (A) (A) (A) (A) (A) (A) (A) (A) (A) (A) (A) (A)
                 (A) (A) (A) (A) (A) (A) (A) (A) (A) (A) (A) (A)
                 (A) (A) (A) (A) (A) (A) (A) (A) (A) (A) (A) (A)
                 (A) (A) (A) (A) (A) (A) (A) (A) (A) (A) (A) (A)
                 (A) (A) (A) (A) (A) (A) (A) (A) (A) (A) (A) (A)
                 (A) (A) (A) (A) (A) (A) (A) (A) (A) (A) (A) (A)
                 (A) (A) (A) (A) (A) (A) (A) (A) (A) (A) (A) (A)
                 (A) (A) (A) (A) (A) (A) (A) (A) (A) (A) (A) (A)
                 (A) (A) (A) (A) (A) (A) (A) (A) (A) (A) (A) (A)
                 (A) (A) (A) (A) (A) (A) (A) (A) (A) (A) (A) (A)
                 (A) (A) (A) (A) (A) (A) (A) (A) (A) (A) (A) (A)
                 (A) (A) (A) (A) (A) (A) (A) (A) (A) (A) (A) (A)
                 (A) (A) (A) (A) (A) (A) (A) (A) (A) (A) (A) (A)
                 (A) (A) (A) (A) (A) (A) (A) (A) (A) (A) (A) (A)
                 (A) (A) (A) (A) (A) (A) (A) (A) (A) (A) (A) (A)
                 (A) (A) (A) (A) (A) (A) (A) (A) (A) (A) (A) (A)
                 (A) (A) (A) (A) (A) (A) (A) (A) (A) (A) (A) (A)
                 (A) (A) (A) (A) (A) (A)
 The electronic state is 1-A.
 Alpha  occ. eigenvalues --  -19.16804 -19.13722 -19.13346 -19.10936 -19.03697
 Alpha  occ. eigenvalues --  -19.01754 -14.31697 -14.19419 -10.21628 -10.19623
 Alpha  occ. eigenvalues --  -10.19357 -10.19073 -10.18692 -10.18092 -10.15959
 Alpha  occ. eigenvalues --  -10.15943 -10.09597  -1.01111  -0.99021  -0.96224
 Alpha  occ. eigenvalues --   -0.94297  -0.93428  -0.89371  -0.85735  -0.73499
 Alpha  occ. eigenvalues --   -0.70543  -0.68124  -0.65683  -0.59895  -0.54698
 Alpha  occ. eigenvalues --   -0.53730  -0.51637  -0.48459  -0.46699  -0.44370
 Alpha  occ. eigenvalues --   -0.43891  -0.41020  -0.40921  -0.39482  -0.38388
 Alpha  occ. eigenvalues --   -0.37252  -0.35125  -0.33712  -0.33370  -0.31921
 Alpha  occ. eigenvalues --   -0.31335  -0.30659  -0.29164  -0.28794  -0.27767
 Alpha  occ. eigenvalues --   -0.26765  -0.25793  -0.25044  -0.24387  -0.22769
 Alpha  occ. eigenvalues --   -0.20987  -0.19592  -0.19125  -0.17853  -0.14368
 Alpha  occ. eigenvalues --   -0.10824  -0.10580  -0.08741  -0.08632
 Alpha virt. eigenvalues --    0.06257   0.08178   0.08958   0.09799   0.10916
 Alpha virt. eigenvalues --    0.11165   0.11607   0.11905   0.12214   0.12817
 Alpha virt. eigenvalues --    0.13860   0.14507   0.15265   0.15717   0.16081
 Alpha virt. eigenvalues --    0.16306   0.16859   0.17166   0.17524   0.17936
 Alpha virt. eigenvalues --    0.18466   0.18996   0.19418   0.19476   0.19658
 Alpha virt. eigenvalues --    0.20004   0.20259   0.20537   0.20780   0.21062
 Alpha virt. eigenvalues --    0.21828   0.22140   0.22397   0.22821   0.23035
 Alpha virt. eigenvalues --    0.23608   0.24146   0.24306   0.25143   0.25445
 Alpha virt. eigenvalues --    0.25626   0.25897   0.26843   0.27390   0.27589
 Alpha virt. eigenvalues --    0.27797   0.28550   0.28800   0.29460   0.29888
 Alpha virt. eigenvalues --    0.30118   0.30335   0.30805   0.31572   0.31998
 Alpha virt. eigenvalues --    0.32327   0.32622   0.33408   0.34025   0.34165
 Alpha virt. eigenvalues --    0.34648   0.35087   0.35258   0.35687   0.35920
 Alpha virt. eigenvalues --    0.36130   0.36562   0.36869   0.37258   0.37663
 Alpha virt. eigenvalues --    0.38119   0.38487   0.38774   0.39112   0.39351
 Alpha virt. eigenvalues --    0.39589   0.40019   0.40337   0.40426   0.40841
 Alpha virt. eigenvalues --    0.41157   0.41643   0.42031   0.42441   0.43165
 Alpha virt. eigenvalues --    0.43507   0.43790   0.44009   0.44367   0.45035
 Alpha virt. eigenvalues --    0.45154   0.46016   0.46498   0.46588   0.46757
 Alpha virt. eigenvalues --    0.47583   0.48208   0.49172   0.49474   0.49868
 Alpha virt. eigenvalues --    0.50512   0.50930   0.51159   0.51254   0.51787
 Alpha virt. eigenvalues --    0.52520   0.52906   0.53352   0.53769   0.54085
 Alpha virt. eigenvalues --    0.54779   0.55313   0.55712   0.56216   0.56609
 Alpha virt. eigenvalues --    0.57393   0.57900   0.58433   0.58710   0.59637
 Alpha virt. eigenvalues --    0.60088   0.60764   0.61777   0.61878   0.62721
 Alpha virt. eigenvalues --    0.63339   0.63776   0.64479   0.65248   0.65384
 Alpha virt. eigenvalues --    0.65855   0.66025   0.66736   0.67544   0.68320
 Alpha virt. eigenvalues --    0.68609   0.69632   0.69975   0.70525   0.71293
 Alpha virt. eigenvalues --    0.72173   0.72405   0.72981   0.73255   0.73565
 Alpha virt. eigenvalues --    0.74255   0.74976   0.75775   0.75949   0.76725
 Alpha virt. eigenvalues --    0.76824   0.77473   0.77830   0.78466   0.78898
 Alpha virt. eigenvalues --    0.79449   0.79761   0.80142   0.80442   0.81135
 Alpha virt. eigenvalues --    0.81424   0.82056   0.82577   0.83288   0.83765
 Alpha virt. eigenvalues --    0.84419   0.85086   0.85498   0.86373   0.86850
 Alpha virt. eigenvalues --    0.87506   0.87810   0.88188   0.89450   0.89812
 Alpha virt. eigenvalues --    0.90002   0.90837   0.91433   0.92532   0.93184
 Alpha virt. eigenvalues --    0.93605   0.94019   0.94729   0.95371   0.96304
 Alpha virt. eigenvalues --    0.96731   0.97932   0.98964   0.99721   1.00087
 Alpha virt. eigenvalues --    1.00664   1.01712   1.02545   1.03003   1.03646
 Alpha virt. eigenvalues --    1.04878   1.05048   1.06548   1.07062   1.08053
 Alpha virt. eigenvalues --    1.08962   1.09621   1.10963   1.11096   1.12572
 Alpha virt. eigenvalues --    1.13304   1.14024   1.14910   1.15199   1.16123
 Alpha virt. eigenvalues --    1.17121   1.18021   1.19130   1.20721   1.21000
 Alpha virt. eigenvalues --    1.21732   1.22954   1.23408   1.23662   1.25061
 Alpha virt. eigenvalues --    1.25678   1.26535   1.27632   1.29174   1.30424
 Alpha virt. eigenvalues --    1.31081   1.31403   1.33371   1.33648   1.34056
 Alpha virt. eigenvalues --    1.35155   1.36482   1.37757   1.38736   1.39008
 Alpha virt. eigenvalues --    1.39613   1.40195   1.42099   1.42984   1.43725
 Alpha virt. eigenvalues --    1.44719   1.45547   1.45995   1.47158   1.48586
 Alpha virt. eigenvalues --    1.49565   1.51213   1.51757   1.52532   1.53651
 Alpha virt. eigenvalues --    1.54435   1.54986   1.56369   1.57081   1.57988
 Alpha virt. eigenvalues --    1.58953   1.59162   1.59736   1.60589   1.61309
 Alpha virt. eigenvalues --    1.63461   1.63855   1.64904   1.65920   1.66652
 Alpha virt. eigenvalues --    1.67306   1.67626   1.68705   1.69270   1.69955
 Alpha virt. eigenvalues --    1.70915   1.72120   1.73801   1.74990   1.76764
 Alpha virt. eigenvalues --    1.78097   1.79492   1.80498   1.81456   1.82164
 Alpha virt. eigenvalues --    1.83729   1.84638   1.85264   1.86043   1.86319
 Alpha virt. eigenvalues --    1.87700   1.88350   1.89940   1.90733   1.91210
 Alpha virt. eigenvalues --    1.92556   1.93176   1.93356   1.93815   1.94829
 Alpha virt. eigenvalues --    1.94925   1.96603   1.97286   1.98040   1.99156
 Alpha virt. eigenvalues --    2.00069   2.00701   2.02608   2.05213   2.06294
 Alpha virt. eigenvalues --    2.06640   2.07692   2.08800   2.10012   2.11080
 Alpha virt. eigenvalues --    2.12509   2.13555   2.14576   2.15224   2.16068
 Alpha virt. eigenvalues --    2.16889   2.17970   2.18164   2.20049   2.21272
 Alpha virt. eigenvalues --    2.22948   2.23726   2.24156   2.24759   2.26593
 Alpha virt. eigenvalues --    2.28019   2.29004   2.30829   2.32274   2.33525
 Alpha virt. eigenvalues --    2.34851   2.36129   2.37592   2.38633   2.39844
 Alpha virt. eigenvalues --    2.40350   2.41006   2.43037   2.43614   2.44371
 Alpha virt. eigenvalues --    2.46618   2.48762   2.49043   2.50698   2.51767
 Alpha virt. eigenvalues --    2.53183   2.55085   2.56264   2.57246   2.59928
 Alpha virt. eigenvalues --    2.61405   2.61884   2.63299   2.65270   2.65825
 Alpha virt. eigenvalues --    2.67428   2.68644   2.70140   2.72815   2.73753
 Alpha virt. eigenvalues --    2.74650   2.75303   2.76018   2.78130   2.79454
 Alpha virt. eigenvalues --    2.82277   2.83221   2.85931   2.86231   2.86796
 Alpha virt. eigenvalues --    2.88688   2.90058   2.92537   2.94167   2.97564
 Alpha virt. eigenvalues --    2.98570   3.02330   3.04312   3.05777   3.10596
 Alpha virt. eigenvalues --    3.11828   3.15140   3.20392   3.26746   3.28225
 Alpha virt. eigenvalues --    3.30405   3.35523   3.40517   3.42288   3.48531
 Alpha virt. eigenvalues --    3.50758   3.54339   3.56096   3.57377   3.58052
 Alpha virt. eigenvalues --    3.58310   3.60271   3.61449   3.61954   3.62332
 Alpha virt. eigenvalues --    3.64129   3.65149   3.67422   3.70020   3.71107
 Alpha virt. eigenvalues --    3.72507   3.74268   3.74690   3.76924   3.78226
 Alpha virt. eigenvalues --    3.80979   3.82853   3.85476   3.88809   3.90081
 Alpha virt. eigenvalues --    3.92714   3.95516   4.01337   4.04659   4.08956
 Alpha virt. eigenvalues --    4.16882   4.18477   4.23265   4.26074   4.33542
 Alpha virt. eigenvalues --    5.00518
          Condensed to atoms (all electrons):
               1          2          3          4          5          6
     1  C   12.354617  -4.647438   2.007001   0.290832   0.442106  -0.057684
     2  C   -4.647438  11.164127  -3.638853  -0.717814  -0.916830   0.119165
     3  C    2.007001  -3.638853  12.690014   0.369497   0.274374  -0.339043
     4  O    0.290832  -0.717814   0.369497   8.805255  -0.134320   0.005514
     5  H    0.442106  -0.916830   0.274374  -0.134320   1.945022   0.043702
     6  O   -0.057684   0.119165  -0.339043   0.005514   0.043702   9.600308
     7  H    0.167821   0.200596  -0.864403  -0.036580   0.050727  -0.206854
     8  N   -0.217066   0.247685  -0.457301   0.022139  -0.183653  -0.042414
     9  C   -2.883937   1.692798  -2.811475  -0.131651   0.174362  -0.441132
    10  H   -1.346541   0.842016  -0.227154  -0.020582  -0.183783   0.127258
    11  O   -1.007652   0.521045  -0.013374  -0.078046  -0.060160  -0.000366
    12  C   -0.228104  -0.091469   0.007766   0.020446  -0.001424   0.029906
    13  H    0.474159  -0.215178   0.179704   0.028473  -0.001096  -0.035075
    14  O   -0.115616   0.046845  -0.017558  -0.000406  -0.005148  -0.028040
    15  H   -0.007233   0.077662  -0.022108  -0.000809   0.001681   0.114199
    16  H   -0.075326  -0.011017   0.000819   0.000650   0.000095  -0.087119
    17  H    0.429682  -0.288798   0.051028   0.015693   0.020440  -0.007669
    18  H   -0.257662   0.178557  -0.065548   0.277988  -0.000439   0.016222
    19  H   -0.021171   0.008284  -0.034761  -0.000734   0.000630   0.022604
    20  C   -0.170502   0.163440  -1.348220   0.002386  -0.104660  -0.102668
    21  C    0.004892  -0.022173  -0.155354   0.003235   0.015348   0.022338
    22  C   -0.013883  -0.010111  -0.068955   0.000790  -0.011687  -0.021769
    23  N   -0.051211   0.056281   0.078894   0.000898   0.002595  -0.002594
    24  C    0.046141   0.084161  -0.743785  -0.017734   0.019581   0.146311
    25  H   -0.080429   0.175927  -0.012682  -0.009048   0.005664   0.084219
    26  H    0.001658  -0.007611   0.117261   0.000383  -0.000614  -0.003324
    27  O    0.000242   0.002062  -0.004934  -0.000011  -0.000038   0.000723
    28  O    0.055862   0.045216  -0.058289  -0.004510   0.045230  -0.002549
               7          8          9         10         11         12
     1  C    0.167821  -0.217066  -2.883937  -1.346541  -1.007652  -0.228104
     2  C    0.200596   0.247685   1.692798   0.842016   0.521045  -0.091469
     3  C   -0.864403  -0.457301  -2.811475  -0.227154  -0.013374   0.007766
     4  O   -0.036580   0.022139  -0.131651  -0.020582  -0.078046   0.020446
     5  H    0.050727  -0.183653   0.174362  -0.183783  -0.060160  -0.001424
     6  O   -0.206854  -0.042414  -0.441132   0.127258  -0.000366   0.029906
     7  H    2.183475  -0.056164   0.095422  -0.023932  -0.018465  -0.044976
     8  N   -0.056164   7.857814   0.142684   0.026850   0.011060   0.062138
     9  C    0.095422   0.142684  11.097666  -0.576642   0.254407  -0.224407
    10  H   -0.023932   0.026850  -0.576642   2.797962  -0.018822   0.003341
    11  O   -0.018465   0.011060   0.254407  -0.018822   8.727430   0.005850
    12  C   -0.044976   0.062138  -0.224407   0.003341   0.005850   5.138455
    13  H    0.002021   0.003428  -1.111856   0.125266  -0.050200  -0.037057
    14  O   -0.001200   0.010578   0.047043   0.054329   0.011531   0.063611
    15  H   -0.003157   0.000619  -0.199626  -0.010386   0.023435   0.146975
    16  H   -0.002840   0.006929   0.376218   0.024469   0.002022   0.032130
    17  H    0.006657  -0.005121  -0.027605  -0.195067   0.270740  -0.006200
    18  H   -0.011270  -0.013247   0.029320   0.040640   0.064640  -0.003228
    19  H    0.000619   0.005201   0.025733  -0.010493   0.000141  -0.032513
    20  C    0.214375   0.217171  -0.099789   0.000622   0.010049  -0.023413
    21  C    0.016785  -0.511354  -0.019212   0.006405  -0.000983  -0.003758
    22  C    0.033441  -0.077035  -0.016883  -0.002663   0.000725  -0.000640
    23  N   -0.005632   0.003388   0.000660   0.003604   0.001368   0.010701
    24  C   -0.005517  -0.059173   0.033522   0.051483  -0.006660  -0.040622
    25  H   -0.301923  -0.114736   0.078457  -0.001347   0.001479   0.013005
    26  H    0.004902   0.101930  -0.000392   0.000008  -0.000018   0.000225
    27  O   -0.000917  -0.012352   0.000312   0.000416  -0.000003  -0.000113
    28  O    0.015816  -0.128494   0.035853   0.005245  -0.005078  -0.006983
              13         14         15         16         17         18
     1  C    0.474159  -0.115616  -0.007233  -0.075326   0.429682  -0.257662
     2  C   -0.215178   0.046845   0.077662  -0.011017  -0.288798   0.178557
     3  C    0.179704  -0.017558  -0.022108   0.000819   0.051028  -0.065548
     4  O    0.028473  -0.000406  -0.000809   0.000650   0.015693   0.277988
     5  H   -0.001096  -0.005148   0.001681   0.000095   0.020440  -0.000439
     6  O   -0.035075  -0.028040   0.114199  -0.087119  -0.007669   0.016222
     7  H    0.002021  -0.001200  -0.003157  -0.002840   0.006657  -0.011270
     8  N    0.003428   0.010578   0.000619   0.006929  -0.005121  -0.013247
     9  C   -1.111856   0.047043  -0.199626   0.376218  -0.027605   0.029320
    10  H    0.125266   0.054329  -0.010386   0.024469  -0.195067   0.040640
    11  O   -0.050200   0.011531   0.023435   0.002022   0.270740   0.064640
    12  C   -0.037057   0.063611   0.146975   0.032130  -0.006200  -0.003228
    13  H    2.229120   0.021902  -0.104753  -0.009751  -0.013458   0.005444
    14  O    0.021902   8.441450  -0.127553  -0.050884  -0.003590   0.000707
    15  H   -0.104753  -0.127553   1.696038  -0.333101  -0.005110   0.001815
    16  H   -0.009751  -0.050884  -0.333101   1.378156  -0.001021  -0.000626
    17  H   -0.013458  -0.003590  -0.005110  -0.001021   0.625258  -0.017699
    18  H    0.005444   0.000707   0.001815  -0.000626  -0.017699   0.595482
    19  H   -0.000944   0.228339   0.019145  -0.036821  -0.000324   0.000067
    20  C    0.001562   0.002803   0.000156   0.003445  -0.002608   0.000855
    21  C   -0.001861   0.001787  -0.000066   0.000403  -0.000250   0.000515
    22  C   -0.000731  -0.001184  -0.000499   0.000006   0.000078  -0.000383
    23  N    0.000158  -0.001025   0.000803  -0.000743  -0.000847   0.000332
    24  C    0.007627  -0.000738  -0.014280   0.014413  -0.002310   0.004349
    25  H    0.004531  -0.000122   0.001002   0.000534  -0.000914   0.002468
    26  H   -0.000120   0.000051  -0.000031   0.000068   0.000015  -0.000140
    27  O    0.000013   0.000036   0.000007  -0.000034  -0.000007   0.000022
    28  O    0.006660  -0.025310   0.005356  -0.004394   0.000091  -0.001010
              19         20         21         22         23         24
     1  C   -0.021171  -0.170502   0.004892  -0.013883  -0.051211   0.046141
     2  C    0.008284   0.163440  -0.022173  -0.010111   0.056281   0.084161
     3  C   -0.034761  -1.348220  -0.155354  -0.068955   0.078894  -0.743785
     4  O   -0.000734   0.002386   0.003235   0.000790   0.000898  -0.017734
     5  H    0.000630  -0.104660   0.015348  -0.011687   0.002595   0.019581
     6  O    0.022604  -0.102668   0.022338  -0.021769  -0.002594   0.146311
     7  H    0.000619   0.214375   0.016785   0.033441  -0.005632  -0.005517
     8  N    0.005201   0.217171  -0.511354  -0.077035   0.003388  -0.059173
     9  C    0.025733  -0.099789  -0.019212  -0.016883   0.000660   0.033522
    10  H   -0.010493   0.000622   0.006405  -0.002663   0.003604   0.051483
    11  O    0.000141   0.010049  -0.000983   0.000725   0.001368  -0.006660
    12  C   -0.032513  -0.023413  -0.003758  -0.000640   0.010701  -0.040622
    13  H   -0.000944   0.001562  -0.001861  -0.000731   0.000158   0.007627
    14  O    0.228339   0.002803   0.001787  -0.001184  -0.001025  -0.000738
    15  H    0.019145   0.000156  -0.000066  -0.000499   0.000803  -0.014280
    16  H   -0.036821   0.003445   0.000403   0.000006  -0.000743   0.014413
    17  H   -0.000324  -0.002608  -0.000250   0.000078  -0.000847  -0.002310
    18  H    0.000067   0.000855   0.000515  -0.000383   0.000332   0.004349
    19  H    0.592122  -0.004201   0.002097  -0.001344   0.010577  -0.019588
    20  C   -0.004201   9.784967  -1.738928   0.075589   0.019370  -1.271116
    21  C    0.002097  -1.738928   9.419226  -2.317210   0.309976   0.895855
    22  C   -0.001344   0.075589  -2.317210   9.089179  -0.223927  -0.829554
    23  N    0.010577   0.019370   0.309976  -0.223927   8.190759  -0.339935
    24  C   -0.019588  -1.271116   0.895855  -0.829554  -0.339935   7.349209
    25  H    0.000370  -0.687474  -0.043620  -0.159939   0.022388   0.078786
    26  H    0.000210   0.539271  -0.908990   0.062142  -0.046161  -0.142124
    27  O   -0.000381   0.029851  -0.021843   0.027226  -0.129621   0.088449
    28  O    0.056835  -0.050260  -0.021699   0.020998  -0.254033   0.243634
              25         26         27         28
     1  C   -0.080429   0.001658   0.000242   0.055862
     2  C    0.175927  -0.007611   0.002062   0.045216
     3  C   -0.012682   0.117261  -0.004934  -0.058289
     4  O   -0.009048   0.000383  -0.000011  -0.004510
     5  H    0.005664  -0.000614  -0.000038   0.045230
     6  O    0.084219  -0.003324   0.000723  -0.002549
     7  H   -0.301923   0.004902  -0.000917   0.015816
     8  N   -0.114736   0.101930  -0.012352  -0.128494
     9  C    0.078457  -0.000392   0.000312   0.035853
    10  H   -0.001347   0.000008   0.000416   0.005245
    11  O    0.001479  -0.000018  -0.000003  -0.005078
    12  C    0.013005   0.000225  -0.000113  -0.006983
    13  H    0.004531  -0.000120   0.000013   0.006660
    14  O   -0.000122   0.000051   0.000036  -0.025310
    15  H    0.001002  -0.000031   0.000007   0.005356
    16  H    0.000534   0.000068  -0.000034  -0.004394
    17  H   -0.000914   0.000015  -0.000007   0.000091
    18  H    0.002468  -0.000140   0.000022  -0.001010
    19  H    0.000370   0.000210  -0.000381   0.056835
    20  C   -0.687474   0.539271   0.029851  -0.050260
    21  C   -0.043620  -0.908990  -0.021843  -0.021699
    22  C   -0.159939   0.062142   0.027226   0.020998
    23  N    0.022388  -0.046161  -0.129621  -0.254033
    24  C    0.078786  -0.142124   0.088449   0.243634
    25  H    2.968078  -0.175281   0.001685  -0.000171
    26  H   -0.175281   2.056132  -0.014457   0.003170
    27  O    0.001685  -0.014457   8.805264  -0.005946
    28  O   -0.000171   0.003170  -0.005946   8.757873
 Mulliken charges:
               1
     1  C    0.906442
     2  C    0.941425
     3  C    1.107442
     4  O   -0.691933
     5  H   -0.437707
     6  O   -0.954167
     7  H   -0.408824
     8  N    0.158497
     9  C    0.460150
    10  H   -0.492503
    11  O   -0.646096
    12  C    1.210358
    13  H   -0.507986
    14  O   -0.552636
    15  H   -0.260182
    16  H   -0.226680
    17  H    0.158915
    18  H    0.151831
    19  H    0.190301
    20  C    0.537928
    21  C    1.068439
    22  C    0.448225
    23  N   -0.657023
    24  C    0.429615
    25  H   -0.850904
    26  H   -0.588164
    27  O   -0.765651
    28  O   -0.729112
 Sum of Mulliken charges =  -1.00000
 Mulliken charges with hydrogens summed into heavy atoms:
               1
     1  C    0.413939
     2  C    0.503719
     3  C    0.698618
     4  O   -0.540102
     6  O   -0.954167
     8  N    0.158497
     9  C   -0.047836
    11  O   -0.487181
    12  C    0.723496
    14  O   -0.362335
    20  C   -0.312976
    21  C    0.480275
    22  C    0.448225
    23  N   -0.657023
    24  C    0.429615
    27  O   -0.765651
    28  O   -0.729112
 Electronic spatial extent (au):  <R**2>=           4158.9871
 Charge=             -1.0000 electrons
 Dipole moment (field-independent basis, Debye):
    X=             12.2517    Y=             -5.6165    Z=              2.6135  Tot=             13.7288
 Quadrupole moment (field-independent basis, Debye-Ang):
   XX=           -160.3374   YY=           -121.3135   ZZ=           -102.3029
   XY=             11.3369   XZ=            -15.0694   YZ=              5.5876
 Traceless Quadrupole moment (field-independent basis, Debye-Ang):
   XX=            -32.3528   YY=              6.6711   ZZ=             25.6817
   XY=             11.3369   XZ=            -15.0694   YZ=              5.5876
 Octapole moment (field-independent basis, Debye-Ang**2):
  XXX=            316.8781  YYY=            -11.7033  ZZZ=            -13.5784  XYY=             -1.6868
  XXY=            -55.9228  XXZ=             21.3016  XZZ=             37.5643  YZZ=            -11.2772
  YYZ=             13.3678  XYZ=             -3.4717
 Hexadecapole moment (field-independent basis, Debye-Ang**3):
 XXXX=          -5283.5012 YYYY=          -1260.5567 ZZZZ=           -486.0606 XXXY=            203.9400
 XXXZ=           -246.9674 YYYX=            -45.9290 YYYZ=             10.5033 ZZZX=            -56.2107
 ZZZY=             18.8080 XXYY=           -911.1735 XXZZ=           -693.4416 YYZZ=           -262.0695
 XXYZ=             51.8037 YYXZ=            -19.7053 ZZXY=              5.0089
 N-N= 1.314276127050D+03 E-N=-4.778100694867D+03  KE= 9.048904348381D+02
 Calling FoFJK, ICntrl=      2127 FMM=F ISym2X=0 I1Cent= 0 IOpClX= 0 NMat=1 NMatS=1 NMatT=0.
 ***** Axes restored to original set *****
 -------------------------------------------------------------------
 Center     Atomic                   Forces (Hartrees/Bohr)
 Number     Number              X              Y              Z
 -------------------------------------------------------------------
      1        6           0.005293800   -0.000651903    0.000505061
      2        6           0.003139117   -0.006792692    0.000628431
      3        6           0.019828782    0.002656987   -0.004134112
      4        8          -0.005840922    0.006242563   -0.000287808
      5        1          -0.000121279   -0.000906730    0.001346216
      6        8          -0.012038977   -0.004097857    0.002701366
      7        1          -0.002291197    0.000839651    0.001074943
      8        7          -0.025422464    0.017549556    0.012172634
      9        6           0.007867309    0.000753623    0.001531437
     10        1           0.001497180    0.000326028    0.000433066
     11        8          -0.007739918    0.001893181   -0.001953806
     12        6           0.002283964   -0.001286078   -0.003179062
     13        1          -0.001710531    0.000725874    0.000498723
     14        8          -0.006501029   -0.001562248    0.003398071
     15        1          -0.001276876   -0.000167482   -0.000088630
     16        1           0.000256949    0.000073632    0.001003503
     17        1           0.001518612   -0.000145221    0.000859192
     18        1           0.001380240   -0.000447527    0.000082442
     19        1           0.007286076    0.004117968   -0.003769798
     20        6          -0.002619054    0.001163833    0.000764086
     21        6           0.005810090    0.006280342    0.005503150
     22        6          -0.066875259   -0.015134938   -0.015225242
     23        7          -0.005440931   -0.004510308   -0.003985133
     24        6           0.090075853   -0.004523467    0.000747775
     25        1          -0.000565643    0.000990074    0.000757842
     26        1           0.000232679    0.004507793    0.003690301
     27        8           0.031484171    0.000551533    0.001655879
     28        8          -0.039510742   -0.008446186   -0.006730526
 -------------------------------------------------------------------
 Cartesian Forces:  Max     0.090075853 RMS     0.014684973

 GradGradGradGradGradGradGradGradGradGradGradGradGradGradGradGradGradGrad
 Berny optimization.
 FormGI is forming the generalized inverse of G from B-inverse, IUseBI=4.
 Internal  Forces:  Max     0.036370068 RMS     0.007193908
 Search for a local minimum.
 Step number   1 out of a maximum of  166
 All quantities printed in internal units (Hartrees-Bohrs-Radians)
 Mixed Optimization -- RFO/linear search
 Second derivative matrix not updated -- first step.
 ITU=  0
     Eigenvalues ---    0.00367   0.00567   0.00912   0.00928   0.01426
     Eigenvalues ---    0.01483   0.01514   0.01575   0.01590   0.01738
     Eigenvalues ---    0.01933   0.01944   0.02090   0.02267   0.02469
     Eigenvalues ---    0.03049   0.03748   0.04344   0.04876   0.04909
     Eigenvalues ---    0.05002   0.05383   0.05597   0.06103   0.06119
     Eigenvalues ---    0.06138   0.06550   0.07980   0.08396   0.10188
     Eigenvalues ---    0.11680   0.13233   0.14039   0.16000   0.16000
     Eigenvalues ---    0.16000   0.16000   0.16000   0.16039   0.17531
     Eigenvalues ---    0.19179   0.19697   0.22088   0.22439   0.24475
     Eigenvalues ---    0.24964   0.24996   0.24999   0.25000   0.26520
     Eigenvalues ---    0.27666   0.28915   0.30850   0.33247   0.33255
     Eigenvalues ---    0.33690   0.33737   0.33754   0.34332   0.34936
     Eigenvalues ---    0.35343   0.37094   0.37140   0.39005   0.42449
     Eigenvalues ---    0.42642   0.43115   0.44191   0.44371   0.46395
     Eigenvalues ---    0.48331   0.50094   0.53468   0.53795   0.54133
     Eigenvalues ---    0.55320   0.93966   0.96910
 RFO step:  Lambda=-2.30781510D-02 EMin= 3.67237045D-03
 Linear search not attempted -- first point.
 Iteration  1 RMS(Cart)=  0.11295188 RMS(Int)=  0.00371364
 Iteration  2 RMS(Cart)=  0.00667148 RMS(Int)=  0.00016241
 Iteration  3 RMS(Cart)=  0.00002547 RMS(Int)=  0.00016177
 Iteration  4 RMS(Cart)=  0.00000001 RMS(Int)=  0.00016177
 Variable       Old X    -DE/DX   Delta X   Delta X   Delta X     New X
                                 (Linear)    (Quad)   (Total)
    R1        2.91009  -0.00196   0.00000  -0.00883  -0.00880   2.90130
    R2        2.88699  -0.00070   0.00000  -0.00366  -0.00360   2.88339
    R3        2.06774  -0.00013   0.00000  -0.00035  -0.00035   2.06739
    R4        2.68356   0.00650   0.00000   0.01451   0.01451   2.69807
    R5        2.91117  -0.00057   0.00000  -0.00023  -0.00022   2.91095
    R6        2.66226   0.00698   0.00000   0.01500   0.01500   2.67727
    R7        2.07857  -0.00120   0.00000  -0.00334  -0.00334   2.07523
    R8        2.65485   0.00458   0.00000   0.01162   0.01158   2.66643
    R9        2.07777   0.00117   0.00000   0.00324   0.00324   2.08101
   R10        2.75705  -0.01160   0.00000  -0.02943  -0.02943   2.72762
   R11        1.83219  -0.00131   0.00000  -0.00236  -0.00236   1.82983
   R12        2.70179  -0.00755   0.00000  -0.01765  -0.01772   2.68407
   R13        2.59746  -0.01033   0.00000  -0.01816  -0.01816   2.57930
   R14        2.62049   0.02310   0.00000   0.04629   0.04636   2.66685
   R15        2.86301  -0.00187   0.00000  -0.00564  -0.00564   2.85736
   R16        2.08605   0.00176   0.00000   0.00495   0.00495   2.09100
   R17        1.81549  -0.00111   0.00000  -0.00192  -0.00192   1.81356
   R18        2.66014  -0.00089   0.00000  -0.00190  -0.00190   2.65823
   R19        2.07748   0.00128   0.00000   0.00355   0.00355   2.08103
   R20        2.08619   0.00098   0.00000   0.00275   0.00275   2.08894
   R21        1.82919   0.00856   0.00000   0.01526   0.01526   1.84445
   R22        2.54971  -0.00542   0.00000  -0.00818  -0.00825   2.54146
   R23        2.05778   0.00135   0.00000   0.00364   0.00364   2.06142
   R24        2.74095   0.01654   0.00000   0.04065   0.04058   2.78153
   R25        2.05122   0.00412   0.00000   0.01093   0.01093   2.06215
   R26        2.65330  -0.01730   0.00000  -0.03836  -0.03836   2.61494
   R27        2.29902   0.02843   0.00000   0.02865   0.02865   2.32767
   R28        2.58960  -0.02509   0.00000  -0.04851  -0.04844   2.54115
   R29        2.31157   0.03637   0.00000   0.03778   0.03778   2.34935
    A1        1.80832   0.00013   0.00000   0.00268   0.00263   1.81095
    A2        1.92505  -0.00138   0.00000  -0.01937  -0.01943   1.90563
    A3        1.94969   0.00127   0.00000   0.01505   0.01505   1.96473
    A4        1.91762  -0.00067   0.00000  -0.00611  -0.00606   1.91156
    A5        1.91306   0.00050   0.00000   0.00531   0.00506   1.91813
    A6        1.94533   0.00012   0.00000   0.00229   0.00239   1.94772
    A7        1.80752  -0.00064   0.00000   0.00132   0.00124   1.80876
    A8        1.93405  -0.00023   0.00000   0.00083   0.00062   1.93467
    A9        1.96005  -0.00073   0.00000  -0.01470  -0.01471   1.94535
   A10        1.88420   0.00216   0.00000   0.02203   0.02213   1.90633
   A11        1.94203  -0.00061   0.00000  -0.01343  -0.01366   1.92837
   A12        1.93127   0.00012   0.00000   0.00496   0.00502   1.93630
   A13        1.89071  -0.00056   0.00000  -0.00699  -0.00751   1.88320
   A14        1.87056  -0.00044   0.00000  -0.00029  -0.00005   1.87051
   A15        2.02553  -0.00311   0.00000  -0.02328  -0.02362   2.00190
   A16        1.93095   0.00006   0.00000   0.00467   0.00481   1.93577
   A17        1.90212  -0.00020   0.00000  -0.01716  -0.01777   1.88435
   A18        1.84315   0.00441   0.00000   0.04539   0.04556   1.88871
   A19        1.84784  -0.00111   0.00000  -0.00608  -0.00608   1.84175
   A20        1.92902  -0.00078   0.00000   0.00840   0.00840   1.93742
   A21        2.09749   0.00434   0.00000   0.01368   0.01364   2.11113
   A22        2.07461  -0.00238   0.00000  -0.01104  -0.01108   2.06354
   A23        2.10984  -0.00198   0.00000  -0.00295  -0.00288   2.10696
   A24        1.84242   0.00202   0.00000   0.00535   0.00495   1.84737
   A25        2.00367  -0.00266   0.00000  -0.02006  -0.02016   1.98351
   A26        1.89859   0.00022   0.00000   0.00809   0.00810   1.90668
   A27        1.88640  -0.00270   0.00000  -0.02186  -0.02197   1.86443
   A28        1.91800   0.00064   0.00000   0.00826   0.00828   1.92628
   A29        1.91278   0.00251   0.00000   0.02021   0.02038   1.93315
   A30        1.89998  -0.00241   0.00000  -0.01316  -0.01316   1.88682
   A31        1.97827  -0.00471   0.00000  -0.02031  -0.02033   1.95794
   A32        1.89507   0.00226   0.00000   0.01209   0.01212   1.90719
   A33        1.88684  -0.00018   0.00000  -0.00485  -0.00487   1.88197
   A34        1.87278   0.00083   0.00000   0.00259   0.00264   1.87542
   A35        1.94588   0.00236   0.00000   0.00946   0.00934   1.95522
   A36        1.88222  -0.00035   0.00000   0.00232   0.00230   1.88452
   A37        1.89917   0.00157   0.00000   0.00858   0.00858   1.90775
   A38        2.15394  -0.01157   0.00000  -0.04035  -0.04043   2.11351
   A39        2.00144   0.00558   0.00000   0.01906   0.01910   2.02053
   A40        2.12780   0.00599   0.00000   0.02128   0.02131   2.14911
   A41        2.08873  -0.00098   0.00000  -0.00024  -0.00039   2.08834
   A42        2.12285  -0.00375   0.00000  -0.02300  -0.02293   2.09992
   A43        2.07158   0.00472   0.00000   0.02326   0.02333   2.09492
   A44        1.97073   0.01852   0.00000   0.06534   0.06525   2.03598
   A45        2.21437  -0.02494   0.00000  -0.09012  -0.09008   2.12429
   A46        2.09808   0.00643   0.00000   0.02476   0.02480   2.12288
   A47        2.23930  -0.02390   0.00000  -0.09384  -0.09375   2.14555
   A48        2.00352   0.01990   0.00000   0.07178   0.07187   2.07540
   A49        2.14193  -0.03166   0.00000  -0.11533  -0.11544   2.02649
   A50        2.13770   0.01176   0.00000   0.04368   0.04356   2.18127
    D1        0.37884  -0.00005   0.00000   0.00981   0.01003   0.38888
    D2       -1.63754  -0.00211   0.00000  -0.01683  -0.01668  -1.65422
    D3        2.47590  -0.00155   0.00000  -0.01307  -0.01291   2.46299
    D4       -1.67269   0.00130   0.00000   0.02449   0.02455  -1.64814
    D5        2.59412  -0.00076   0.00000  -0.00215  -0.00217   2.59194
    D6        0.42437  -0.00020   0.00000   0.00161   0.00160   0.42597
    D7        2.43674   0.00124   0.00000   0.02493   0.02508   2.46182
    D8        0.42036  -0.00082   0.00000  -0.00171  -0.00164   0.41872
    D9       -1.74939  -0.00027   0.00000   0.00205   0.00213  -1.74726
   D10       -0.50986  -0.00052   0.00000   0.01378   0.01381  -0.49605
   D11       -2.58546   0.00299   0.00000   0.04878   0.04880  -2.53667
   D12        1.54773   0.00142   0.00000   0.03026   0.03029   1.57803
   D13        1.54685  -0.00236   0.00000  -0.01010  -0.01005   1.53681
   D14       -0.52875   0.00115   0.00000   0.02491   0.02494  -0.50381
   D15       -2.67874  -0.00043   0.00000   0.00639   0.00644  -2.67230
   D16       -2.59304  -0.00231   0.00000  -0.00775  -0.00772  -2.60077
   D17        1.61453   0.00120   0.00000   0.02725   0.02727   1.64180
   D18       -0.53545  -0.00038   0.00000   0.00874   0.00876  -0.52669
   D19        1.79890  -0.00081   0.00000  -0.01334  -0.01338   1.78551
   D20       -2.49027   0.00038   0.00000   0.00168   0.00171  -2.48856
   D21       -0.36349  -0.00004   0.00000  -0.00089  -0.00089  -0.36438
   D22       -0.12565  -0.00093   0.00000  -0.03247  -0.03240  -0.15805
   D23       -2.20966  -0.00045   0.00000  -0.03406  -0.03401  -2.24367
   D24        2.01965  -0.00384   0.00000  -0.07727  -0.07714   1.94251
   D25        1.92586  -0.00056   0.00000  -0.02116  -0.02107   1.90479
   D26       -0.15815  -0.00008   0.00000  -0.02274  -0.02268  -0.18083
   D27       -2.21203  -0.00347   0.00000  -0.06595  -0.06580  -2.27783
   D28       -2.23494   0.00063   0.00000  -0.00888  -0.00889  -2.24382
   D29        1.96424   0.00111   0.00000  -0.01046  -0.01050   1.95374
   D30       -0.08964  -0.00228   0.00000  -0.05368  -0.05363  -0.14326
   D31       -0.39134   0.00037   0.00000   0.00774   0.00781  -0.38354
   D32       -2.35944   0.00007   0.00000  -0.00633  -0.00635  -2.36579
   D33        1.79471  -0.00065   0.00000  -0.00706  -0.00711   1.78760
   D34       -0.20524   0.00107   0.00000   0.04340   0.04339  -0.16185
   D35        1.84035   0.00024   0.00000   0.04154   0.04157   1.88192
   D36       -2.42364   0.00548   0.00000   0.08898   0.08890  -2.33474
   D37        2.16659   0.00057   0.00000  -0.00473  -0.00501   2.16158
   D38       -1.02810   0.00026   0.00000  -0.01140  -0.01157  -1.03966
   D39       -1.97729  -0.00257   0.00000  -0.04450  -0.04439  -2.02168
   D40        1.11121  -0.00287   0.00000  -0.05117  -0.05095   1.06026
   D41        0.09762  -0.00019   0.00000  -0.02293  -0.02293   0.07469
   D42       -3.09707  -0.00050   0.00000  -0.02960  -0.02948  -3.12655
   D43        0.45500  -0.00076   0.00000  -0.03648  -0.03654   0.41846
   D44        2.60698  -0.00424   0.00000  -0.06917  -0.06921   2.53776
   D45       -1.58951  -0.00245   0.00000  -0.05303  -0.05309  -1.64260
   D46        3.11535  -0.00014   0.00000   0.00168   0.00170   3.11706
   D47       -0.03174  -0.00023   0.00000  -0.00147  -0.00161  -0.03335
   D48        0.02794   0.00018   0.00000   0.00872   0.00866   0.03660
   D49       -3.11915   0.00009   0.00000   0.00557   0.00534  -3.11380
   D50       -3.11301  -0.00045   0.00000  -0.00434  -0.00465  -3.11766
   D51        0.03693  -0.00112   0.00000  -0.02142  -0.02107   0.01587
   D52       -0.02490  -0.00056   0.00000  -0.01054  -0.01067  -0.03557
   D53        3.12504  -0.00123   0.00000  -0.02762  -0.02709   3.09796
   D54        0.82477  -0.00094   0.00000  -0.02719  -0.02704   0.79773
   D55       -1.25449  -0.00058   0.00000  -0.02597  -0.02576  -1.28025
   D56        2.99111  -0.00127   0.00000  -0.03257  -0.03234   2.95877
   D57       -1.22605   0.00000   0.00000  -0.00661  -0.00687  -1.23292
   D58        2.97787   0.00036   0.00000  -0.00539  -0.00559   2.97229
   D59        0.94029  -0.00033   0.00000  -0.01199  -0.01216   0.92812
   D60        2.96714  -0.00062   0.00000  -0.01526  -0.01530   2.95184
   D61        0.88788  -0.00026   0.00000  -0.01405  -0.01402   0.87386
   D62       -1.14971  -0.00095   0.00000  -0.02065  -0.02060  -1.17030
   D63        0.66926  -0.00265   0.00000  -0.05345  -0.05350   0.61576
   D64        2.76128  -0.00213   0.00000  -0.04896  -0.04896   2.71231
   D65       -1.46457  -0.00073   0.00000  -0.03926  -0.03921  -1.50378
   D66       -0.01206  -0.00009   0.00000   0.00048   0.00007  -0.01199
   D67        3.13667  -0.00018   0.00000  -0.00314  -0.00346   3.13321
   D68        3.13542   0.00001   0.00000   0.00388   0.00366   3.13908
   D69        0.00096  -0.00008   0.00000   0.00026   0.00014   0.00110
   D70       -0.00407  -0.00030   0.00000  -0.00846  -0.00876  -0.01284
   D71        3.14097  -0.00011   0.00000  -0.00327  -0.00340   3.13757
   D72        3.13060  -0.00025   0.00000  -0.00513  -0.00543   3.12516
   D73       -0.00754  -0.00006   0.00000   0.00006  -0.00007  -0.00762
   D74        0.00540   0.00030   0.00000   0.00786   0.00814   0.01354
   D75       -3.13939   0.00005   0.00000   0.00279   0.00253  -3.13686
   D76        0.00883   0.00003   0.00000   0.00119   0.00102   0.00985
   D77       -3.14109   0.00047   0.00000   0.01738   0.01818  -3.12290
         Item               Value     Threshold  Converged?
 Maximum Force            0.036370     0.000450     NO 
 RMS     Force            0.007194     0.000300     NO 
 Maximum Displacement     0.430576     0.001800     NO 
 RMS     Displacement     0.116858     0.001200     NO 
 Predicted change in Energy=-1.301118D-02
 GradGradGradGradGradGradGradGradGradGradGradGradGradGradGradGradGradGrad

                          Input orientation:                          
 ---------------------------------------------------------------------
 Center     Atomic      Atomic             Coordinates (Angstroms)
 Number     Number       Type             X           Y           Z
 ---------------------------------------------------------------------
      1          6           0       -2.251886    0.213215   -0.619667
      2          6           0       -1.210000    1.339984   -0.574844
      3          6           0       -0.360468    0.999922    0.664313
      4          8           0       -1.834584    2.596862   -0.381634
      5          1           0       -0.586133    1.346501   -1.478563
      6          8           0       -0.999643   -0.052971    1.352665
      7          1           0       -0.316292    1.907025    1.287134
      8          7           0        0.991382    0.585887    0.373694
      9          6           0       -2.290757   -0.302455    0.815850
     10          1           0       -1.895356   -0.579895   -1.283544
     11          8           0       -3.545845    0.678287   -1.004206
     12          6           0       -2.527137   -1.792359    0.918872
     13          1           0       -3.058505    0.256672    1.383569
     14          8           0       -1.727031   -2.520450    0.019733
     15          1           0       -3.578930   -2.011132    0.676827
     16          1           0       -2.349182   -2.091525    1.968055
     17          1           0       -3.685820    0.443786   -1.924224
     18          1           0       -2.750091    2.479021   -0.674168
     19          1           0       -0.860006   -2.081140   -0.069321
     20          6           0        2.058350    1.237019    0.921943
     21          6           0        3.318206    0.836207    0.675315
     22          6           0        3.554833   -0.332603   -0.187499
     23          7           0        2.434256   -0.969958   -0.690385
     24          6           0        1.180875   -0.555755   -0.433981
     25          1           0        1.817877    2.093036    1.553907
     26          1           0        4.162228    1.370927    1.114078
     27          8           0        4.692676   -0.729882   -0.441848
     28          8           0        0.148256   -1.109528   -0.849472
 ---------------------------------------------------------------------
                    Distance matrix (angstroms):
                    1          2          3          4          5
     1  C    0.000000
     2  C    1.535299   0.000000
     3  C    2.417638   1.540409   0.000000
     4  O    2.431579   1.416748   2.411896   0.000000
     5  H    2.190153   1.098162   2.182420   2.079732   0.000000
     6  O    2.351396   2.387440   1.411013   3.275139   3.185179
     7  H    3.201782   2.141778   1.101224   2.359210   2.834798
     8  N    3.412395   2.512862   1.443393   3.549736   2.549106
     9  C    1.525823   2.408251   2.333488   3.169874   3.299868
    10  H    1.094015   2.158218   2.940382   3.302865   2.337327
    11  O    1.427758   2.465434   3.610268   2.645173   3.071061
    12  C    2.542674   3.711820   3.543457   4.629925   4.400867
    13  H    2.159972   2.902743   2.889490   3.176541   3.936006
    14  O    2.856086   3.940025   3.830926   5.134155   4.301145
    15  H    2.896491   4.290511   4.407392   5.039513   4.987608
    16  H    3.466641   4.420331   3.900227   5.269423   5.177600
    17  H    1.952229   2.958661   4.250620   3.231469   3.259074
    18  H    2.320572   1.918110   3.112806   0.968306   2.571452
    19  H    2.739393   3.475938   3.206353   4.788637   3.716140
    20  C    4.690722   3.596261   2.444027   4.324745   3.573193
    21  C    5.752480   4.724547   3.682331   5.546917   4.488146
    22  C    5.848305   5.064703   4.222652   6.137203   4.651219
    23  N    4.833717   4.316223   3.677786   5.571402   3.887153
    24  C    3.522732   3.054497   2.449922   4.362880   2.798579
    25  H    4.982080   3.777130   2.594506   4.164208   3.941123
    26  H    6.744408   5.631541   4.560122   6.300939   5.410113
    27  O    7.010563   6.256487   5.454363   7.326389   5.766452
    28  O    2.750116   2.814319   2.645774   4.229403   2.639538
                    6          7          8          9         10
     6  O    0.000000
     7  H    2.076740   0.000000
     8  N    2.308833   2.071181   0.000000
     9  C    1.420348   3.000404   3.428862   0.000000
    10  H    2.833646   3.909808   3.526861   2.154244   0.000000
    11  O    3.545804   4.146089   4.742740   2.418617   2.094078
    12  C    2.355182   4.325378   4.281735   1.512052   2.592268
    13  H    2.082246   3.201983   4.186863   1.106511   3.027582
    14  O    2.897284   4.816537   4.142993   2.423033   2.343634
    15  H    3.308152   5.135099   5.265373   2.144363   2.953966
    16  H    2.521044   4.537036   4.568358   2.128793   3.614399
    17  H    4.266182   4.879304   5.213141   3.164029   2.159665
    18  H    3.685526   3.177619   4.322105   3.188691   3.234018
    19  H    2.480930   4.247476   3.276726   2.448325   2.190897
    20  C    3.346778   2.494233   1.364907   4.614756   4.878232
    21  C    4.460186   3.838039   2.359606   5.725100   5.746625
    22  C    4.815968   4.709149   2.780259   5.931150   5.564803
    23  N    4.099583   4.444449   2.373774   5.004003   4.387428
    24  C    2.863487   3.356937   1.411238   3.698441   3.191479
    25  H    3.547430   2.158806   2.085064   4.812897   5.383659
    26  H    5.359975   4.513811   3.349436   6.673093   6.800634
    27  O    6.006745   5.918819   4.011974   7.108645   6.643276
    28  O    2.698776   3.725652   2.254203   3.061608   2.155291
                   11         12         13         14         15
    11  O    0.000000
    12  C    3.292429   0.000000
    13  H    2.473202   2.167216   0.000000
    14  O    3.819484   1.406676   3.368276   0.000000
    15  H    3.171741   1.101234   2.431720   2.029953   0.000000
    16  H    4.235351   1.105420   2.521665   2.089739   1.784941
    17  H    0.959695   3.798168   3.371947   4.050002   3.578199
    18  H    1.996194   4.564227   3.044377   5.150035   4.761684
    19  H    3.962598   1.959399   3.522734   0.976041   2.820317
    20  C    5.952246   5.495802   5.230334   5.409405   6.510722
    21  C    7.068304   6.413791   6.442044   6.095190   7.461758
    22  C    7.218624   6.351795   6.822883   5.720813   7.379369
    23  N    6.211022   5.280290   5.998027   4.497176   6.253936
    24  C    4.918323   4.136273   4.683574   3.538615   5.099781
    25  H    6.108598   5.863336   5.213477   6.017001   6.836592
    26  H    8.023794   7.402168   7.311168   7.143093   8.459022
    27  O    8.376898   7.423350   8.024105   6.680706   8.444674
    28  O    4.106897   3.278875   4.139600   2.502582   4.127274
                   16         17         18         19         20
    16  H    0.000000
    17  H    4.833656   0.000000
    18  H    5.294521   2.565230   0.000000
    19  H    2.523619   4.219140   4.973261   0.000000
    20  C    5.621379   6.459518   5.216440   4.528751   0.000000
    21  C    6.508616   7.481174   6.429943   5.150034   1.344883
    22  C    6.526685   7.486390   6.920559   4.749963   2.435988
    23  N    5.586277   6.401277   6.226810   3.531657   2.758923
[...]
 005535,0.00000492,0.00089491,0.00042913,-0.00044673,0.05015513,-0.0530
 4868,-0.09469426,0.03254406,0.24690932,0.30070120,-0.00152930,0.000547
 75,-0.00005638,-0.00100489,0.00171990,-0.00019758,-0.00475982,-0.00061
 788,0.00065188,0.00144142,-0.00189742,0.00005311,-0.00001355,0.0004438
 2,-0.00036369,0.00242478,0.00040963,-0.00105806,0.00101683,-0.00107254
 ,-0.00074411,0.00268690,-0.01897471,-0.01439903,-0.00168516,-0.0002680
 7,-0.00023094,-0.00076352,-0.00003166,-0.00016027,0.00194891,-0.000747
 98,0.00037638,-0.00106863,0.00089663,0.00143782,0.00045550,-0.00018426
 ,-0.00017700,0.00401772,0.00150980,-0.00194353,0.00050090,-0.00003700,
 -0.00008206,0.00002153,-0.00005983,-0.00045762,-0.00033433,0.00008271,
 -0.00022518,-0.00018028,0.00011803,-0.00004029,-0.00541313,-0.00342603
 ,0.00233459,0.00883781,0.03238055,0.02670913,-0.09691367,0.00910076,0.
 00558021,0.85689122,-0.00012206,0.00091311,0.00009098,-0.00085920,-0.0
 0023203,0.00087494,0.00634960,-0.00240735,-0.00327529,-0.00060133,-0.0
 0021193,-0.00041989,0.00004840,0.00029030,0.00004528,-0.00366140,-0.00
 216304,0.00053521,0.00079242,-0.00030518,-0.00018027,-0.01891136,-0.02
 746488,-0.01860994,0.00097453,0.00055745,0.00102800,-0.00048289,0.0000
 3736,-0.00017044,-0.00032915,-0.00058094,-0.00030747,-0.00100620,0.001
 08986,0.00101337,-0.00033456,-0.00013315,-0.00014990,0.00282740,0.0003
 8834,-0.00141758,0.00014008,-0.00021944,-0.00013158,0.00009789,-0.0000
 6540,-0.00022903,-0.00003109,0.00013631,0.00001883,0.00016810,0.000194
 62,-0.00001888,-0.00323156,-0.00197984,0.00153492,0.04999236,0.0047812
 0,0.00370400,-0.00846754,-0.16221260,-0.06654762,-0.09312124,0.4471926
 0,-0.00006953,0.00078746,0.00019842,-0.00090706,0.00017958,0.00105707,
 0.00456631,-0.00159251,-0.00279504,-0.00042270,-0.00023985,-0.00049858
 ,0.00006744,0.00028814,-0.00005851,-0.00228845,-0.00153431,-0.00015414
 ,0.00065990,-0.00035081,0.00009119,-0.01410470,-0.01713007,-0.02254403
 ,0.00079607,0.00032769,0.00072898,-0.00047689,-0.00010352,-0.00014437,
 -0.00011841,-0.00050545,-0.00031273,-0.00065888,0.00060713,0.00067732,
 -0.00022729,-0.00007762,-0.00011720,0.00142534,-0.00006906,-0.00088052
 ,0.00007098,-0.00015766,-0.00009006,0.00006683,-0.00000640,-0.00018964
 ,-0.00007030,0.00010522,0.00000151,0.00010099,0.00017798,-0.00001566,-
 0.00212753,-0.00081713,0.00104394,0.03947566,0.00256116,0.00879773,-0.
 00795128,-0.06527948,-0.13493449,-0.04993196,0.18207784,0.36131458,0.0
 0195390,-0.00179581,-0.00066863,0.00135052,-0.00223622,-0.00021857,0.0
 0312810,-0.00001897,-0.00018168,-0.00114111,0.00245223,0.00030694,-0.0
 0011267,-0.00085823,0.00038830,-0.00041514,0.00156212,0.00164007,-0.00
 110315,0.00125732,0.00103128,-0.00539465,0.04790638,0.03626275,0.00139
 688,-0.00018613,-0.00074779,0.00169142,0.00020198,0.00061225,-0.002516
 90,0.00178948,-0.00005131,0.00216405,-0.00192425,-0.00277477,-0.000270
 21,0.00030243,0.00036518,-0.00756566,-0.00315932,0.00412023,-0.0007189
 2,0.00023762,0.00025275,-0.00018379,0.00011976,0.00082425,0.00047063,-
 0.00023943,0.00035688,0.00004388,-0.00035523,0.00007111,0.00984426,0.0
 0776674,-0.00533184,-0.03774648,-0.01261317,-0.01243353,0.01798700,-0.
 02213370,-0.01670785,-0.18187085,-0.07888815,-0.06801320,0.73632280,0.
 00009680,-0.00072010,-0.00033476,-0.00017694,0.00021471,-0.00065238,-0
 .00536620,-0.00426418,-0.00429836,0.00023024,0.00023699,0.00044845,-0.
 00009756,-0.00012185,0.00023143,0.00182423,0.00211680,-0.00018330,0.00
 172872,-0.00104505,-0.00029126,0.03661820,-0.00759218,-0.01961292,-0.0
 0068336,-0.00040489,-0.00073691,0.00029541,0.00007428,0.00020189,-0.00
 001450,0.00060561,0.00023696,0.00065582,-0.00057504,-0.00057430,0.0001
 8338,0.00004391,0.00010496,-0.00127459,0.00012580,0.00065863,-0.000075
 17,0.00012007,0.00004632,-0.00001528,0.00002329,0.00011551,0.00004594,
 -0.00010516,0.00003671,-0.00017034,-0.00012697,0.00003717,0.00126468,0
 .00051789,-0.00068832,0.00111795,0.00082215,0.00142230,-0.02348373,-0.
 00903907,-0.02331093,-0.05977965,-0.14484550,-0.06837540,0.00410018,0.
 24570767,0.00011230,-0.00043807,-0.00018932,0.00028655,-0.00057426,-0.
 00109838,-0.00382344,-0.00620190,0.00020269,0.00037489,0.00016387,0.00
 055002,0.00013184,-0.00021958,0.00011597,0.00016929,0.00169493,0.00082
 609,0.00150475,-0.00018963,-0.00063366,0.02614779,-0.01867761,0.007950
 45,-0.00049578,-0.00017735,-0.00043704,0.00031397,0.00005251,0.0000976
 9,-0.00012838,0.00036537,0.00022868,0.00056546,-0.00041954,-0.00054978
 ,0.00008057,0.00003218,0.00004742,-0.00135304,-0.00060396,0.00087279,-
 0.00007747,0.00010275,0.00007010,-0.00007262,0.00000611,0.00017449,0.0
 0006949,-0.00006066,-0.00000960,-0.00003787,-0.00015573,0.00003070,0.0
 0140157,0.00171629,-0.00098337,-0.00093888,0.00046821,-0.00018456,-0.0
 1854883,-0.02344143,-0.00091265,-0.05256126,-0.06816671,-0.11868553,0.
 03616382,0.14346947,0.17432785,-0.00447993,0.00320268,-0.00001897,-0.0
 0364850,0.00376033,0.00324910,0.00595059,0.03450096,0.02065310,0.00131
 106,-0.00397163,-0.00201473,-0.00021503,0.00271953,-0.00174941,-0.0015
 1761,-0.00884765,-0.00279203,-0.00559312,0.00101164,-0.00086536,-0.142
 62382,0.00407305,-0.00123818,-0.00168141,0.00091171,0.00261805,-0.0030
 6368,-0.00019507,-0.00046901,0.00312187,-0.00274421,-0.00006863,-0.003
 98399,0.00337225,0.00483065,0.00021030,-0.00044461,-0.00069990,0.01366
 236,0.00425943,-0.00622676,0.00123439,-0.00055536,-0.00055197,0.000286
 63,-0.00017850,-0.00136510,-0.00068653,0.00041476,-0.00046210,-0.00000
 884,0.00064334,-0.00039229,-0.02128364,-0.01257292,0.00700886,0.040553
 62,-0.01023953,-0.00446100,-0.01389999,0.01193298,0.00848366,-0.085450
 25,-0.01798793,-0.01638935,-0.33006220,0.06804015,0.03894200,0.8852009
 7,-0.00028775,0.00374538,0.00138967,-0.00237905,-0.00074800,0.00264248
 ,0.03378637,-0.00322306,-0.00643657,-0.00189606,-0.00061394,-0.0016670
 6,0.00095674,0.00070383,0.00053214,-0.01022500,-0.00931697,0.00002722,
 -0.00214042,0.00311791,-0.00029464,0.02157768,-0.11457488,-0.03703873,
 0.00185619,0.00153544,0.00386741,-0.00237012,-0.00053383,-0.00071549,0
 .00035805,-0.00297704,-0.00140576,-0.00340548,0.00258040,0.00326939,-0
 .00082630,-0.00030783,-0.00055985,0.00713943,0.00140688,-0.00319285,0.
 00049596,-0.00061954,-0.00035175,0.00015377,-0.00012652,-0.00071808,-0
 .00038274,0.00046260,-0.00019194,0.00050947,0.00085545,-0.00014022,-0.
 01022778,-0.00706665,0.00233139,-0.04215597,-0.02793702,-0.02404961,0.
 01729034,-0.00896040,-0.00626107,0.00053396,0.01625508,0.02865709,0.08
 111508,-0.12074281,-0.03487253,0.07223070,0.43300217,-0.00108339,0.002
 62860,0.00108113,-0.00313213,0.00082279,0.00406047,0.02813578,0.001707
 00,-0.00668875,-0.00100469,-0.00083256,-0.00206891,-0.00046895,0.00169
 948,-0.00051032,-0.00817901,-0.00814615,-0.00083482,-0.00295006,0.0007
 8377,0.00150719,0.00973444,-0.03463997,-0.09276352,0.00265524,0.001481
 64,0.00349147,-0.00131337,-0.00028333,-0.00083519,0.00042508,-0.001995
 15,-0.00099298,-0.00298040,0.00288812,0.00322677,-0.00090023,-0.000341
 26,-0.00043413,0.01075752,0.00398119,-0.00566566,0.00058957,-0.0007354
 7,-0.00052449,0.00032936,-0.00010021,-0.00086257,-0.00031213,0.0003389
 5,-0.00014150,0.00019848,0.00054821,-0.00018839,-0.01200902,-0.0090369
 7,0.00714981,-0.03021398,-0.02386965,-0.02024762,0.01239909,-0.0066286
 4,-0.00394953,-0.00306642,0.02605140,0.00138847,0.05059850,-0.03505200
 ,-0.09542872,0.08682268,0.16176270,0.34977114,-0.00002328,-0.00009030,
 -0.00000036,-0.00009171,0.00012488,-0.00007952,0.00012408,-0.00403317,
 -0.00215796,0.00013014,-0.00002066,0.00012813,0.00002355,-0.00003240,0
 .00008786,0.00039737,0.00077593,-0.00024300,-0.00061846,0.00048941,0.0
 0012654,0.00524242,-0.02078404,-0.01654693,-0.00031454,-0.00009750,-0.
 00013144,0.00003953,-0.00000301,0.00001333,0.00011474,0.00005660,0.000
 06445,0.00007594,-0.00007242,-0.00003987,0.00004419,-0.00000594,0.0000
 1301,-0.00012017,0.00004545,0.00008751,-0.00000004,0.00002478,0.000016
 63,-0.00001125,-0.00000259,0.00000938,-0.00000420,-0.00001290,-0.00000
 911,-0.00003648,-0.00001577,0.00001068,0.00016422,0.00006315,-0.000128
 48,-0.07293939,0.05748716,0.04394411,0.00070015,0.02324334,0.01808683,
 -0.00482391,-0.00198016,-0.00291032,0.00114561,0.00019291,0.00037097,-
 0.00458650,0.00115364,0.00010803,0.07655494,0.00011593,-0.00010399,0.0
 0004189,0.00002281,0.00041924,0.00006144,0.00326260,-0.00117065,0.0005
 5739,-0.00008151,0.00008393,-0.00000548,0.00005776,-0.00004231,0.00011
 985,-0.00037811,-0.00003180,0.00042744,-0.00070087,0.00112320,0.000426
 27,0.00391872,-0.01365243,-0.01272830,-0.00013053,0.00003159,0.0000792
 1,0.00008079,0.00001198,0.00001608,0.00000573,0.00007437,0.00005292,0.
 00011869,-0.00009738,-0.00014444,-0.00003912,0.00000438,-0.00000885,-0
 .00025470,-0.00001640,0.00017747,-0.00001503,0.00002025,0.00001806,-0.
 00001299,-0.00000630,0.00004468,0.00001724,-0.00001167,0.00000064,-0.0
 0002162,0.00000902,-0.00001092,0.00032692,0.00018100,-0.00020768,0.051
 13709,-0.21152539,-0.13639307,-0.00031664,-0.00104206,-0.00737031,0.00
 144875,0.00643004,-0.00402144,0.00058963,-0.00087001,0.00102727,-0.003
 43837,0.00477229,0.00078275,-0.05557221,0.22034426,0.00006147,-0.00006
 962,-0.00004488,-0.00016968,-0.00009859,0.00013614,0.00206556,-0.00020
 775,-0.00133093,-0.00000827,0.00022352,-0.00000523,0.00005183,-0.00006
 454,0.00002073,0.00017367,0.00038181,0.00029588,-0.00069674,0.00069711
 ,0.00063509,0.00374646,-0.01437621,-0.00836177,-0.00005304,0.00010446,
 -0.00003948,0.00005919,0.00000202,0.00001875,-0.00001120,0.00010651,0.
 00001887,0.00012403,-0.00009146,-0.00006602,-0.00001360,-0.00000077,0.
 00000340,-0.00022779,0.00000030,0.00011250,-0.00001674,0.00002715,0.00
 000899,-0.00000336,0.00001460,0.00001165,-0.00000006,-0.00001997,0.000
 00240,-0.00005397,0.00000814,0.00000951,0.00028373,0.00013115,-0.00016
 003,0.03863423,-0.13599751,-0.14507744,-0.00036996,-0.00592445,0.00353
 337,0.00010387,-0.00430866,0.00834759,0.00051599,0.00102588,-0.0012805
 4,-0.00335226,0.00148109,0.00381678,-0.04101624,0.15455633,0.14528950,
 0.00006211,0.00001934,0.00000304,-0.00006379,-0.00005661,0.00026108,0.
 00034518,-0.00075029,-0.00115311,-0.00015435,0.00013250,-0.00005752,0.
 00001194,0.00000233,0.00001279,-0.00039623,-0.00017413,0.00010720,-0.0
 0003155,0.00001918,0.00005932,-0.00303915,0.00375015,0.00226773,0.0001
 1845,0.00005692,0.00008945,-0.00000152,-0.00000065,-0.00000109,-0.0001
 0970,0.00000794,-0.00003929,-0.00000373,0.00001623,-0.00002318,-0.0000
 5771,-0.00000209,-0.00000076,-0.00004271,-0.00004561,0.00002538,-0.000
 01331,-0.00001306,-0.00000242,0.00000317,-0.00000308,0.00001307,0.0000
 1112,0.00000139,0.00000958,0.00000897,0.00001781,-0.00001141,0.0000584
 5,0.00006153,-0.00002897,-0.01534640,-0.01658558,-0.01437534,-0.228693
 79,-0.10564327,-0.09891872,0.00386041,0.00414307,0.00361454,0.00118601
 ,0.00117662,0.00084430,0.00016345,0.00051211,0.00043264,0.00055436,0.0
 0005914,0.00043302,0.24043704,0.00002736,-0.00001274,-0.00004182,-0.00
 012418,0.00004825,0.00005094,-0.00002570,0.00114251,-0.00054228,-0.000
 08457,0.00003090,0.00000027,0.00002128,-0.00001887,0.00003425,0.000661
 54,0.00009408,-0.00016936,0.00004083,0.00000961,0.00007285,0.00329701,
 0.00367252,-0.00381647,-0.00001058,-0.00004028,-0.00015315,0.00002645,
 -0.00000211,0.00001150,-0.00004595,0.00001802,0.00001161,0.00007557,-0
 .00005760,-0.00007319,0.00004316,0.00001645,0.00001987,-0.00018014,-0.
 00003248,0.00011544,-0.00001463,0.00001587,0.00000822,-0.00000472,-0.0
 0000276,0.00002458,0.00001212,-0.00000509,0.00000536,0.00000370,0.0000
 1457,-0.00000437,0.00021101,0.00011573,-0.00012037,0.00970898,0.004834
 26,0.00569348,-0.10860293,-0.10766563,-0.07311931,-0.02195364,-0.00365
 860,-0.00573032,-0.00013472,-0.00394019,-0.00440127,0.00297471,-0.0012
 8439,-0.00081853,-0.00078586,-0.00159311,0.00315654,0.11415480,0.10711
 610,0.00002719,-0.00007229,0.00003328,0.00034488,-0.00018735,-0.000231
 40,0.00060890,-0.00089412,0.00133420,0.00011457,0.00001027,0.00006281,
 -0.00000878,-0.00001834,-0.00002289,-0.00057960,0.00004551,0.00019302,
 0.00001572,0.00004519,0.00000450,0.00127211,-0.00337306,0.00596807,0.0
 0003409,0.00002689,0.00010049,0.00002680,0.00001346,0.00000584,-0.0000
 1022,0.00005832,-0.00000145,0.00002674,-0.00002755,-0.00003466,-0.0000
 3841,-0.00000255,-0.00000618,-0.00008254,-0.00001137,0.00002633,-0.000
 01120,-0.00000431,0.00000103,0.00000017,0.00000815,0.00000543,0.000006
 06,-0.00000945,0.00000236,0.00000146,-0.00004947,0.00001152,0.00009583
 ,0.00005832,-0.00003470,0.00682707,0.00389583,0.00221535,-0.10102111,-
 0.07291511,-0.09225397,-0.01760291,-0.00374348,-0.00238775,-0.00025110
 ,-0.00446782,-0.00198118,0.00248153,-0.00117961,-0.00077142,-0.0001746
 9,0.00318537,-0.00301851,0.10692902,0.07683872,0.09070819,0.00117424,-
 0.00018043,-0.00004898,0.00030933,-0.00157668,0.00046139,0.00579757,-0
 .00051432,-0.00181972,-0.00128509,0.00142053,-0.00016910,0.00000944,-0
 .00020888,0.00030493,-0.00321585,-0.00106595,0.00100912,-0.00033775,0.
 00027175,0.00018248,-0.00780159,0.00785873,0.00505198,0.00163536,0.000
 35965,0.00052846,0.00042816,0.00003923,0.00012127,-0.00167830,0.000456
 50,-0.00038511,0.00053307,-0.00036564,-0.00082896,-0.00046271,0.000096
 95,0.00008424,-0.00226111,-0.00115909,0.00111891,-0.00034146,-0.000048
 87,0.00002063,0.00000560,0.00002906,0.00028506,0.00024661,-0.00002793,
 0.00018961,0.00017144,-0.00003472,0.00001994,0.00304894,0.00230984,-0.
 00143354,0.00538826,0.00112865,0.00115086,-0.03023706,0.03003967,0.022
 16445,-0.52223453,0.14604539,0.10130003,-0.10235135,-0.00294813,-0.006
 24643,0.02554492,-0.01244641,-0.00835350,-0.00129909,0.00071103,0.0005
 4982,0.00119271,0.00172789,0.00161770,0.64326760,-0.00023027,-0.000229
 02,-0.00001639,0.00021038,0.00039572,-0.00035726,-0.00286185,0.0004992
 5,0.00178919,0.00047911,-0.00021565,0.00015147,-0.00001292,-0.00003982
 ,-0.00008685,0.00168419,0.00091422,-0.00036113,-0.00023741,0.00021282,
 0.00008290,0.00533782,0.00479790,0.00506737,-0.00067334,-0.00023820,-0
 .00038442,0.00004081,-0.00001507,0.00002469,0.00048103,0.00009474,0.00
 017987,0.00019222,-0.00023820,-0.00010162,0.00019136,0.00001828,0.0000
 2021,-0.00022640,0.00027505,0.00010988,0.00003844,0.00007212,0.0000288
 0,-0.00002546,0.00001211,-0.00000588,-0.00004993,-0.00004390,-0.000049
 61,-0.00009872,-0.00006385,0.00000331,0.00007116,-0.00011846,-0.000040
 59,-0.01023250,-0.00603992,-0.00796790,0.04791583,-0.00901663,-0.02451
 637,0.14637987,-0.13796530,-0.04499945,-0.01727979,0.02377648,0.006347
 27,-0.00149073,-0.00032835,-0.00789573,0.00191143,-0.00179640,0.000782
 99,-0.00064149,0.00119921,0.00222718,-0.16964971,0.12397003,-0.0001600
 5,-0.00019344,-0.00007141,0.00018442,0.00022126,-0.00033788,-0.0020018
 5,0.00091650,0.00063663,0.00028728,-0.00014026,0.00018197,-0.00002126,
 -0.00003764,-0.00001112,0.00125729,0.00058942,-0.00005367,-0.00023219,
 0.00011386,0.00003341,0.00396041,0.00457771,0.00344785,-0.00048779,-0.
 00015383,-0.00031791,0.00005377,0.00002534,0.00002521,0.00030387,0.000
 06436,0.00016804,0.00010591,-0.00011223,-0.00008816,0.00013875,0.00000
 805,0.00002274,-0.00006822,0.00015525,0.00013832,0.00003922,0.00005390
 ,0.00002412,-0.00002545,-0.00000455,0.00002353,-0.00001317,-0.00002351
 ,-0.00003711,-0.00005819,-0.00003351,-0.00001278,0.00010127,-0.0000812
 9,-0.00013285,-0.00798565,-0.00728225,-0.00352785,0.03664067,-0.025274
 36,0.00497462,0.10133505,-0.04537624,-0.10850221,-0.01744809,0.0076720
 5,0.02019184,-0.00073501,-0.00870074,0.00330635,0.00176201,0.00053078,
 -0.00189421,-0.00038711,0.00246595,0.00025621,-0.11500623,0.06851017,0
 .08233486,-0.00134126,-0.00368897,-0.00312058,0.00153332,-0.00115271,-
 0.00188095,-0.01818670,-0.00386442,0.00290949,0.00033994,0.00291314,0.
 00132857,-0.00044744,-0.00101103,0.00040247,0.00593753,0.00967129,0.00
 353114,0.00117989,-0.00000134,0.00101210,0.01037692,-0.02895537,-0.021
 44402,0.00031218,-0.00133542,-0.00381140,-0.00219590,0.00310172,0.0012
 5904,-0.00379028,0.00469570,0.00137942,0.00474448,-0.00511531,-0.00570
 410,0.00027512,0.00053414,0.00068550,-0.02312368,-0.01222146,0.0133520
 1,-0.00141295,0.00091948,0.00079367,-0.00057747,0.00032036,0.00167764,
 0.00086562,-0.00060010,0.00072622,-0.00033164,-0.00103974,0.00019366,0
 .01314988,0.01109889,-0.00696834,-0.00820054,-0.00317904,-0.00403357,0
 .00289898,-0.00767488,-0.00577343,0.02394191,0.01843660,0.01452375,-0.
 10723197,-0.02348579,-0.02319559,-0.35445511,-0.15092641,-0.12721912,-
 0.00044224,-0.00091111,-0.00080996,-0.00005945,-0.00101877,-0.00064928
 ,-0.01524737,-0.00122315,-0.00153966,0.47148824,-0.00007762,-0.0019379
 8,0.00063739,-0.00088376,-0.00044408,-0.00024973,-0.01015819,-0.001080
 73,0.00630680,0.00253105,-0.00089980,-0.00042201,0.00077724,-0.0003623
 8,-0.00094141,0.00478568,0.00452331,-0.00185878,0.00007384,0.00047507,
 -0.00033054,-0.03900711,-0.04138172,-0.04652210,-0.00220798,-0.0013071
 5,-0.00095194,0.00267742,-0.00144497,0.00075587,0.00077838,0.00165799,
 0.00009466,0.00369702,-0.00617239,-0.00544300,0.00034944,0.00058948,0.
 00019405,-0.02176076,-0.00582346,0.01085588,-0.00137578,0.00093893,0.0
 0089310,-0.00050032,0.00059664,0.00130038,-0.00003190,-0.00039538,-0.0
 0001319,-0.00050916,-0.00077511,-0.00004131,0.01570789,0.00622736,-0.0
 0497944,0.00852897,-0.00206233,-0.00371617,-0.00220525,-0.00120702,0.0
 0047668,0.00659974,0.00617890,-0.00477880,-0.00757781,0.02000739,0.003
 15400,-0.15138174,-0.16907619,-0.07510101,-0.00205975,-0.00154565,-0.0
 0154008,-0.00021521,-0.00001424,0.00054267,-0.00226808,0.00011085,0.00
 150927,0.19571372,0.19462466,-0.00050746,-0.00141937,-0.00166037,0.001
 37266,-0.00012612,-0.00300663,-0.00698908,0.00409841,-0.00063693,-0.00
 050058,0.00118902,0.00174555,-0.00055314,-0.00131540,0.00090504,0.0056
 0573,-0.00262097,-0.00357467,0.00013141,0.00004637,0.00008971,-0.02964
 782,-0.04504980,-0.01687087,-0.00357256,0.00007278,-0.00155116,0.00154
 822,0.00108326,0.00071317,-0.00101627,0.00144240,0.00104492,-0.0002989
 6,0.00069255,0.00076464,0.00037303,-0.00009437,0.00038177,0.00404384,0
 .00218058,0.00191109,0.00035767,0.00007432,-0.00017474,-0.00005993,-0.
 00021627,0.00017804,0.00046991,-0.00026525,0.00014275,-0.00005011,-0.0
 0019999,0.00005856,0.00123891,0.00245015,-0.00914285,0.00557163,-0.004
 14401,0.00129539,-0.00132509,0.00046452,-0.00164752,0.00471626,-0.0039
 2182,0.00866366,-0.00868195,0.00287092,0.01668755,-0.13123757,-0.07818
 409,-0.14589105,-0.00139157,-0.00121533,-0.00098210,-0.00010322,0.0004
 8086,-0.00018454,-0.00186929,0.00145791,-0.00077854,0.16237534,0.12016
 875,0.15152017\\-0.00001030,-0.00000575,-0.00000425,0.00000213,0.00000
 910,-0.00000311,0.00000267,-0.00003738,0.00001346,-0.00001799,-0.00001
 267,-0.00000593,0.00000107,0.00000041,-0.00000136,0.00000533,-0.000000
 65,-0.00000052,-0.00000195,0.00000595,0.00000011,0.00000420,0.00001320
 ,0.00000211,0.00001046,-0.00000828,0.00000546,0.00000301,0.00001130,-0
 .00000639,0.00001585,0.00001727,-0.00000167,0.00000800,0.00001257,0.00
 000005,-0.00000029,0.00000559,-0.00000260,-0.00000432,-0.00001115,0.00
 000153,0.00000361,0.00000149,-0.00000690,-0.00000618,-0.00000379,0.000
 00027,-0.00000345,-0.00000176,0.00000490,-0.00000566,0.00001339,-0.000
 00251,-0.00000099,0.00001571,0.00000457,0.00000641,-0.00001181,0.00000
 308,-0.00001367,0.00000418,0.00000829,-0.00004233,0.00000313,-0.000000
 58,0.00000824,-0.00000544,0.00000902,0.00001373,0.00001489,-0.00000582
 ,-0.00000701,0.00000051,-0.00000038,0.00000500,-0.00000627,-0.00000056
 ,0.00003061,-0.00000919,-0.00000418,-0.00000618,-0.00001452,-0.0000061
 0\\\@
 The archive entry for this job was punched.


 HEAVEN'S NET CASTS WIDE.
 THOUGH ITS MESHES ARE COARSE, NOTHING SLIPS THROUGH.

                                          -- LAO-TSU
 Job cpu time:       0 days 10 hours  4 minutes 35.5 seconds.
 Elapsed time:       0 days  0 hours 15 minutes 14.4 seconds.
 File lengths (MBytes):  RWF=    600 Int=      0 D2E=      0 Chk=     20 Scr=      1
 Normal termination of Gaussian 16 at Thu Oct 24 10:02:01 2024.
