 Entering Gaussian System, Link 0=g16
 Input=UridineRNarrgPBE0aVDZ.gjf
 Output=UridineRNarrgPBE0aVDZ.log
 Initial command:
 /sw/contrib/chem-src/g16/c01/g16/l1.exe "/scr/Gau-86148.inp" -scrdir="/scr/"
 Entering Link 1 = /sw/contrib/chem-src/g16/c01/g16/l1.exe PID=     86149.
  
 Copyright (c) 1988-2019, Gaussian, Inc.  All Rights Reserved.
  
 This is part of the Gaussian(R) 16 program.  It is based on
 the Gaussian(R) 09 system (copyright 2009, Gaussian, Inc.),
 the Gaussian(R) 03 system (copyright 2003, Gaussian, Inc.),
 the Gaussian(R) 98 system (copyright 1998, Gaussian, Inc.),
 the Gaussian(R) 94 system (copyright 1995, Gaussian, Inc.),
 the Gaussian 92(TM) system (copyright 1992, Gaussian, Inc.),
 the Gaussian 90(TM) system (copyright 1990, Gaussian, Inc.),
 the Gaussian 88(TM) system (copyright 1988, Gaussian, Inc.),
 the Gaussian 86(TM) system (copyright 1986, Carnegie Mellon
 University), and the Gaussian 82(TM) system (copyright 1983,
 Carnegie Mellon University). Gaussian is a federally registered
 trademark of Gaussian, Inc.
  
 This software contains proprietary and confidential information,
 including trade secrets, belonging to Gaussian, Inc.
  
 This software is provided under written license and may be
 used, copied, transmitted, or stored only in accord with that
 written license.
  
 The following legend is applicable only to US Government
 contracts under FAR:
  
                    RESTRICTED RIGHTS LEGEND
  
 Use, reproduction and disclosure by the US Government is
 subject to restrictions as set forth in subparagraphs (a)
 and (c) of the Commercial Computer Software - Restricted
 Rights clause in FAR 52.227-19.
  
 Gaussian, Inc.
 340 Quinnipiac St., Bldg. 40, Wallingford CT 06492
  
  
 ---------------------------------------------------------------
 Warning -- This program may not be used in any manner that
 competes with the business of Gaussian, Inc. or will provide
 assistance to any competitor of Gaussian, Inc.  The licensee
 of this program is prohibited from giving any competitor of
 Gaussian, Inc. access to this program.  By using this program,
 the user acknowledges that Gaussian, Inc. is engaged in the
 business of creating and licensing software in the field of
 computational chemistry and represents and warrants to the
 licensee that it is not a competitor of Gaussian, Inc. and that
 it will not use this program in any manner prohibited above.
 ---------------------------------------------------------------
  

 Cite this work as:
 Gaussian 16, Revision C.01,
 M. J. Frisch, G. W. Trucks, H. B. Schlegel, G. E. Scuseria, 
 M. A. Robb, J. R. Cheeseman, G. Scalmani, V. Barone, 
 G. A. Petersson, H. Nakatsuji, X. Li, M. Caricato, A. V. Marenich, 
 J. Bloino, B. G. Janesko, R. Gomperts, B. Mennucci, H. P. Hratchian, 
 J. V. Ortiz, A. F. Izmaylov, J. L. Sonnenberg, D. Williams-Young, 
 F. Ding, F. Lipparini, F. Egidi, J. Goings, B. Peng, A. Petrone, 
 T. Henderson, D. Ranasinghe, V. G. Zakrzewski, J. Gao, N. Rega, 
 G. Zheng, W. Liang, M. Hada, M. Ehara, K. Toyota, R. Fukuda, 
 J. Hasegawa, M. Ishida, T. Nakajima, Y. Honda, O. Kitao, H. Nakai, 
 T. Vreven, K. Throssell, J. A. Montgomery, Jr., J. E. Peralta, 
 F. Ogliaro, M. J. Bearpark, J. J. Heyd, E. N. Brothers, K. N. Kudin, 
 V. N. Staroverov, T. A. Keith, R. Kobayashi, J. Normand, 
 K. Raghavachari, A. P. Rendell, J. C. Burant, S. S. Iyengar, 
 J. Tomasi, M. Cossi, J. M. Millam, M. Klene, C. Adamo, R. Cammi, 
 J. W. Ochterski, R. L. Martin, K. Morokuma, O. Farkas, 
 J. B. Foresman, and D. J. Fox, Gaussian, Inc., Wallingford CT, 2019.
 
 ******************************************
 Gaussian 16:  EM64L-G16RevC.01  3-Jul-2019
                26-Oct-2024 
 ******************************************
 %nprocshared=40
 Will use up to   40 processors via shared memory.
 %mem=50gb
 ------------------------------------------------------
 # PBE1PBE/aug-cc-pVDZ opt freq EmpiricalDispersion=GD3
 ------------------------------------------------------
 1/18=20,19=15,26=3,38=1/1,3;
 2/9=110,12=2,17=6,18=5,40=1/2;
 3/5=16,7=10,11=2,25=1,30=1,71=1,74=-13,124=31/1,2,3;
 4//1;
 5/5=2,38=5/2;
 6/7=2,8=2,9=2,10=2,28=1/1;
 7//1,2,3,16;
 1/18=20,19=15,26=3/3(2);
 2/9=110/2;
 99//99;
 2/9=110/2;
 3/5=16,7=10,11=2,25=1,30=1,71=1,74=-13,124=31/1,2,3;
 4/5=5,16=3,69=1/1;
 5/5=2,38=5/2;
 7//1,2,3,16;
 1/18=20,19=15,26=3/3(-5);
 2/9=110/2;
 6/7=2,8=2,9=2,10=2,19=2,28=1/1;
 99/9=1/99;
 ----
 blah
 ----
 Symbolic Z-matrix:
 Charge =  0 Multiplicity = 2
 C                     2.24372  -0.15553  -0.62352 
 C                     1.20477  -1.28724  -0.60896 
 C                     0.31591  -0.97309   0.60683 
 O                     1.84463  -2.53674  -0.39132 
 H                     0.60736  -1.31569  -1.52972 
 O                     0.98567   0.01106   1.37977 
 H                     0.24451  -1.89845   1.19762 
 N                    -1.03719  -0.57268   0.32575 
 C                     2.23851   0.36732   0.81288 
 H                     1.93448   0.62817  -1.31856 
 O                     3.55595  -0.63399  -0.94793 
 C                     2.43252   1.86971   0.93734 
 H                     3.05141  -0.14076   1.3659 
 O                     1.66327   2.63631   0.05404 
 H                     3.4968    2.09196   0.74543 
 H                     2.2247    2.13728   1.99114 
 H                     3.70285  -0.4638   -1.88153 
 H                     2.77583  -2.38425  -0.61125 
 H                     0.84436   2.14401  -0.19348 
 C                    -2.08172  -1.23029   0.92063 
 C                    -3.35695  -0.86933   0.67988 
 C                    -3.62597   0.24899  -0.23588 
 N                    -2.54903   0.90412  -0.77956 
 C                    -1.30087   0.5409   -0.52134 
 H                    -1.80709  -2.05235   1.58384 
 H                    -4.1921   -1.38973   1.14427 
 O                    -4.79391   0.57521  -0.49223 
 O                    -0.28051   1.10501  -0.99284 
 

 GradGradGradGradGradGradGradGradGradGradGradGradGradGradGradGradGradGrad
 Berny optimization.
 Initialization pass.
                           ----------------------------
                           !    Initial Parameters    !
                           ! (Angstroms and Degrees)  !
 --------------------------                            --------------------------
 ! Name  Definition              Value          Derivative Info.                !
 --------------------------------------------------------------------------------
 ! R1    R(1,2)                  1.5363         estimate D2E/DX2                !
 ! R2    R(1,9)                  1.5286         estimate D2E/DX2                !
 ! R3    R(1,10)                 1.0922         estimate D2E/DX2                !
 ! R4    R(1,11)                 1.4339         estimate D2E/DX2                !
 ! R5    R(2,3)                  1.5385         estimate D2E/DX2                !
 ! R6    R(2,4)                  1.4206         estimate D2E/DX2                !
 ! R7    R(2,5)                  1.098          estimate D2E/DX2                !
 ! R8    R(3,6)                  1.4194         estimate D2E/DX2                !
 ! R9    R(3,7)                  1.1002         estimate D2E/DX2                !
 ! R10   R(3,8)                  1.4388         estimate D2E/DX2                !
 ! R11   R(4,18)                 0.9689         estimate D2E/DX2                !
 ! R12   R(6,9)                  1.4205         estimate D2E/DX2                !
 ! R13   R(8,20)                 1.3702         estimate D2E/DX2                !
 ! R14   R(8,24)                 1.4238         estimate D2E/DX2                !
 ! R15   R(9,12)                 1.52           estimate D2E/DX2                !
 ! R16   R(9,13)                 1.1067         estimate D2E/DX2                !
 ! R17   R(11,17)                0.9603         estimate D2E/DX2                !
 ! R18   R(12,14)                1.3999         estimate D2E/DX2                !
 ! R19   R(12,15)                1.104          estimate D2E/DX2                !
 ! R20   R(12,16)                1.1069         estimate D2E/DX2                !
 ! R21   R(14,19)                0.987          estimate D2E/DX2                !
 ! R22   R(20,21)                1.347          estimate D2E/DX2                !
 ! R23   R(20,25)                1.0914         estimate D2E/DX2                !
 ! R24   R(21,22)                1.4703         estimate D2E/DX2                !
 ! R25   R(21,26)                1.0881         estimate D2E/DX2                !
 ! R26   R(22,23)                1.3728         estimate D2E/DX2                !
 ! R27   R(22,27)                1.2394         estimate D2E/DX2                !
 ! R28   R(23,24)                1.3253         estimate D2E/DX2                !
 ! R29   R(24,28)                1.2576         estimate D2E/DX2                !
 ! A1    A(2,1,9)              103.9309         estimate D2E/DX2                !
 ! A2    A(2,1,10)             110.0669         estimate D2E/DX2                !
 ! A3    A(2,1,11)             112.0376         estimate D2E/DX2                !
 ! A4    A(9,1,10)             110.5844         estimate D2E/DX2                !
 ! A5    A(9,1,11)             109.259          estimate D2E/DX2                !
 ! A6    A(10,1,11)            110.7662         estimate D2E/DX2                !
 ! A7    A(1,2,3)              104.346          estimate D2E/DX2                !
 ! A8    A(1,2,4)              110.1676         estimate D2E/DX2                !
 ! A9    A(1,2,5)              112.2779         estimate D2E/DX2                !
 ! A10   A(3,2,4)              108.5881         estimate D2E/DX2                !
 ! A11   A(3,2,5)              110.7101         estimate D2E/DX2                !
 ! A12   A(4,2,5)              110.5344         estimate D2E/DX2                !
 ! A13   A(2,3,6)              107.4159         estimate D2E/DX2                !
 ! A14   A(2,3,7)              106.8644         estimate D2E/DX2                !
 ! A15   A(2,3,8)              116.4733         estimate D2E/DX2                !
 ! A16   A(6,3,7)              108.7469         estimate D2E/DX2                !
 ! A17   A(6,3,8)              110.9274         estimate D2E/DX2                !
 ! A18   A(7,3,8)              106.1371         estimate D2E/DX2                !
 ! A19   A(2,4,18)             105.0516         estimate D2E/DX2                !
 ! A20   A(3,6,9)              111.8852         estimate D2E/DX2                !
 ! A21   A(3,8,20)             119.9033         estimate D2E/DX2                !
 ! A22   A(3,8,24)             120.5337         estimate D2E/DX2                !
 ! A23   A(20,8,24)            119.5057         estimate D2E/DX2                !
 ! A24   A(1,9,6)              106.9906         estimate D2E/DX2                !
 ! A25   A(1,9,12)             114.4938         estimate D2E/DX2                !
 ! A26   A(1,9,13)             108.0608         estimate D2E/DX2                !
 ! A27   A(6,9,12)             109.1346         estimate D2E/DX2                !
 ! A28   A(6,9,13)             109.4672         estimate D2E/DX2                !
 ! A29   A(12,9,13)            108.6096         estimate D2E/DX2                !
 ! A30   A(1,11,17)            107.5064         estimate D2E/DX2                !
 ! A31   A(9,12,14)            114.8021         estimate D2E/DX2                !
 ! A32   A(9,12,15)            107.926          estimate D2E/DX2                !
 ! A33   A(9,12,16)            107.033          estimate D2E/DX2                !
 ! A34   A(14,12,15)           108.0474         estimate D2E/DX2                !
 ! A35   A(14,12,16)           111.4169         estimate D2E/DX2                !
 ! A36   A(15,12,16)           107.3259         estimate D2E/DX2                !
 ! A37   A(12,14,19)           109.9383         estimate D2E/DX2                !
 ! A38   A(8,20,21)            121.0307         estimate D2E/DX2                !
 ! A39   A(8,20,25)            115.691          estimate D2E/DX2                !
 ! A40   A(21,20,25)           123.2775         estimate D2E/DX2                !
 ! A41   A(20,21,22)           119.2337         estimate D2E/DX2                !
 ! A42   A(20,21,26)           121.4796         estimate D2E/DX2                !
 ! A43   A(22,21,26)           119.2861         estimate D2E/DX2                !
 ! A44   A(21,22,23)           117.7833         estimate D2E/DX2                !
 ! A45   A(21,22,27)           120.0953         estimate D2E/DX2                !
 ! A46   A(23,22,27)           122.1211         estimate D2E/DX2                !
 ! A47   A(22,23,24)           122.0627         estimate D2E/DX2                !
 ! A48   A(8,24,23)            120.3103         estimate D2E/DX2                !
 ! A49   A(8,24,28)            115.0638         estimate D2E/DX2                !
 ! A50   A(23,24,28)           124.6179         estimate D2E/DX2                !
 ! D1    D(9,1,2,3)             21.6396         estimate D2E/DX2                !
 ! D2    D(9,1,2,4)            -94.7484         estimate D2E/DX2                !
 ! D3    D(9,1,2,5)            141.5896         estimate D2E/DX2                !
 ! D4    D(10,1,2,3)           -96.802          estimate D2E/DX2                !
 ! D5    D(10,1,2,4)           146.81           estimate D2E/DX2                !
 ! D6    D(10,1,2,5)            23.148          estimate D2E/DX2                !
 ! D7    D(11,1,2,3)           139.4811         estimate D2E/DX2                !
 ! D8    D(11,1,2,4)            23.0931         estimate D2E/DX2                !
 ! D9    D(11,1,2,5)          -100.5689         estimate D2E/DX2                !
 ! D10   D(2,1,9,6)            -22.8649         estimate D2E/DX2                !
 ! D11   D(2,1,9,12)          -143.9193         estimate D2E/DX2                !
 ! D12   D(2,1,9,13)            94.9215         estimate D2E/DX2                !
 ! D13   D(10,1,9,6)            95.2202         estimate D2E/DX2                !
 ! D14   D(10,1,9,12)          -25.8342         estimate D2E/DX2                !
 ! D15   D(10,1,9,13)         -146.9934         estimate D2E/DX2                !
 ! D16   D(11,1,9,6)          -142.6116         estimate D2E/DX2                !
 ! D17   D(11,1,9,12)           96.3339         estimate D2E/DX2                !
 ! D18   D(11,1,9,13)          -24.8253         estimate D2E/DX2                !
 ! D19   D(2,1,11,17)           98.4783         estimate D2E/DX2                !
 ! D20   D(9,1,11,17)         -146.9045         estimate D2E/DX2                !
 ! D21   D(10,1,11,17)         -24.8456         estimate D2E/DX2                !
 ! D22   D(1,2,3,6)            -13.5006         estimate D2E/DX2                !
 ! D23   D(1,2,3,7)           -130.0558         estimate D2E/DX2                !
 ! D24   D(1,2,3,8)            111.5579         estimate D2E/DX2                !
 ! D25   D(4,2,3,6)            103.9808         estimate D2E/DX2                !
 ! D26   D(4,2,3,7)            -12.5744         estimate D2E/DX2                !
 ! D27   D(4,2,3,8)           -130.9607         estimate D2E/DX2                !
 ! D28   D(5,2,3,6)           -134.4998         estimate D2E/DX2                !
 ! D29   D(5,2,3,7)            108.9451         estimate D2E/DX2                !
 ! D30   D(5,2,3,8)             -9.4413         estimate D2E/DX2                !
 ! D31   D(1,2,4,18)           -18.9116         estimate D2E/DX2                !
 ! D32   D(3,2,4,18)          -132.6155         estimate D2E/DX2                !
 ! D33   D(5,2,4,18)           105.7575         estimate D2E/DX2                !
 ! D34   D(2,3,6,9)             -0.935          estimate D2E/DX2                !
 ! D35   D(7,3,6,9)            114.3768         estimate D2E/DX2                !
 ! D36   D(8,3,6,9)           -129.2622         estimate D2E/DX2                !
 ! D37   D(2,3,8,20)           126.6599         estimate D2E/DX2                !
 ! D38   D(2,3,8,24)           -56.1074         estimate D2E/DX2                !
 ! D39   D(6,3,8,20)          -110.0813         estimate D2E/DX2                !
 ! D40   D(6,3,8,24)            67.1514         estimate D2E/DX2                !
 ! D41   D(7,3,8,20)             7.8781         estimate D2E/DX2                !
 ! D42   D(7,3,8,24)          -174.8892         estimate D2E/DX2                !
 ! D43   D(3,6,9,1)             15.2446         estimate D2E/DX2                !
 ! D44   D(3,6,9,12)           139.6387         estimate D2E/DX2                !
 ! D45   D(3,6,9,13)          -101.617          estimate D2E/DX2                !
 ! D46   D(3,8,20,21)          179.6062         estimate D2E/DX2                !
 ! D47   D(3,8,20,25)           -0.7123         estimate D2E/DX2                !
 ! D48   D(24,8,20,21)           2.345          estimate D2E/DX2                !
 ! D49   D(24,8,20,25)        -177.9736         estimate D2E/DX2                !
 ! D50   D(3,8,24,23)          179.8551         estimate D2E/DX2                !
 ! D51   D(3,8,24,28)            0.8316         estimate D2E/DX2                !
 ! D52   D(20,8,24,23)          -2.9012         estimate D2E/DX2                !
 ! D53   D(20,8,24,28)         178.0753         estimate D2E/DX2                !
 ! D54   D(1,9,12,14)           45.6306         estimate D2E/DX2                !
 ! D55   D(1,9,12,15)          -74.9124         estimate D2E/DX2                !
 ! D56   D(1,9,12,16)          169.8442         estimate D2E/DX2                !
 ! D57   D(6,9,12,14)          -74.2348         estimate D2E/DX2                !
 ! D58   D(6,9,12,15)          165.2222         estimate D2E/DX2                !
 ! D59   D(6,9,12,16)           49.9787         estimate D2E/DX2                !
 ! D60   D(13,9,12,14)         166.4872         estimate D2E/DX2                !
 ! D61   D(13,9,12,15)          45.9442         estimate D2E/DX2                !
 ! D62   D(13,9,12,16)         -69.2992         estimate D2E/DX2                !
 ! D63   D(9,12,14,19)          26.6819         estimate D2E/DX2                !
 ! D64   D(15,12,14,19)        147.1579         estimate D2E/DX2                !
 ! D65   D(16,12,14,19)        -95.1802         estimate D2E/DX2                !
 ! D66   D(8,20,21,22)          -0.0337         estimate D2E/DX2                !
 ! D67   D(8,20,21,26)         179.6787         estimate D2E/DX2                !
 ! D68   D(25,20,21,22)       -179.6904         estimate D2E/DX2                !
 ! D69   D(25,20,21,26)          0.022          estimate D2E/DX2                !
 ! D70   D(20,21,22,23)         -1.8047         estimate D2E/DX2                !
 ! D71   D(20,21,22,27)        178.3779         estimate D2E/DX2                !
 ! D72   D(26,21,22,23)        178.4765         estimate D2E/DX2                !
 ! D73   D(26,21,22,27)         -1.3409         estimate D2E/DX2                !
 ! D74   D(21,22,23,24)          1.2789         estimate D2E/DX2                !
 ! D75   D(27,22,23,24)       -178.9076         estimate D2E/DX2                !
 ! D76   D(22,23,24,8)           1.0238         estimate D2E/DX2                !
 ! D77   D(22,23,24,28)        179.949          estimate D2E/DX2                !
 --------------------------------------------------------------------------------
 Trust Radius=3.00D-01 FncErr=1.00D-07 GrdErr=1.00D-06 EigMax=2.50D+02 EigMin=1.00D-04
 Number of steps in this run=    166 maximum allowed number of steps=    168.
 GradGradGradGradGradGradGradGradGradGradGradGradGradGradGradGradGradGrad

                          Input orientation:                          
 ---------------------------------------------------------------------
 Center     Atomic      Atomic             Coordinates (Angstroms)
 Number     Number       Type             X           Y           Z
 ---------------------------------------------------------------------
      1          6           0        2.243718   -0.155534   -0.623519
      2          6           0        1.204773   -1.287235   -0.608964
      3          6           0        0.315913   -0.973090    0.606825
      4          8           0        1.844631   -2.536739   -0.391323
      5          1           0        0.607356   -1.315686   -1.529718
      6          8           0        0.985674    0.011063    1.379767
      7          1           0        0.244514   -1.898454    1.197617
      8          7           0       -1.037192   -0.572679    0.325751
      9          6           0        2.238514    0.367318    0.812883
     10          1           0        1.934481    0.628165   -1.318559
     11          8           0        3.555953   -0.633987   -0.947931
     12          6           0        2.432523    1.869705    0.937338
     13          1           0        3.051410   -0.140764    1.365901
     14          8           0        1.663267    2.636311    0.054039
     15          1           0        3.496799    2.091955    0.745429
     16          1           0        2.224699    2.137283    1.991135
     17          1           0        3.702851   -0.463802   -1.881534
     18          1           0        2.775832   -2.384247   -0.611247
     19          1           0        0.844359    2.144007   -0.193480
     20          6           0       -2.081723   -1.230289    0.920633
     21          6           0       -3.356946   -0.869334    0.679882
     22          6           0       -3.625967    0.248990   -0.235881
     23          7           0       -2.549034    0.904121   -0.779564
     24          6           0       -1.300868    0.540896   -0.521337
     25          1           0       -1.807087   -2.052349    1.583836
     26          1           0       -4.192105   -1.389732    1.144268
     27          8           0       -4.793908    0.575209   -0.492225
     28          8           0       -0.280511    1.105013   -0.992843
 ---------------------------------------------------------------------
                    Distance matrix (angstroms):
                    1          2          3          4          5
     1  C    0.000000
     2  C    1.536348   0.000000
     3  C    2.428698   1.538474   0.000000
     4  O    2.425556   1.420579   2.403805   0.000000
     5  H    2.201097   1.097955   2.183375   2.077923   0.000000
     6  O    2.371410   2.385086   1.419358   3.219606   3.220014
     7  H    3.217316   2.135280   1.100196   2.343611   2.812406
     8  N    3.440857   2.531934   1.438828   3.560426   2.588313
     9  C    1.528611   2.414087   2.352775   3.168407   3.313753
    10  H    1.092196   2.169045   2.981758   3.299160   2.363135
    11  O    1.433918   2.463672   3.609725   2.618950   3.081787
    12  C    2.563887   3.723532   3.559601   4.639796   4.423157
    13  H    2.147179   2.936759   2.958362   3.207000   3.967172
    14  O    2.930940   4.005497   3.892134   5.195352   4.386515
    15  H    2.914693   4.301940   4.419474   5.044469   5.013700
    16  H    3.477612   4.419060   3.903101   5.259947   5.189913
    17  H    1.951077   2.921963   4.233516   3.157654   3.229794
    18  H    2.291388   1.916159   3.086465   0.968894   2.586059
    19  H    2.725991   3.475046   3.261294   4.790519   3.716339
    20  C    4.716879   3.625461   2.431725   4.341002   3.639046
    21  C    5.794463   4.758681   3.675050   5.566338   4.560400
    22  C    5.896364   5.082837   4.212131   6.141001   4.695024
    23  N    4.910977   4.349967   3.695121   5.594152   3.931040
    24  C    3.613799   3.102898   2.485736   4.402602   2.846937
    25  H    4.987920   3.803298   2.574195   4.179824   4.008295
    26  H    6.787351   5.675440   4.559020   6.333707   5.494589
    27  O    7.076680   6.282237   5.451184   7.332435   5.815972
    28  O    2.845542   2.841880   2.689456   4.259156   2.633691
                    6          7          8          9         10
     6  O    0.000000
     7  H    2.056393   0.000000
     8  N    2.354504   2.039755   0.000000
     9  C    1.420522   3.042660   3.442549   0.000000
    10  H    2.926092   3.946002   3.602308   2.168761   0.000000
    11  O    3.527124   4.143414   4.766865   2.416345   2.087957
    12  C    2.396595   4.365106   4.286980   1.519966   2.622697
    13  H    2.071354   3.316091   4.240888   1.106696   3.007509
    14  O    3.018048   4.887200   4.202847   2.460708   2.447495
    15  H    3.322385   5.167707   5.275744   2.135932   2.973813
    16  H    2.535698   4.564863   4.556021   2.126322   3.649074
    17  H    4.271374   4.847627   5.229911   3.177251   2.153245
    18  H    3.592536   3.148897   4.324222   3.144514   3.206679
    19  H    2.654153   4.316996   3.345178   2.472460   2.179896
    20  C    3.340761   2.436092   1.370175   4.607429   4.959610
    21  C    4.485899   3.781224   2.365306   5.732030   5.851108
    22  C    4.892255   4.652640   2.773504   5.958695   5.677548
    23  N    4.237266   4.423526   2.385021   5.073920   4.524221
    24  C    3.020463   3.360571   1.423774   3.786489   3.333266
    25  H    3.478337   2.093303   2.089244   4.776614   5.441359
    26  H    5.369086   4.466009   3.360212   6.674571   6.904526
    27  O    6.101326   5.861763   4.012437   7.155521   6.779148
    28  O    2.903313   3.754275   2.264047   3.185958   2.289031
                   11         12         13         14         15
    11  O    0.000000
    12  C    3.329385   0.000000
    13  H    2.419019   2.146782   0.000000
    14  O    3.909099   1.399877   3.370470   0.000000
    15  H    3.209630   1.104041   2.359744   2.033761   0.000000
    16  H    4.253267   1.106922   2.502772   2.077637   1.781032
    17  H    0.960290   3.873632   3.327847   4.185337   3.670870
    18  H    1.945599   4.540053   3.003044   5.185211   4.732520
    19  H    3.954641   1.968821   3.538774   0.987036   2.814196
    20  C    5.969129   5.476190   5.266344   5.452204   6.495222
    21  C    7.105866   6.409881   6.486021   6.154979   7.466415
    22  C    7.270945   6.380318   6.877861   5.810280   7.422485
    23  N    6.298015   5.356866   6.087674   4.630211   6.347334
    24  C    5.015082   4.222757   4.792562   3.675312   5.198855
    25  H    6.097852   5.811606   5.225576   6.030520   6.783022
    26  H    8.061070   7.385963   7.353744   7.189089   8.449879
    27  O    8.449260   7.479350   8.094088   6.800122   8.518693
    28  O    4.212433   3.416271   4.268177   2.686840   4.273607
                   16         17         18         19         20
    16  H    0.000000
    17  H    4.893684   0.000000
    18  H    5.245986   2.482157   0.000000
    19  H    2.584168   4.221513   4.940668   0.000000
    20  C    5.570618   6.473093   5.222463   4.603159   0.000000
    21  C    6.474094   7.521040   6.447708   5.243467   1.347013
    22  C    6.538772   7.545053   6.932378   4.855585   2.431148
    23  N    5.655616   6.493968   6.260662   3.660045   2.768529
    24  C    4.614173   5.281738   5.018369   2.698046   2.413733
    25  H    5.828740   6.700126   5.092317   5.272421   1.091350
    26  H    7.371051   8.505478   7.254174   6.296257   2.128179
    27  O    7.607102   8.672061   8.128561   5.860071   3.551329
    28  O    4.030606   4.372428   4.654222   1.727374   3.515592
                   21         22         23         24         25
    21  C    0.000000
    22  C    1.470253   0.000000
    23  N    2.434717   1.372797   0.000000
    24  C    2.767514   2.360674   1.325342   0.000000
    25  H    2.149121   3.451935   3.857053   3.378303   0.000000
    26  H    1.088099   2.216017   3.415051   3.854973   2.514079
    27  O    2.350617   1.239442   2.286964   3.493330   4.487225
    28  O    4.020013   3.535229   2.287366   1.257646   4.351855
                   26         27         28
    26  H    0.000000
    27  O    2.627027   0.000000
    28  O    5.107990   4.571877   0.000000
 Stoichiometry    C9H11N2O6(2)
 Framework group  C1[X(C9H11N2O6)]
 Deg. of freedom    78
 Full point group                 C1      NOp   1
 Largest Abelian subgroup         C1      NOp   1
 Largest concise Abelian subgroup C1      NOp   1
                         Standard orientation:                         
 ---------------------------------------------------------------------
 Center     Atomic      Atomic             Coordinates (Angstroms)
 Number     Number       Type             X           Y           Z
 ---------------------------------------------------------------------
      1          6           0        2.243718   -0.155534   -0.623519
      2          6           0        1.204773   -1.287235   -0.608964
      3          6           0        0.315913   -0.973090    0.606825
      4          8           0        1.844631   -2.536739   -0.391323
      5          1           0        0.607356   -1.315686   -1.529718
      6          8           0        0.985674    0.011063    1.379767
      7          1           0        0.244514   -1.898454    1.197617
      8          7           0       -1.037192   -0.572679    0.325751
      9          6           0        2.238514    0.367318    0.812883
     10          1           0        1.934481    0.628165   -1.318559
     11          8           0        3.555953   -0.633987   -0.947931
     12          6           0        2.432523    1.869705    0.937338
     13          1           0        3.051410   -0.140764    1.365901
     14          8           0        1.663267    2.636311    0.054039
     15          1           0        3.496799    2.091955    0.745429
     16          1           0        2.224699    2.137283    1.991135
     17          1           0        3.702851   -0.463802   -1.881534
     18          1           0        2.775832   -2.384247   -0.611247
     19          1           0        0.844359    2.144007   -0.193480
     20          6           0       -2.081723   -1.230289    0.920633
     21          6           0       -3.356946   -0.869334    0.679882
     22          6           0       -3.625967    0.248990   -0.235881
     23          7           0       -2.549034    0.904121   -0.779564
     24          6           0       -1.300868    0.540896   -0.521337
     25          1           0       -1.807087   -2.052349    1.583836
     26          1           0       -4.192105   -1.389732    1.144268
     27          8           0       -4.793908    0.575209   -0.492225
     28          8           0       -0.280511    1.105013   -0.992843
 ---------------------------------------------------------------------
 Rotational constants (GHZ):           0.9227498           0.3180559           0.2746685
 Standard basis: Aug-CC-pVDZ (5D, 7F)
 There are   524 symmetry adapted cartesian basis functions of A   symmetry.
 There are   490 symmetry adapted basis functions of A   symmetry.
   490 basis functions,   852 primitive gaussians,   524 cartesian basis functions
    64 alpha electrons       63 beta electrons
       nuclear repulsion energy      1322.0518139325 Hartrees.
 NAtoms=   28 NActive=   28 NUniq=   28 SFac= 1.00D+00 NAtFMM=   60 NAOKFM=F Big=F
 Integral buffers will be    131072 words long.
 Raffenetti 2 integral format.
 Two-electron integral symmetry is turned on.
 Nuclear repulsion after empirical dispersion term =     1322.0320564915 Hartrees.
 One-electron integrals computed using PRISM.
 NBasis=   490 RedAO= T EigKep=  2.79D-06  NBF=   490
 NBsUse=   490 1.00D-06 EigRej= -1.00D+00 NBFU=   490
 ExpMin= 2.97D-02 ExpMax= 1.17D+04 ExpMxC= 4.01D+02 IAcc=3 IRadAn=         5 AccDes= 0.00D+00
 Harris functional with IExCor= 1009 and IRadAn=       5 diagonalized for initial guess.
 HarFok:  IExCor= 1009 AccDes= 0.00D+00 IRadAn=         5 IDoV= 1 UseB2=F ITyADJ=14
 ICtDFT=  3500011 ScaDFX=  1.000000  1.000000  1.000000  1.000000
 FoFCou: FMM=F IPFlag=           0 FMFlag=      100000 FMFlg1=           0
         NFxFlg=           0 DoJE=T BraDBF=F KetDBF=T FulRan=T
         wScrn=  0.000000 ICntrl=       500 IOpCl=  0 I1Cent=   200000004 NGrid=           0
         NMat0=    1 NMatS0=      1 NMatT0=    0 NMatD0=    1 NMtDS0=    0 NMtDT0=    0
 Petite list used in FoFCou.
 Initial guess <Sx>= 0.0000 <Sy>= 0.0000 <Sz>= 0.5000 <S**2>= 0.7500 S= 0.5000
 Requested convergence on RMS density matrix=1.00D-08 within 128 cycles.
 Requested convergence on MAX density matrix=1.00D-06.
 Requested convergence on             energy=1.00D-06.
 No special actions if energy rises.
 Restarting incremental Fock formation.
 Restarting incremental Fock formation.
 Restarting incremental Fock formation.
 SCF Done:  E(UPBE1PBE) =  -909.508109128     A.U. after   71 cycles
            NFock= 71  Conv=0.53D-08     -V/T= 2.0054
 <Sx>= 0.0000 <Sy>= 0.0000 <Sz>= 0.5000 <S**2>= 0.7912 S= 0.5204
 <L.S>= 0.000000000000E+00
 Annihilation of the first spin contaminant:
 S**2 before annihilation     0.7912,   after     0.7511

 **********************************************************************

            Population analysis using the SCF Density.

 **********************************************************************

 Orbital symmetries:
 Alpha Orbitals:
       Occupied  (A) (A) (A) (A) (A) (A) (A) (A) (A) (A) (A) (A)
                 (A) (A) (A) (A) (A) (A) (A) (A) (A) (A) (A) (A)
                 (A) (A) (A) (A) (A) (A) (A) (A) (A) (A) (A) (A)
                 (A) (A) (A) (A) (A) (A) (A) (A) (A) (A) (A) (A)
                 (A) (A) (A) (A) (A) (A) (A) (A) (A) (A) (A) (A)
                 (A) (A) (A) (A)
       Virtual   (A) (A) (A) (A) (A) (A) (A) (A) (A) (A) (A) (A)
                 (A) (A) (A) (A) (A) (A) (A) (A) (A) (A) (A) (A)
                 (A) (A) (A) (A) (A) (A) (A) (A) (A) (A) (A) (A)
                 (A) (A) (A) (A) (A) (A) (A) (A) (A) (A) (A) (A)
                 (A) (A) (A) (A) (A) (A) (A) (A) (A) (A) (A) (A)
                 (A) (A) (A) (A) (A) (A) (A) (A) (A) (A) (A) (A)
                 (A) (A) (A) (A) (A) (A) (A) (A) (A) (A) (A) (A)
                 (A) (A) (A) (A) (A) (A) (A) (A) (A) (A) (A) (A)
                 (A) (A) (A) (A) (A) (A) (A) (A) (A) (A) (A) (A)
                 (A) (A) (A) (A) (A) (A) (A) (A) (A) (A) (A) (A)
                 (A) (A) (A) (A) (A) (A) (A) (A) (A) (A) (A) (A)
                 (A) (A) (A) (A) (A) (A) (A) (A) (A) (A) (A) (A)
                 (A) (A) (A) (A) (A) (A) (A) (A) (A) (A) (A) (A)
                 (A) (A) (A) (A) (A) (A) (A) (A) (A) (A) (A) (A)
                 (A) (A) (A) (A) (A) (A) (A) (A) (A) (A) (A) (A)
                 (A) (A) (A) (A) (A) (A) (A) (A) (A) (A) (A) (A)
                 (A) (A) (A) (A) (A) (A) (A) (A) (A) (A) (A) (A)
                 (A) (A) (A) (A) (A) (A) (A) (A) (A) (A) (A) (A)
                 (A) (A) (A) (A) (A) (A) (A) (A) (A) (A) (A) (A)
                 (A) (A) (A) (A) (A) (A) (A) (A) (A) (A) (A) (A)
                 (A) (A) (A) (A) (A) (A) (A) (A) (A) (A) (A) (A)
                 (A) (A) (A) (A) (A) (A) (A) (A) (A) (A) (A) (A)
                 (A) (A) (A) (A) (A) (A) (A) (A) (A) (A) (A) (A)
                 (A) (A) (A) (A) (A) (A) (A) (A) (A) (A) (A) (A)
                 (A) (A) (A) (A) (A) (A) (A) (A) (A) (A) (A) (A)
                 (A) (A) (A) (A) (A) (A) (A) (A) (A) (A) (A) (A)
                 (A) (A) (A) (A) (A) (A) (A) (A) (A) (A) (A) (A)
                 (A) (A) (A) (A) (A) (A) (A) (A) (A) (A) (A) (A)
                 (A) (A) (A) (A) (A) (A) (A) (A) (A) (A) (A) (A)
                 (A) (A) (A) (A) (A) (A) (A) (A) (A) (A) (A) (A)
                 (A) (A) (A) (A) (A) (A) (A) (A) (A) (A) (A) (A)
                 (A) (A) (A) (A) (A) (A) (A) (A) (A) (A) (A) (A)
                 (A) (A) (A) (A) (A) (A) (A) (A) (A) (A) (A) (A)
                 (A) (A) (A) (A) (A) (A) (A) (A) (A) (A) (A) (A)
                 (A) (A) (A) (A) (A) (A) (A) (A) (A) (A) (A) (A)
                 (A) (A) (A) (A) (A) (A)
 Beta  Orbitals:
       Occupied  (A) (A) (A) (A) (A) (A) (A) (A) (A) (A) (A) (A)
                 (A) (A) (A) (A) (A) (A) (A) (A) (A) (A) (A) (A)
                 (A) (A) (A) (A) (A) (A) (A) (A) (A) (A) (A) (A)
                 (A) (A) (A) (A) (A) (A) (A) (A) (A) (A) (A) (A)
                 (A) (A) (A) (A) (A) (A) (A) (A) (A) (A) (A) (A)
                 (A) (A) (A)
       Virtual   (A) (A) (A) (A) (A) (A) (A) (A) (A) (A) (A) (A)
                 (A) (A) (A) (A) (A) (A) (A) (A) (A) (A) (A) (A)
                 (A) (A) (A) (A) (A) (A) (A) (A) (A) (A) (A) (A)
                 (A) (A) (A) (A) (A) (A) (A) (A) (A) (A) (A) (A)
                 (A) (A) (A) (A) (A) (A) (A) (A) (A) (A) (A) (A)
                 (A) (A) (A) (A) (A) (A) (A) (A) (A) (A) (A) (A)
                 (A) (A) (A) (A) (A) (A) (A) (A) (A) (A) (A) (A)
                 (A) (A) (A) (A) (A) (A) (A) (A) (A) (A) (A) (A)
                 (A) (A) (A) (A) (A) (A) (A) (A) (A) (A) (A) (A)
                 (A) (A) (A) (A) (A) (A) (A) (A) (A) (A) (A) (A)
                 (A) (A) (A) (A) (A) (A) (A) (A) (A) (A) (A) (A)
                 (A) (A) (A) (A) (A) (A) (A) (A) (A) (A) (A) (A)
                 (A) (A) (A) (A) (A) (A) (A) (A) (A) (A) (A) (A)
                 (A) (A) (A) (A) (A) (A) (A) (A) (A) (A) (A) (A)
                 (A) (A) (A) (A) (A) (A) (A) (A) (A) (A) (A) (A)
                 (A) (A) (A) (A) (A) (A) (A) (A) (A) (A) (A) (A)
                 (A) (A) (A) (A) (A) (A) (A) (A) (A) (A) (A) (A)
                 (A) (A) (A) (A) (A) (A) (A) (A) (A) (A) (A) (A)
                 (A) (A) (A) (A) (A) (A) (A) (A) (A) (A) (A) (A)
                 (A) (A) (A) (A) (A) (A) (A) (A) (A) (A) (A) (A)
                 (A) (A) (A) (A) (A) (A) (A) (A) (A) (A) (A) (A)
                 (A) (A) (A) (A) (A) (A) (A) (A) (A) (A) (A) (A)
                 (A) (A) (A) (A) (A) (A) (A) (A) (A) (A) (A) (A)
                 (A) (A) (A) (A) (A) (A) (A) (A) (A) (A) (A) (A)
                 (A) (A) (A) (A) (A) (A) (A) (A) (A) (A) (A) (A)
                 (A) (A) (A) (A) (A) (A) (A) (A) (A) (A) (A) (A)
                 (A) (A) (A) (A) (A) (A) (A) (A) (A) (A) (A) (A)
                 (A) (A) (A) (A) (A) (A) (A) (A) (A) (A) (A) (A)
                 (A) (A) (A) (A) (A) (A) (A) (A) (A) (A) (A) (A)
                 (A) (A) (A) (A) (A) (A) (A) (A) (A) (A) (A) (A)
                 (A) (A) (A) (A) (A) (A) (A) (A) (A) (A) (A) (A)
                 (A) (A) (A) (A) (A) (A) (A) (A) (A) (A) (A) (A)
                 (A) (A) (A) (A) (A) (A) (A) (A) (A) (A) (A) (A)
                 (A) (A) (A) (A) (A) (A) (A) (A) (A) (A) (A) (A)
                 (A) (A) (A) (A) (A) (A) (A) (A) (A) (A) (A) (A)
                 (A) (A) (A) (A) (A) (A) (A)
 The electronic state is 2-A.
 Alpha  occ. eigenvalues --  -19.28201 -19.27149 -19.26953 -19.24568 -19.21267
 Alpha  occ. eigenvalues --  -19.20243 -14.53425 -14.43270 -10.39324 -10.37720
 Alpha  occ. eigenvalues --  -10.36533 -10.35353 -10.31707 -10.30975 -10.30754
 Alpha  occ. eigenvalues --  -10.30121 -10.27580  -1.14567  -1.13506  -1.10913
 Alpha  occ. eigenvalues --   -1.09663  -1.06995  -1.04573  -1.03183  -0.97244
 Alpha  occ. eigenvalues --   -0.87299  -0.82059  -0.81017  -0.73476  -0.72388
 Alpha  occ. eigenvalues --   -0.69160  -0.66349  -0.63133  -0.61527  -0.60111
 Alpha  occ. eigenvalues --   -0.57576  -0.55900  -0.54542  -0.54139  -0.51856
 Alpha  occ. eigenvalues --   -0.51131  -0.50841  -0.50448  -0.49707  -0.48962
 Alpha  occ. eigenvalues --   -0.46576  -0.46219  -0.45556  -0.43479  -0.41784
 Alpha  occ. eigenvalues --   -0.41376  -0.40643  -0.38494  -0.37326  -0.35813
 Alpha  occ. eigenvalues --   -0.35118  -0.34461  -0.32816  -0.32273  -0.31615
 Alpha  occ. eigenvalues --   -0.31237  -0.30247  -0.29487  -0.27347
 Alpha virt. eigenvalues --   -0.08079  -0.03166  -0.01836  -0.01767   0.00309
 Alpha virt. eigenvalues --    0.01090   0.01379   0.02177   0.03025   0.03823
 Alpha virt. eigenvalues --    0.04071   0.04504   0.04714   0.05088   0.05906
 Alpha virt. eigenvalues --    0.06116   0.06859   0.07146   0.07741   0.07958
 Alpha virt. eigenvalues --    0.08416   0.08574   0.08857   0.09160   0.09463
 Alpha virt. eigenvalues --    0.09778   0.09937   0.10261   0.10593   0.11058
 Alpha virt. eigenvalues --    0.11568   0.11810   0.11980   0.12503   0.12860
 Alpha virt. eigenvalues --    0.13075   0.13324   0.13882   0.14204   0.14721
 Alpha virt. eigenvalues --    0.15256   0.15754   0.15807   0.16051   0.16129
 Alpha virt. eigenvalues --    0.16760   0.17217   0.17601   0.18070   0.18466
 Alpha virt. eigenvalues --    0.19332   0.19602   0.20281   0.20826   0.20916
 Alpha virt. eigenvalues --    0.21229   0.21654   0.22021   0.22307   0.22645
 Alpha virt. eigenvalues --    0.23059   0.23294   0.23365   0.23600   0.24101
 Alpha virt. eigenvalues --    0.24440   0.25147   0.25392   0.25712   0.25811
 Alpha virt. eigenvalues --    0.26384   0.26571   0.26729   0.27335   0.27921
 Alpha virt. eigenvalues --    0.27999   0.28297   0.28654   0.29059   0.29292
 Alpha virt. eigenvalues --    0.29489   0.29871   0.30061   0.30313   0.30633
 Alpha virt. eigenvalues --    0.31090   0.31316   0.32159   0.32516   0.33143
 Alpha virt. eigenvalues --    0.33496   0.33772   0.34146   0.34467   0.35440
 Alpha virt. eigenvalues --    0.35745   0.36519   0.36636   0.37132   0.37493
 Alpha virt. eigenvalues --    0.37956   0.38102   0.38741   0.38833   0.39944
 Alpha virt. eigenvalues --    0.40414   0.40881   0.41161   0.41383   0.42152
 Alpha virt. eigenvalues --    0.42646   0.42896   0.43592   0.43968   0.44331
 Alpha virt. eigenvalues --    0.45134   0.45531   0.45733   0.46381   0.46668
 Alpha virt. eigenvalues --    0.47310   0.47929   0.48853   0.49161   0.49823
 Alpha virt. eigenvalues --    0.50605   0.51470   0.52350   0.52685   0.53165
 Alpha virt. eigenvalues --    0.53342   0.53755   0.55344   0.55906   0.56563
 Alpha virt. eigenvalues --    0.56611   0.56898   0.57223   0.57710   0.58352
 Alpha virt. eigenvalues --    0.58553   0.59365   0.59580   0.60534   0.61417
 Alpha virt. eigenvalues --    0.61678   0.62262   0.62443   0.62911   0.63784
 Alpha virt. eigenvalues --    0.63973   0.64171   0.64425   0.65223   0.65704
 Alpha virt. eigenvalues --    0.66107   0.66968   0.67471   0.67813   0.68521
 Alpha virt. eigenvalues --    0.68980   0.69513   0.69659   0.70411   0.70713
 Alpha virt. eigenvalues --    0.70863   0.71353   0.72132   0.72626   0.73232
 Alpha virt. eigenvalues --    0.73726   0.74173   0.75355   0.76146   0.77087
 Alpha virt. eigenvalues --    0.77387   0.77956   0.78796   0.79268   0.79556
 Alpha virt. eigenvalues --    0.80078   0.80376   0.81409   0.81630   0.82045
 Alpha virt. eigenvalues --    0.83025   0.84860   0.85626   0.86176   0.86757
 Alpha virt. eigenvalues --    0.87627   0.89085   0.89168   0.89520   0.90127
 Alpha virt. eigenvalues --    0.90618   0.91248   0.92319   0.92457   0.93610
 Alpha virt. eigenvalues --    0.94005   0.95152   0.97015   0.97635   0.98718
 Alpha virt. eigenvalues --    0.99166   1.00244   1.00865   1.01880   1.02510
 Alpha virt. eigenvalues --    1.02895   1.04568   1.05372   1.06977   1.07268
 Alpha virt. eigenvalues --    1.08721   1.09189   1.09590   1.09933   1.12270
 Alpha virt. eigenvalues --    1.12819   1.13878   1.14974   1.15996   1.16385
 Alpha virt. eigenvalues --    1.17899   1.18466   1.19706   1.20759   1.21215
 Alpha virt. eigenvalues --    1.23109   1.23892   1.24810   1.25499   1.26268
 Alpha virt. eigenvalues --    1.26919   1.27698   1.28065   1.29206   1.30271
 Alpha virt. eigenvalues --    1.31295   1.32240   1.32705   1.33758   1.34315
 Alpha virt. eigenvalues --    1.35547   1.36822   1.37059   1.38185   1.39982
 Alpha virt. eigenvalues --    1.40383   1.40695   1.41332   1.42447   1.43502
 Alpha virt. eigenvalues --    1.44928   1.46142   1.46578   1.47431   1.47798
 Alpha virt. eigenvalues --    1.49678   1.49933   1.50526   1.51450   1.52133
 Alpha virt. eigenvalues --    1.52848   1.53651   1.54328   1.54600   1.57351
 Alpha virt. eigenvalues --    1.57704   1.58907   1.60473   1.61073   1.62365
 Alpha virt. eigenvalues --    1.63838   1.64852   1.66416   1.66660   1.67863
 Alpha virt. eigenvalues --    1.68265   1.69519   1.70642   1.71114   1.72368
 Alpha virt. eigenvalues --    1.72821   1.73502   1.74867   1.75029   1.76017
 Alpha virt. eigenvalues --    1.76501   1.77244   1.78415   1.80657   1.80771
 Alpha virt. eigenvalues --    1.83120   1.83486   1.83880   1.84696   1.85339
 Alpha virt. eigenvalues --    1.86183   1.87126   1.87672   1.89298   1.90981
 Alpha virt. eigenvalues --    1.92505   1.93863   1.94777   1.95050   1.95700
 Alpha virt. eigenvalues --    1.98328   1.98715   2.01043   2.01540   2.02157
 Alpha virt. eigenvalues --    2.04375   2.04632   2.05706   2.07229   2.08428
 Alpha virt. eigenvalues --    2.08909   2.09878   2.11247   2.12109   2.12572
 Alpha virt. eigenvalues --    2.14401   2.15814   2.16183   2.17628   2.19096
 Alpha virt. eigenvalues --    2.21430   2.23209   2.24261   2.25002   2.25403
 Alpha virt. eigenvalues --    2.25597   2.26938   2.27407   2.28914   2.29486
 Alpha virt. eigenvalues --    2.31037   2.31795   2.35622   2.36345   2.37222
 Alpha virt. eigenvalues --    2.38619   2.40588   2.42195   2.42981   2.44803
 Alpha virt. eigenvalues --    2.45299   2.47407   2.48872   2.49331   2.51072
 Alpha virt. eigenvalues --    2.52371   2.53368   2.55008   2.57816   2.59847
 Alpha virt. eigenvalues --    2.61387   2.63165   2.65252   2.66139   2.67231
 Alpha virt. eigenvalues --    2.68281   2.69207   2.70987   2.72373   2.74557
 Alpha virt. eigenvalues --    2.76470   2.78536   2.79440   2.83284   2.84432
 Alpha virt. eigenvalues --    2.84947   2.85963   2.89553   2.91805   2.95098
 Alpha virt. eigenvalues --    2.96606   3.01709   3.02954   3.11365   3.15289
 Alpha virt. eigenvalues --    3.17795   3.22408   3.23449   3.29764   3.30501
 Alpha virt. eigenvalues --    3.32357   3.36086   3.36113   3.38100   3.43511
 Alpha virt. eigenvalues --    3.44477   3.45929   3.48245   3.50425   3.52045
 Alpha virt. eigenvalues --    3.52868   3.54325   3.55741   3.58130   3.59128
 Alpha virt. eigenvalues --    3.60313   3.60650   3.61290   3.63973   3.66248
 Alpha virt. eigenvalues --    3.68218   3.71266   3.73419   3.75588   3.76820
 Alpha virt. eigenvalues --    3.78435   3.82368   3.86950   3.88681   3.94702
 Alpha virt. eigenvalues --    4.02069   4.05613   4.14249   4.20757   4.20785
 Alpha virt. eigenvalues --    4.85616
  Beta  occ. eigenvalues --  -19.27040 -19.26946 -19.26842 -19.24562 -19.21372
  Beta  occ. eigenvalues --  -19.20235 -14.52819 -14.42779 -10.39435 -10.38029
  Beta  occ. eigenvalues --  -10.36564 -10.35533 -10.31665 -10.30747 -10.30517
  Beta  occ. eigenvalues --  -10.30124 -10.27580  -1.14029  -1.11614  -1.10356
  Beta  occ. eigenvalues --   -1.09419  -1.06970  -1.04320  -1.02986  -0.95946
  Beta  occ. eigenvalues --   -0.86582  -0.81980  -0.80681  -0.73218  -0.72189
  Beta  occ. eigenvalues --   -0.68907  -0.66149  -0.62995  -0.61316  -0.59922
  Beta  occ. eigenvalues --   -0.57495  -0.55767  -0.54135  -0.53057  -0.51711
  Beta  occ. eigenvalues --   -0.50746  -0.50460  -0.50027  -0.48887  -0.47731
  Beta  occ. eigenvalues --   -0.46460  -0.45488  -0.43630  -0.42517  -0.41734
  Beta  occ. eigenvalues --   -0.40627  -0.40388  -0.38378  -0.37239  -0.35548
  Beta  occ. eigenvalues --   -0.34002  -0.32918  -0.32162  -0.31372  -0.30798
  Beta  occ. eigenvalues --   -0.29709  -0.27918  -0.27267
  Beta virt. eigenvalues --   -0.22252  -0.06157  -0.02463  -0.01819  -0.01725
  Beta virt. eigenvalues --    0.00341   0.01114   0.01408   0.02188   0.03062
  Beta virt. eigenvalues --    0.03844   0.04103   0.04536   0.04741   0.05129
  Beta virt. eigenvalues --    0.05940   0.06195   0.06908   0.07221   0.08007
  Beta virt. eigenvalues --    0.08381   0.08548   0.08658   0.08910   0.09242
  Beta virt. eigenvalues --    0.09601   0.09815   0.10000   0.10327   0.10719
  Beta virt. eigenvalues --    0.11121   0.11703   0.11848   0.12139   0.12527
  Beta virt. eigenvalues --    0.12890   0.13120   0.13417   0.13988   0.14309
  Beta virt. eigenvalues --    0.14774   0.15312   0.15848   0.15885   0.16075
  Beta virt. eigenvalues --    0.16201   0.16849   0.17301   0.17667   0.18148
  Beta virt. eigenvalues --    0.18498   0.19391   0.19696   0.20314   0.20905
  Beta virt. eigenvalues --    0.20978   0.21268   0.21709   0.22142   0.22301
  Beta virt. eigenvalues --    0.22738   0.23182   0.23404   0.23435   0.23854
  Beta virt. eigenvalues --    0.24234   0.24525   0.25244   0.25432   0.25824
  Beta virt. eigenvalues --    0.25875   0.26483   0.26720   0.26776   0.27401
  Beta virt. eigenvalues --    0.28026   0.28071   0.28358   0.28744   0.29100
  Beta virt. eigenvalues --    0.29371   0.29548   0.29935   0.30115   0.30409
  Beta virt. eigenvalues --    0.30779   0.31152   0.31403   0.32239   0.32610
  Beta virt. eigenvalues --    0.33207   0.33607   0.33845   0.34199   0.34552
  Beta virt. eigenvalues --    0.35495   0.35813   0.36579   0.36719   0.37269
  Beta virt. eigenvalues --    0.37586   0.38046   0.38164   0.38801   0.38946
  Beta virt. eigenvalues --    0.39990   0.40520   0.40916   0.41200   0.41419
  Beta virt. eigenvalues --    0.42295   0.42738   0.42952   0.43674   0.44130
  Beta virt. eigenvalues --    0.44459   0.45231   0.45620   0.45803   0.46431
  Beta virt. eigenvalues --    0.46799   0.47480   0.47967   0.48976   0.49260
  Beta virt. eigenvalues --    0.49961   0.50735   0.51539   0.52475   0.52746
  Beta virt. eigenvalues --    0.53218   0.53528   0.53829   0.55385   0.55960
  Beta virt. eigenvalues --    0.56628   0.56751   0.56968   0.57283   0.57835
  Beta virt. eigenvalues --    0.58377   0.58576   0.59497   0.59737   0.60681
  Beta virt. eigenvalues --    0.61608   0.61719   0.62414   0.62531   0.63018
  Beta virt. eigenvalues --    0.63890   0.64070   0.64323   0.64495   0.65371
  Beta virt. eigenvalues --    0.65791   0.66167   0.67113   0.67540   0.67879
  Beta virt. eigenvalues --    0.68596   0.69042   0.69598   0.69725   0.70456
  Beta virt. eigenvalues --    0.70864   0.70995   0.71554   0.72314   0.72834
  Beta virt. eigenvalues --    0.73639   0.73926   0.74221   0.75463   0.76274
  Beta virt. eigenvalues --    0.77238   0.77570   0.78079   0.78857   0.79329
  Beta virt. eigenvalues --    0.79696   0.80294   0.80466   0.81509   0.81760
  Beta virt. eigenvalues --    0.82159   0.83124   0.84938   0.85741   0.86274
  Beta virt. eigenvalues --    0.87003   0.87751   0.89152   0.89470   0.89726
  Beta virt. eigenvalues --    0.90180   0.90785   0.91499   0.92417   0.92786
  Beta virt. eigenvalues --    0.93766   0.94187   0.95307   0.97137   0.97746
  Beta virt. eigenvalues --    0.98854   0.99264   1.00389   1.01545   1.02056
  Beta virt. eigenvalues --    1.02879   1.03241   1.04795   1.05479   1.07259
  Beta virt. eigenvalues --    1.07616   1.08810   1.09435   1.09723   1.10070
  Beta virt. eigenvalues --    1.12363   1.12936   1.13926   1.15022   1.16320
  Beta virt. eigenvalues --    1.16559   1.18183   1.18720   1.19882   1.20921
  Beta virt. eigenvalues --    1.21324   1.23212   1.24003   1.24963   1.25586
  Beta virt. eigenvalues --    1.26363   1.27147   1.27790   1.28157   1.29258
  Beta virt. eigenvalues --    1.30373   1.31445   1.32285   1.32940   1.33886
  Beta virt. eigenvalues --    1.34503   1.35657   1.37026   1.37344   1.38441
  Beta virt. eigenvalues --    1.40352   1.40532   1.40950   1.41555   1.42703
  Beta virt. eigenvalues --    1.43674   1.45054   1.46334   1.46705   1.47524
  Beta virt. eigenvalues --    1.48049   1.50040   1.50507   1.50616   1.51851
  Beta virt. eigenvalues --    1.52696   1.53000   1.53787   1.54688   1.55030
  Beta virt. eigenvalues --    1.57388   1.57964   1.59179   1.60586   1.61170
  Beta virt. eigenvalues --    1.62647   1.63996   1.64917   1.66520   1.66770
  Beta virt. eigenvalues --    1.67964   1.68366   1.69697   1.70774   1.71265
  Beta virt. eigenvalues --    1.72454   1.73003   1.74087   1.75059   1.75133
  Beta virt. eigenvalues --    1.76192   1.76564   1.77370   1.78552   1.80799
  Beta virt. eigenvalues --    1.80849   1.83253   1.83517   1.84174   1.84749
  Beta virt. eigenvalues --    1.85415   1.86253   1.87254   1.87807   1.89417
  Beta virt. eigenvalues --    1.91106   1.92600   1.94025   1.94823   1.95159
  Beta virt. eigenvalues --    1.95880   1.98566   1.98804   2.01124   2.01701
  Beta virt. eigenvalues --    2.02241   2.04448   2.04701   2.05740   2.07313
  Beta virt. eigenvalues --    2.08594   2.09045   2.10168   2.11317   2.12313
  Beta virt. eigenvalues --    2.12799   2.14573   2.15834   2.16284   2.17787
  Beta virt. eigenvalues --    2.19322   2.21481   2.23401   2.24357   2.25118
  Beta virt. eigenvalues --    2.25694   2.25764   2.27144   2.27604   2.28975
  Beta virt. eigenvalues --    2.29591   2.31151   2.31974   2.35688   2.36522
  Beta virt. eigenvalues --    2.37317   2.38814   2.40731   2.42388   2.43624
  Beta virt. eigenvalues --    2.44862   2.45785   2.47621   2.49068   2.49941
  Beta virt. eigenvalues --    2.51954   2.52459   2.53585   2.55288   2.57969
  Beta virt. eigenvalues --    2.60133   2.61574   2.63299   2.65489   2.66820
  Beta virt. eigenvalues --    2.67546   2.68424   2.69622   2.71232   2.72491
  Beta virt. eigenvalues --    2.74915   2.76721   2.78605   2.79789   2.83561
  Beta virt. eigenvalues --    2.84561   2.85074   2.86114   2.89621   2.92232
  Beta virt. eigenvalues --    2.95528   2.96985   3.01838   3.02993   3.11530
  Beta virt. eigenvalues --    3.15415   3.17844   3.22528   3.23709   3.30080
  Beta virt. eigenvalues --    3.30963   3.35928   3.37857   3.39068   3.39684
  Beta virt. eigenvalues --    3.43775   3.44618   3.45953   3.48372   3.50834
  Beta virt. eigenvalues --    3.52087   3.53008   3.54308   3.55695   3.58491
  Beta virt. eigenvalues --    3.59182   3.60389   3.60780   3.61657   3.64161
  Beta virt. eigenvalues --    3.66332   3.68335   3.71682   3.73404   3.76275
  Beta virt. eigenvalues --    3.76935   3.78502   3.82422   3.87337   3.88777
  Beta virt. eigenvalues --    3.94854   4.02327   4.05656   4.14281   4.20757
  Beta virt. eigenvalues --    4.20792   4.85644
          Condensed to atoms (all electrons):
               1          2          3          4          5          6
     1  C   12.407798  -5.175297   2.409075   0.305423   0.504946  -0.141080
     2  C   -5.175297  11.595235  -3.673912  -0.678484  -0.980867   0.203181
     3  C    2.409075  -3.673912  11.802360   0.378438   0.317608  -0.376116
     4  O    0.305423  -0.678484   0.378438   8.732496  -0.115482  -0.010225
     5  H    0.504946  -0.980867   0.317608  -0.115482   1.960857   0.040117
     6  O   -0.141080   0.203181  -0.376116  -0.010225   0.040117   9.554693
     7  H    0.130768   0.164530  -0.705045  -0.029964   0.046785  -0.185974
     8  N   -0.214369   0.241443  -0.210140   0.019384  -0.208942  -0.003163
     9  C   -2.921768   2.020840  -2.970548  -0.145144   0.114921  -0.398838
    10  H   -1.439924   0.856358  -0.252249  -0.018534  -0.180886   0.108004
    11  O   -0.894540   0.542627  -0.082486  -0.082673  -0.056820   0.005606
    12  C   -0.172055  -0.133300   0.066406   0.019920  -0.006652   0.035189
    13  H    0.494574  -0.298193   0.301481   0.032103  -0.005053  -0.077889
    14  O   -0.148348   0.068443  -0.021396  -0.000905  -0.004395  -0.020024
    15  H    0.007110   0.047248  -0.002124  -0.001085  -0.000254   0.105219
    16  H   -0.079521  -0.001163  -0.024745   0.001164   0.000681  -0.069153
    17  H    0.427190  -0.291637   0.061005   0.012606   0.020433  -0.006705
    18  H   -0.244905   0.192832  -0.095170   0.274274   0.001937   0.018941
    19  H   -0.048619   0.019009  -0.026198  -0.000876  -0.001022   0.022359
    20  C   -0.094799   0.125155  -1.283676   0.005072  -0.103735  -0.060219
    21  C    0.019973  -0.088362  -0.089401   0.003450   0.013701   0.002712
    22  C   -0.035231   0.048133  -0.048127  -0.000187  -0.008297  -0.009809
    23  N   -0.047422   0.057451   0.024932   0.000989  -0.006254  -0.003412
    24  C   -0.039630   0.063322  -0.600387  -0.017171   0.030617   0.123542
    25  H   -0.057603   0.138947  -0.099078  -0.007501   0.006108   0.064853
    26  H    0.001641  -0.005630   0.108301   0.000364  -0.000281  -0.003278
    27  O    0.000419   0.001224  -0.010092  -0.000005  -0.000478   0.000494
    28  O    0.114752  -0.030641   0.024715  -0.001954   0.045829   0.001741
               7          8          9         10         11         12
     1  C    0.130768  -0.214369  -2.921768  -1.439924  -0.894540  -0.172055
     2  C    0.164530   0.241443   2.020840   0.856358   0.542627  -0.133300
     3  C   -0.705045  -0.210140  -2.970548  -0.252249  -0.082486   0.066406
     4  O   -0.029964   0.019384  -0.145144  -0.018534  -0.082673   0.019920
     5  H    0.046785  -0.208942   0.114921  -0.180886  -0.056820  -0.006652
     6  O   -0.185974  -0.003163  -0.398838   0.108004   0.005606   0.035189
     7  H    2.044161  -0.128045   0.173025  -0.026290  -0.014100  -0.040628
     8  N   -0.128045   7.888118   0.067650   0.032594   0.012379   0.067839
     9  C    0.173025   0.067650  11.037821  -0.696397   0.265016  -0.195498
    10  H   -0.026290   0.032594  -0.696397   3.010032  -0.030512   0.025461
    11  O   -0.014100   0.012379   0.265016  -0.030512   8.636439   0.001233
    12  C   -0.040628   0.067839  -0.195498   0.025461   0.001233   5.025566
    13  H    0.000096   0.002864  -1.080905   0.128099  -0.052836  -0.043810
    14  O   -0.001855   0.013254   0.062927   0.067149   0.009957   0.039328
    15  H   -0.002997  -0.001517  -0.100662  -0.014920   0.014713   0.117692
    16  H   -0.002539   0.014859   0.283840   0.029755   0.003352   0.086321
    17  H    0.006081  -0.006116  -0.029454  -0.195157   0.285320  -0.006856
    18  H   -0.010803  -0.010637   0.015797   0.047588   0.067519  -0.000295
    19  H    0.001971  -0.019099   0.085862  -0.009824   0.000797  -0.055769
    20  C    0.137852   0.172778  -0.135169   0.008579   0.006044   0.007714
    21  C    0.012301  -0.499613  -0.031747   0.004444  -0.000941  -0.006888
    22  C    0.017725  -0.016758   0.003229  -0.002868   0.001063   0.002426
    23  N   -0.003970  -0.003942  -0.010485   0.004756   0.001653   0.010241
    24  C   -0.000713  -0.165311   0.094608   0.091674  -0.001306  -0.051037
    25  H   -0.252465  -0.127601   0.034076   0.000489   0.000701   0.011157
    26  H    0.003723   0.112401  -0.000321  -0.000117  -0.000010   0.000178
    27  O   -0.000782  -0.020584   0.000101   0.000531  -0.000003  -0.000087
    28  O    0.022425  -0.194647  -0.016726  -0.013105  -0.007052   0.002321
              13         14         15         16         17         18
     1  C    0.494574  -0.148348   0.007110  -0.079521   0.427190  -0.244905
     2  C   -0.298193   0.068443   0.047248  -0.001163  -0.291637   0.192832
     3  C    0.301481  -0.021396  -0.002124  -0.024745   0.061005  -0.095170
     4  O    0.032103  -0.000905  -0.001085   0.001164   0.012606   0.274274
     5  H   -0.005053  -0.004395  -0.000254   0.000681   0.020433   0.001937
     6  O   -0.077889  -0.020024   0.105219  -0.069153  -0.006705   0.018941
     7  H    0.000096  -0.001855  -0.002997  -0.002539   0.006081  -0.010803
     8  N    0.002864   0.013254  -0.001517   0.014859  -0.006116  -0.010637
     9  C   -1.080905   0.062927  -0.100662   0.283840  -0.029454   0.015797
    10  H    0.128099   0.067149  -0.014920   0.029755  -0.195157   0.047588
    11  O   -0.052836   0.009957   0.014713   0.003352   0.285320   0.067519
    12  C   -0.043810   0.039328   0.117692   0.086321  -0.006856  -0.000295
    13  H    2.130203   0.018905  -0.121521   0.005012  -0.013793   0.005501
    14  O    0.018905   8.488722  -0.100509  -0.057203  -0.003671   0.000831
    15  H   -0.121521  -0.100509   1.601920  -0.302483  -0.002857   0.001973
    16  H    0.005012  -0.057203  -0.302483   1.323082  -0.001381  -0.000455
    17  H   -0.013793  -0.003671  -0.002857  -0.001381   0.606475  -0.017489
    18  H    0.005501   0.000831   0.001973  -0.000455  -0.017489   0.576781
    19  H   -0.006010   0.205919   0.003224  -0.025303  -0.000288  -0.000251
    20  C    0.009108   0.001108   0.001021   0.005392  -0.002585   0.000657
    21  C   -0.001021   0.001837  -0.000375   0.000258  -0.000058  -0.000041
    22  C    0.000067  -0.003429  -0.000582   0.000484  -0.000122  -0.000360
    23  N   -0.000629   0.002776   0.001234  -0.001629  -0.000840   0.000413
    24  C    0.002835  -0.015643  -0.022695   0.027868  -0.004608   0.005185
    25  H    0.003508   0.000209   0.000679   0.000783  -0.000771   0.002438
    26  H   -0.000042  -0.000014  -0.000028   0.000068   0.000021  -0.000167
    27  O    0.000001   0.000075   0.000009  -0.000037  -0.000006   0.000029
    28  O    0.009427  -0.055029   0.007036  -0.005147   0.000985  -0.000504
              19         20         21         22         23         24
     1  C   -0.048619  -0.094799   0.019973  -0.035231  -0.047422  -0.039630
     2  C    0.019009   0.125155  -0.088362   0.048133   0.057451   0.063322
     3  C   -0.026198  -1.283676  -0.089401  -0.048127   0.024932  -0.600387
     4  O   -0.000876   0.005072   0.003450  -0.000187   0.000989  -0.017171
     5  H   -0.001022  -0.103735   0.013701  -0.008297  -0.006254   0.030617
     6  O    0.022359  -0.060219   0.002712  -0.009809  -0.003412   0.123542
     7  H    0.001971   0.137852   0.012301   0.017725  -0.003970  -0.000713
     8  N   -0.019099   0.172778  -0.499613  -0.016758  -0.003942  -0.165311
     9  C    0.085862  -0.135169  -0.031747   0.003229  -0.010485   0.094608
    10  H   -0.009824   0.008579   0.004444  -0.002868   0.004756   0.091674
    11  O    0.000797   0.006044  -0.000941   0.001063   0.001653  -0.001306
    12  C   -0.055769   0.007714  -0.006888   0.002426   0.010241  -0.051037
    13  H   -0.006010   0.009108  -0.001021   0.000067  -0.000629   0.002835
    14  O    0.205919   0.001108   0.001837  -0.003429   0.002776  -0.015643
    15  H    0.003224   0.001021  -0.000375  -0.000582   0.001234  -0.022695
    16  H   -0.025303   0.005392   0.000258   0.000484  -0.001629   0.027868
    17  H   -0.000288  -0.002585  -0.000058  -0.000122  -0.000840  -0.004608
    18  H   -0.000251   0.000657  -0.000041  -0.000360   0.000413   0.005185
    19  H    0.586008  -0.019513   0.004838   0.001326   0.006086   0.005010
    20  C   -0.019513   9.032692  -1.545136   0.235589  -0.030073  -1.165120
    21  C    0.004838  -1.545136   8.606098  -1.534274   0.189405   0.845546
    22  C    0.001326   0.235589  -1.534274   7.897059   0.000094  -1.078481
    23  N    0.006086  -0.030073   0.189405   0.000094   7.850872  -0.259684
    24  C    0.005010  -1.165120   0.845546  -1.078481  -0.259684   7.391231
    25  H   -0.000682  -0.370724  -0.084773  -0.108275   0.015221   0.087167
    26  H    0.000410   0.425176  -0.656417  -0.000384  -0.057913  -0.148704
    27  O   -0.000685   0.002217  -0.092778   0.070318  -0.094276   0.107926
    28  O    0.039645  -0.031834  -0.033309   0.020052  -0.198879   0.235750
              25         26         27         28
     1  C   -0.057603   0.001641   0.000419   0.114752
     2  C    0.138947  -0.005630   0.001224  -0.030641
     3  C   -0.099078   0.108301  -0.010092   0.024715
     4  O   -0.007501   0.000364  -0.000005  -0.001954
     5  H    0.006108  -0.000281  -0.000478   0.045829
     6  O    0.064853  -0.003278   0.000494   0.001741
     7  H   -0.252465   0.003723  -0.000782   0.022425
     8  N   -0.127601   0.112401  -0.020584  -0.194647
     9  C    0.034076  -0.000321   0.000101  -0.016726
    10  H    0.000489  -0.000117   0.000531  -0.013105
    11  O    0.000701  -0.000010  -0.000003  -0.007052
    12  C    0.011157   0.000178  -0.000087   0.002321
    13  H    0.003508  -0.000042   0.000001   0.009427
    14  O    0.000209  -0.000014   0.000075  -0.055029
    15  H    0.000679  -0.000028   0.000009   0.007036
    16  H    0.000783   0.000068  -0.000037  -0.005147
    17  H   -0.000771   0.000021  -0.000006   0.000985
    18  H    0.002438  -0.000167   0.000029  -0.000504
    19  H   -0.000682   0.000410  -0.000685   0.039645
    20  C   -0.370724   0.425176   0.002217  -0.031834
    21  C   -0.084773  -0.656417  -0.092778  -0.033309
    22  C   -0.108275  -0.000384   0.070318   0.020052
    23  N    0.015221  -0.057913  -0.094276  -0.198879
    24  C    0.087167  -0.148704   0.107926   0.235750
    25  H    2.662824  -0.169470   0.001532  -0.001430
    26  H   -0.169470   1.913617  -0.023450   0.003074
    27  O    0.001532  -0.023450   8.626840  -0.004809
    28  O   -0.001430   0.003074  -0.004809   8.855085
          Atomic-Atomic Spin Densities.
               1          2          3          4          5          6
     1  C    0.029571  -0.014712   0.006661   0.000978   0.004907   0.003715
     2  C   -0.014712   0.017460  -0.007675   0.000578  -0.003170  -0.000497
     3  C    0.006661  -0.007675   0.010945  -0.000338  -0.001813  -0.004485
     4  O    0.000978   0.000578  -0.000338   0.001201   0.000086  -0.000153
     5  H    0.004907  -0.003170  -0.001813   0.000086   0.000364   0.000749
     6  O    0.003715  -0.000497  -0.004485  -0.000153   0.000749   0.045137
     7  H    0.003558  -0.005076   0.009693   0.000427   0.000863  -0.000449
     8  N   -0.007118  -0.001761  -0.064234   0.000249   0.003130  -0.011379
     9  C   -0.021648   0.013222  -0.020839  -0.000482  -0.003830  -0.007841
    10  H    0.005348  -0.002702   0.001412  -0.000065   0.000983   0.001468
    11  O   -0.003282   0.000940   0.000570   0.000005  -0.000404  -0.000106
    12  C    0.003153  -0.005545   0.007832   0.000055   0.000242  -0.000900
    13  H    0.003197  -0.000769  -0.000202  -0.000081   0.000018   0.001213
    14  O   -0.000024  -0.000086  -0.001905   0.000032  -0.000197  -0.000371
    15  H   -0.000332   0.000182  -0.000274  -0.000017   0.000059  -0.000095
    16  H    0.000881  -0.000406   0.001144   0.000011   0.000044   0.000281
    17  H   -0.001044   0.000514  -0.000434   0.000061  -0.000177  -0.000039
    18  H   -0.003687   0.002609  -0.001740  -0.000200  -0.000232   0.000164
    19  H   -0.001975   0.001371  -0.001523  -0.000014  -0.000355  -0.001181
    20  C   -0.005649   0.019220  -0.019555  -0.000767  -0.001235   0.003506
    21  C   -0.001321   0.004418   0.025918  -0.000061   0.000114   0.001294
    22  C    0.000927  -0.000416   0.008571  -0.000012  -0.000278  -0.001052
    23  N    0.000742  -0.000226   0.008588  -0.000032  -0.000318   0.000050
    24  C    0.004671  -0.002487   0.007705  -0.000086   0.003638   0.005006
    25  H   -0.000950   0.005589  -0.009487  -0.000073   0.000053   0.002319
    26  H    0.000131  -0.000922  -0.005121   0.000011  -0.000147  -0.000225
    27  O   -0.000051  -0.000111  -0.000803   0.000002   0.000128   0.000002
    28  O    0.000713  -0.001250   0.001111   0.000116  -0.001042  -0.000360
               7          8          9         10         11         12
     1  C    0.003558  -0.007118  -0.021648   0.005348  -0.003282   0.003153
     2  C   -0.005076  -0.001761   0.013222  -0.002702   0.000940  -0.005545
     3  C    0.009693  -0.064234  -0.020839   0.001412   0.000570   0.007832
     4  O    0.000427   0.000249  -0.000482  -0.000065   0.000005   0.000055
     5  H    0.000863   0.003130  -0.003830   0.000983  -0.000404   0.000242
     6  O   -0.000449  -0.011379  -0.007841   0.001468  -0.000106  -0.000900
     7  H    0.003545  -0.003307  -0.004528   0.000170  -0.000059   0.000538
     8  N   -0.003307   0.383348   0.015834  -0.002622   0.000083  -0.001462
     9  C   -0.004528   0.015834   0.034662  -0.005982   0.000400  -0.007846
    10  H    0.000170  -0.002622  -0.005982   0.000865   0.000087   0.000412
    11  O   -0.000059   0.000083   0.000400   0.000087   0.003675   0.000175
    12  C    0.000538  -0.001462  -0.007846   0.000412   0.000175   0.001268
    13  H    0.000023  -0.000296  -0.005638   0.000498  -0.000158   0.000726
    14  O   -0.000078   0.001920   0.000728  -0.000120   0.000009  -0.000364
    15  H    0.000022  -0.000141   0.000856  -0.000061  -0.000061   0.000077
    16  H    0.000092  -0.000598  -0.002345   0.000185   0.000026   0.000346
    17  H   -0.000027   0.000221   0.000725  -0.000360   0.000016   0.000039
    18  H   -0.000478   0.000197   0.002002  -0.000531   0.000630  -0.000162
    19  H   -0.000386   0.003013   0.003636  -0.000808  -0.000007  -0.000470
    20  C   -0.001508  -0.003985   0.011637  -0.000816  -0.000015   0.000481
    21  C    0.001950   0.010733   0.002018  -0.000304   0.000021   0.000513
    22  C   -0.000625   0.009065  -0.000122   0.000217  -0.000022   0.000092
    23  N    0.000810  -0.012125  -0.002679   0.000171  -0.000003   0.000671
    24  C   -0.002506  -0.023184  -0.005760   0.001796  -0.000198   0.000267
    25  H   -0.000531   0.009893   0.002374   0.000016  -0.000018  -0.000070
    26  H    0.000387  -0.013826  -0.000316   0.000028   0.000001  -0.000005
    27  O    0.000010   0.000828   0.000059   0.000001   0.000000  -0.000024
    28  O    0.000345  -0.000135  -0.000607   0.000901   0.000012  -0.000784
              13         14         15         16         17         18
     1  C    0.003197  -0.000024  -0.000332   0.000881  -0.001044  -0.003687
     2  C   -0.000769  -0.000086   0.000182  -0.000406   0.000514   0.002609
     3  C   -0.000202  -0.001905  -0.000274   0.001144  -0.000434  -0.001740
     4  O   -0.000081   0.000032  -0.000017   0.000011   0.000061  -0.000200
     5  H    0.000018  -0.000197   0.000059   0.000044  -0.000177  -0.000232
     6  O    0.001213  -0.000371  -0.000095   0.000281  -0.000039   0.000164
     7  H    0.000023  -0.000078   0.000022   0.000092  -0.000027  -0.000478
     8  N   -0.000296   0.001920  -0.000141  -0.000598   0.000221   0.000197
     9  C   -0.005638   0.000728   0.000856  -0.002345   0.000725   0.002002
    10  H    0.000498  -0.000120  -0.000061   0.000185  -0.000360  -0.000531
    11  O   -0.000158   0.000009  -0.000061   0.000026   0.000016   0.000630
    12  C    0.000726  -0.000364   0.000077   0.000346   0.000039  -0.000162
    13  H    0.004394   0.000009  -0.000179   0.000402  -0.000040  -0.000134
    14  O    0.000009   0.003735  -0.000002  -0.000378   0.000001   0.000019
    15  H   -0.000179  -0.000002   0.000176  -0.000162  -0.000001  -0.000006
    16  H    0.000402  -0.000378  -0.000162   0.001084   0.000000  -0.000039
    17  H   -0.000040   0.000001  -0.000001   0.000000   0.000122   0.000297
    18  H   -0.000134   0.000019  -0.000006  -0.000039   0.000297   0.002205
    19  H   -0.000187   0.000628   0.000103  -0.000347   0.000078   0.000114
    20  C    0.000175   0.000353  -0.000032  -0.000167   0.000055   0.000118
    21  C   -0.000009  -0.000049   0.000019   0.000007   0.000006  -0.000002
    22  C    0.000027  -0.000026   0.000011   0.000045  -0.000002   0.000012
    23  N   -0.000063  -0.000395   0.000020   0.000091  -0.000004   0.000010
    24  C    0.000387  -0.001576   0.000082   0.000310  -0.000115  -0.000269
    25  H    0.000106   0.000015  -0.000004  -0.000011  -0.000006   0.000051
    26  H   -0.000009   0.000001  -0.000001  -0.000000   0.000000  -0.000001
    27  O    0.000001   0.000013  -0.000002  -0.000002  -0.000000  -0.000003
    28  O    0.000065   0.001050  -0.000081  -0.000020  -0.000069  -0.000032
              19         20         21         22         23         24
     1  C   -0.001975  -0.005649  -0.001321   0.000927   0.000742   0.004671
     2  C    0.001371   0.019220   0.004418  -0.000416  -0.000226  -0.002487
     3  C   -0.001523  -0.019555   0.025918   0.008571   0.008588   0.007705
     4  O   -0.000014  -0.000767  -0.000061  -0.000012  -0.000032  -0.000086
     5  H   -0.000355  -0.001235   0.000114  -0.000278  -0.000318   0.003638
     6  O   -0.001181   0.003506   0.001294  -0.001052   0.000050   0.005006
     7  H   -0.000386  -0.001508   0.001950  -0.000625   0.000810  -0.002506
     8  N    0.003013  -0.003985   0.010733   0.009065  -0.012125  -0.023184
     9  C    0.003636   0.011637   0.002018  -0.000122  -0.002679  -0.005760
    10  H   -0.000808  -0.000816  -0.000304   0.000217   0.000171   0.001796
    11  O   -0.000007  -0.000015   0.000021  -0.000022  -0.000003  -0.000198
    12  C   -0.000470   0.000481   0.000513   0.000092   0.000671   0.000267
    13  H   -0.000187   0.000175  -0.000009   0.000027  -0.000063   0.000387
    14  O    0.000628   0.000353  -0.000049  -0.000026  -0.000395  -0.001576
    15  H    0.000103  -0.000032   0.000019   0.000011   0.000020   0.000082
    16  H   -0.000347  -0.000167   0.000007   0.000045   0.000091   0.000310
    17  H    0.000078   0.000055   0.000006  -0.000002  -0.000004  -0.000115
    18  H    0.000114   0.000118  -0.000002   0.000012   0.000010  -0.000269
    19  H    0.001075   0.000664  -0.000058  -0.000459  -0.000723  -0.001854
    20  C    0.000664  -0.261288   0.064912   0.024951   0.008456   0.020711
    21  C   -0.000058   0.064912   0.189844   0.127795  -0.008148  -0.030689
    22  C   -0.000459   0.024951   0.127795  -0.477003   0.017257   0.057594
    23  N   -0.000723   0.008456  -0.008148   0.017257   0.287108  -0.018250
    24  C   -0.001854   0.020711  -0.030689   0.057594  -0.018250  -0.116997
    25  H    0.000132   0.000477  -0.012530  -0.003535  -0.001305   0.004197
    26  H   -0.000036  -0.039766   0.076897   0.016224   0.002101   0.006279
    27  O    0.000120  -0.005733  -0.026096  -0.005765  -0.014320  -0.004966
    28  O   -0.001013   0.000435   0.002130  -0.002654   0.000395   0.024887
              25         26         27         28
     1  C   -0.000950   0.000131  -0.000051   0.000713
     2  C    0.005589  -0.000922  -0.000111  -0.001250
     3  C   -0.009487  -0.005121  -0.000803   0.001111
     4  O   -0.000073   0.000011   0.000002   0.000116
     5  H    0.000053  -0.000147   0.000128  -0.001042
     6  O    0.002319  -0.000225   0.000002  -0.000360
     7  H   -0.000531   0.000387   0.000010   0.000345
     8  N    0.009893  -0.013826   0.000828  -0.000135
     9  C    0.002374  -0.000316   0.000059  -0.000607
    10  H    0.000016   0.000028   0.000001   0.000901
    11  O   -0.000018   0.000001   0.000000   0.000012
    12  C   -0.000070  -0.000005  -0.000024  -0.000784
    13  H    0.000106  -0.000009   0.000001   0.000065
    14  O    0.000015   0.000001   0.000013   0.001050
    15  H   -0.000004  -0.000001  -0.000002  -0.000081
    16  H   -0.000011  -0.000000  -0.000002  -0.000020
    17  H   -0.000006   0.000000  -0.000000  -0.000069
    18  H    0.000051  -0.000001  -0.000003  -0.000032
    19  H    0.000132  -0.000036   0.000120  -0.001013
    20  C    0.000477  -0.039766  -0.005733   0.000435
    21  C   -0.012530   0.076897  -0.026096   0.002130
    22  C   -0.003535   0.016224  -0.005765  -0.002654
    23  N   -0.001305   0.002101  -0.014320   0.000395
    24  C    0.004197   0.006279  -0.004966   0.024887
    25  H    0.012525  -0.001370   0.000105  -0.000270
    26  H   -0.001370  -0.050389  -0.004032  -0.000185
    27  O    0.000105  -0.004032   0.571290  -0.000155
    28  O   -0.000270  -0.000185  -0.000155  -0.056376
 Mulliken charges and spin densities:
               1          2
     1  C    0.931444   0.007358
     2  C    0.971508   0.018292
     3  C    1.076571  -0.050281
     4  O   -0.675493   0.001431
     5  H   -0.425121   0.002183
     6  O   -0.920765   0.035774
     7  H   -0.355270   0.002871
     8  N    0.184924   0.292341
     9  C    0.473953  -0.002307
    10  H   -0.534732   0.000189
    11  O   -0.631140   0.002316
    12  C    1.193883  -0.000745
    13  H   -0.442080   0.003475
    14  O   -0.549018   0.002942
    15  H   -0.234465   0.000154
    16  H   -0.212161   0.000477
    17  H    0.164276  -0.000186
    18  H    0.168380   0.000910
    19  H    0.231674  -0.000463
    20  C    0.666428  -0.184365
    21  C    0.960571   0.429321
    22  C    0.549621  -0.229185
    23  N   -0.446716   0.267879
    24  C    0.458209  -0.071406
    25  H   -0.750318   0.007691
    26  H   -0.502747  -0.014289
    27  O   -0.563646   0.510495
    28  O   -0.787770  -0.032873
 Sum of Mulliken charges =  -0.00000   1.00000
 Mulliken charges and spin densities with hydrogens summed into heavy atoms:
               1          2
     1  C    0.396712   0.007547
     2  C    0.546387   0.020475
     3  C    0.721301  -0.047410
     4  O   -0.507113   0.002341
     6  O   -0.920765   0.035774
     8  N    0.184924   0.292341
     9  C    0.031872   0.001168
    11  O   -0.466864   0.002130
    12  C    0.747257  -0.000114
    14  O   -0.317343   0.002480
    20  C   -0.083890  -0.176674
    21  C    0.457824   0.415031
    22  C    0.549621  -0.229185
    23  N   -0.446716   0.267879
    24  C    0.458209  -0.071406
    27  O   -0.563646   0.510495
    28  O   -0.787770  -0.032873
 Electronic spatial extent (au):  <R**2>=           3999.4317
 Charge=             -0.0000 electrons
 Dipole moment (field-independent basis, Debye):
    X=              0.9741    Y=             -5.7415    Z=              2.0282  Tot=              6.1666
 Quadrupole moment (field-independent basis, Debye-Ang):
   XX=           -100.3782   YY=           -110.7592   ZZ=            -93.7078
   XY=              9.7153   XZ=            -13.6512   YZ=              1.7125
 Traceless Quadrupole moment (field-independent basis, Debye-Ang):
   XX=              1.2368   YY=             -9.1441   ZZ=              7.9073
   XY=              9.7153   XZ=            -13.6512   YZ=              1.7125
 Octapole moment (field-independent basis, Debye-Ang**2):
  XXX=             97.1905  YYY=            -19.3169  ZZZ=            -14.3474  XYY=            -16.5992
  XXY=            -38.2833  XXZ=             13.4151  XZZ=             23.1814  YZZ=            -10.8597
  YYZ=             15.3681  XYZ=              6.1322
 Hexadecapole moment (field-independent basis, Debye-Ang**3):
 XXXX=          -3866.9906 YYYY=          -1212.5487 ZZZZ=           -452.4860 XXXY=            125.6364
 XXXZ=           -196.2091 YYYX=            -27.4027 YYYZ=             -7.7006 ZZZX=            -59.1395
 ZZZY=              7.2362 XXYY=           -766.9545 XXZZ=           -588.0591 YYZZ=           -244.3745
 XXYZ=             24.6276 YYXZ=            -20.6644 ZZXY=              9.7623
 N-N= 1.322032056491D+03 E-N=-4.773693283444D+03  KE= 9.046028241610D+02
                          Isotropic Fermi Contact Couplings
        Atom                 a.u.       MegaHertz       Gauss      10(-4) cm-1
     1  C(13)             -0.00028      -0.31674      -0.11302      -0.10565
     2  C(13)              0.00840       9.44100       3.36878       3.14918
     3  C(13)             -0.00905     -10.16874      -3.62846      -3.39193
     4  O(17)              0.00215      -1.30526      -0.46575      -0.43539
     5  H(1)              -0.00030      -1.36274      -0.48626      -0.45456
     6  O(17)              0.01077      -6.53122      -2.33050      -2.17858
     7  H(1)               0.00095       4.23347       1.51061       1.41213
     8  N(14)              0.06406      20.69885       7.38587       6.90439
     9  C(13)             -0.00123      -1.38570      -0.49445      -0.46222
    10  H(1)              -0.00004      -0.15796      -0.05636      -0.05269
    11  O(17)              0.00054      -0.32852      -0.11722      -0.10958
    12  C(13)             -0.00036      -0.40369      -0.14405      -0.13466
    13  H(1)               0.00136       6.08995       2.17305       2.03139
    14  O(17)              0.00026      -0.15822      -0.05646      -0.05277
    15  H(1)               0.00008       0.36384       0.12983       0.12137
    16  H(1)               0.00019       0.83750       0.29884       0.27936
    17  H(1)              -0.00003      -0.11206      -0.03999      -0.03738
    18  H(1)               0.00041       1.83444       0.65458       0.61190
    19  H(1)               0.00002       0.09186       0.03278       0.03064
[...]
 00005186,0.00013147,0.00016760,0.00005895,-0.00085614,-0.00041409,-0.0
 0056434,-0.02864880,0.04404633,-0.09523980,-0.05466176,-0.26808522,0.3
 3966837,0.00615514,0.00645959,-0.00015814,-0.00091845,-0.01340533,-0.0
 1456227,0.01992611,-0.01063055,0.02172838,-0.00788211,0.00565140,0.001
 75795,0.00106490,0.00070828,-0.00099425,-0.02343526,-0.00773380,-0.002
 92247,0.00128056,0.00234043,-0.00010548,-0.02893646,-0.01445264,0.0163
 3215,0.00967389,0.00655984,-0.00808050,-0.00113110,-0.00036179,0.00014
 953,-0.00821711,-0.00049768,0.00326042,-0.00195170,0.00291147,-0.00130
 279,-0.00356987,-0.00078400,0.00136754,0.00197965,-0.00370009,0.001638
 16,-0.00022563,-0.00093249,0.00050195,0.00037800,-0.00008200,0.0001372
 8,0.00046298,0.00037065,-0.00115223,0.00144990,0.00057768,0.00060471,-
 0.00164970,0.00194194,-0.00163941,0.02301239,-0.05521131,0.02583939,-0
 .01615886,0.01381417,0.00852629,0.22544760,-0.00025963,-0.00048285,-0.
 00024542,-0.00010567,0.00093744,0.00097011,0.00353574,-0.00246388,-0.0
 0237315,0.00012673,-0.00027618,0.00017770,0.00001885,0.00003929,-0.000
 24069,-0.00148751,-0.00002126,-0.00048147,0.00011854,0.00065215,-0.000
 25550,-0.01164667,-0.00746614,0.00124017,0.00028072,-0.00006191,-0.000
 25831,0.00002260,0.00002369,-0.00001521,0.00014150,0.00003370,0.000047
 90,0.00013479,0.00010406,0.00007285,-0.00009506,0.00007150,0.00004863,
 0.00009849,-0.00011566,-0.00002668,-0.00004446,-0.00002573,-0.00002644
 ,-0.00001928,0.00000607,-0.00002685,0.00000720,0.00000010,0.00002560,-
 0.00003496,-0.00002348,-0.00014514,-0.00028801,0.00023080,0.00000830,0
 .02281738,-0.00118944,0.02229717,0.02943611,-0.17556379,0.08566633,0.0
 1701413,0.36763659,0.00021389,-0.00040248,0.00029514,0.00070038,-0.000
 58692,0.00061102,-0.00540278,0.00239706,0.00014916,0.00023590,0.000356
 78,-0.00050319,-0.00008567,-0.00022761,0.00003226,0.00243513,0.0014624
 3,-0.00044943,-0.00034380,-0.00004071,0.00023896,0.01811967,0.01804246
 ,-0.02188465,-0.00069199,-0.00010753,0.00066392,0.00032074,0.00014682,
 -0.00010825,-0.00004182,0.00032349,-0.00028193,0.00046500,-0.00039587,
 0.00046163,0.00015039,0.00002555,-0.00007191,-0.00065108,0.00012285,-0
 .00056355,-0.00003464,0.00011975,-0.00004930,-0.00004923,-0.00000157,-
 0.00012349,0.00007914,-0.00006276,-0.00000482,-0.00003709,-0.00014098,
 0.00005879,0.00091144,0.00032326,0.00064543,-0.04487188,-0.00187532,-0
 .00101067,0.00398225,0.08841415,-0.14790338,-0.03088632,-0.20440212,0.
 38441659,-0.00162753,-0.00452536,0.00071958,0.00220514,0.00467104,0.00
 772065,-0.00816838,0.00564657,-0.01435052,0.00331454,-0.00106980,-0.00
 120230,-0.00062982,-0.00105996,0.00021329,0.01101794,0.00489701,-0.000
 28671,-0.00217170,-0.00005784,-0.00043242,0.01062892,0.05892394,-0.054
 30382,-0.00350265,-0.00307569,0.00422389,0.00161083,0.00044848,-0.0006
 3995,0.00244873,0.00149245,-0.00158365,0.00234539,-0.00267101,0.002575
 39,0.00152596,0.00057098,-0.00082146,-0.00447109,0.00083849,-0.0031082
 8,-0.00025194,0.00063262,-0.00042296,-0.00025835,0.00013882,-0.0005454
 6,0.00014921,-0.00035378,0.00029047,-0.00064775,-0.00063221,-0.0004054
 1,0.00519094,0.00278411,0.00378534,-0.07592945,0.02174200,-0.00267407,
 0.01016820,-0.03124445,0.02148577,-0.03896831,-0.15792329,0.12626683,0
 .60524142,-0.00017023,-0.00040153,0.00039494,-0.00036905,0.00062385,0.
 00022165,-0.00445466,-0.00293884,0.00358923,0.00020564,-0.00013799,-0.
 00034292,-0.00007866,-0.00006247,-0.00023008,0.00167306,0.00099026,0.0
 0075199,0.00149439,-0.00081289,0.00021242,0.03023753,-0.00491428,0.018
 08451,-0.00087760,-0.00042891,0.00064389,0.00004178,0.00005258,-0.0001
 8274,0.00033230,0.00028804,-0.00021195,0.00012437,-0.00032127,0.000122
 49,0.00025765,-0.00001970,-0.00013246,-0.00029554,0.00047205,-0.000177
 39,0.00002857,0.00008082,-0.00001269,0.00000616,-0.00000918,-0.0000120
 7,-0.00002105,-0.00006970,0.00001767,-0.00016733,0.00000080,-0.0000242
 3,0.00034368,-0.00044197,0.00015264,0.00102950,0.00172069,-0.00565282,
 -0.03198614,-0.00766955,0.02813851,-0.04661387,-0.16364469,0.10879759,
 0.07902994,0.24388165,0.00059826,0.00012839,-0.00020952,0.00026267,-0.
 00021938,-0.00146574,0.00511999,0.00496268,-0.00026860,-0.00100965,0.0
 0052544,0.00056857,-0.00005482,0.00006571,-0.00015030,-0.00142420,-0.0
 0157431,0.00045347,-0.00163016,0.00051223,-0.00062345,-0.02758947,0.02
 018548,-0.00321819,0.00118425,0.00050026,-0.00069087,-0.00011642,-0.00
 005336,-0.00003064,-0.00067841,0.00003647,0.00044603,-0.00009613,0.000
 21121,0.00000806,-0.00029671,0.00001506,0.00008765,0.00001763,-0.00015
 269,0.00012620,-0.00007501,-0.00008444,0.00002556,0.00005267,0.0000072
 7,-0.00000413,0.00005644,0.00001223,-0.00012810,0.00012530,0.00010396,
 0.00000224,0.00021440,-0.00002033,-0.00013869,-0.00741719,-0.00878415,
 0.01035867,0.03783693,0.02931573,-0.00353172,0.01478736,0.07318974,-0.
 14629179,-0.06126796,-0.15898377,0.20074759,-0.00262196,0.00393872,-0.
 00030717,-0.00419850,0.00108743,-0.00586263,0.00711045,0.03295915,-0.0
 1587510,0.00031785,-0.00284404,0.00228071,-0.00014013,0.00280767,0.002
 14746,-0.00319486,-0.00992653,0.00285735,-0.00539771,0.00014043,0.0005
 4506,-0.15414664,-0.01361960,0.01862239,-0.00066459,0.00155715,-0.0032
 0465,-0.00234014,-0.00059413,0.00081108,0.00129853,-0.00242375,0.00049
 414,-0.00334939,0.00319716,-0.00420037,-0.00022499,-0.00044375,0.00074
 188,0.00799121,0.00050405,0.00428503,0.00072387,-0.00059150,0.00048019
 ,0.00014430,-0.00018032,0.00096090,-0.00063625,0.00039777,0.00026388,0
 .00013969,0.00064815,0.00055194,-0.01188577,-0.00680778,-0.00474059,0.
 08264732,-0.00888391,-0.00642475,-0.04247227,0.02425804,-0.01951865,-0
 .06333387,0.00566445,0.01282284,-0.24048724,0.03110725,-0.02272548,0.8
 3319718,-0.00219608,0.00067321,-0.00150934,-0.00076273,0.00309570,0.00
 175745,0.02040586,0.00311602,0.00108565,0.00103550,-0.00218335,0.00088
 543,0.00053499,0.00044986,0.00024999,0.00089462,-0.00500314,0.00122020
 ,-0.00250122,0.00149714,0.00048440,0.04083296,-0.10789579,0.02278697,-
 0.00175127,-0.00082172,-0.00028474,-0.00140453,-0.00042794,0.00068731,
 0.00249033,-0.00189917,0.00016839,-0.00172028,0.00159264,-0.00224999,0
 .00051316,0.00005413,0.00013888,0.00424215,0.00083210,0.00203967,0.000
 39879,-0.00023124,0.00012800,-0.00006002,-0.00012437,0.00048209,-0.000
 48576,0.00024528,0.00044364,0.00002130,0.00044959,0.00003508,-0.006290
 47,-0.00424970,-0.00174306,-0.06961595,-0.00128510,0.01244236,0.014302
 40,-0.02261613,0.01397865,0.07315361,0.00572269,-0.03399341,0.01531531
 ,-0.09331869,0.03363313,0.17909019,0.42997748,0.00167391,-0.00014788,0
 .00115435,0.00178101,-0.00310068,0.00029647,-0.01837585,-0.00261113,0.
 00182049,-0.00102821,0.00163838,-0.00147260,0.00066778,-0.00134844,-0.
 00076774,0.00055220,0.00475306,-0.00166015,0.00319586,-0.00042021,0.00
 100063,-0.03124943,0.01627041,-0.07517427,-0.00057187,0.00005450,0.000
 96689,0.00055893,0.00033116,-0.00057644,-0.00149493,0.00091526,-0.0003
 1605,0.00098268,-0.00113299,0.00139161,0.00009670,-0.00008473,-0.00016
 401,-0.00384956,-0.00135692,-0.00218105,-0.00020210,0.00029140,-0.0001
 9385,-0.00007208,-0.00000466,-0.00038223,0.00031267,-0.00013072,-0.000
 25194,0.00017062,-0.00012976,0.00004238,0.00473922,0.00344346,0.003030
 30,0.07298836,0.01121217,-0.02444120,-0.03223569,0.01578567,-0.0145025
 4,-0.00632966,0.01679476,-0.00140564,-0.02695442,0.01026507,-0.0820017
 1,-0.14540304,-0.16668830,0.33813624,-0.00028093,-0.00031788,0.0000308
 7,-0.00018378,0.00052772,0.00052105,-0.00119067,-0.00400158,0.00182153
 ,0.00042780,-0.00017583,-0.00026004,0.00000807,-0.00005810,-0.00007433
 ,0.00140291,0.00161362,0.00046866,-0.00074676,0.00041510,-0.00017148,0
 .00873671,-0.02024352,0.01638563,-0.00079228,-0.00036900,0.00047221,0.
 00007485,0.00001394,-0.00002688,0.00043676,0.00007495,-0.00019731,0.00
 015836,-0.00020084,0.00009466,0.00017801,0.00001413,-0.00006555,-0.000
 15689,0.00021301,-0.00014004,0.00000907,0.00006164,-0.00003632,-0.0000
 3227,0.00000137,-0.00001578,-0.00002908,-0.00002863,0.00005941,-0.0001
 1063,-0.00003285,-0.00002025,0.00014992,-0.00004886,0.00016186,-0.0824
 6448,0.06819246,-0.05620467,-0.00259445,0.01956462,-0.01686326,0.00746
 634,0.00240643,0.00034844,-0.00420782,-0.00075487,0.00154637,-0.004571
 50,-0.00335121,0.00140264,0.08357480,0.00004268,-0.00016097,-0.0000787
 1,0.00011457,0.00057714,0.00010439,0.00306501,-0.00145339,-0.00143055,
 0.00004806,-0.00007118,0.00002521,0.00003587,-0.00003846,-0.00007874,-
 0.00038724,-0.00012236,-0.00036284,-0.00060756,0.00109316,-0.00039879,
 0.00325756,-0.01193946,0.01370414,-0.00013067,0.00007107,-0.00014713,0
 .00006186,0.00002565,-0.00000722,0.00008424,0.00004311,-0.00005886,0.0
 0006855,-0.00005172,0.00010423,-0.00004871,-0.00000348,0.00002729,-0.0
 0010330,0.00000584,-0.00010059,-0.00000524,0.00001400,-0.00001606,-0.0
 0001044,-0.00000523,-0.00002645,0.00001195,-0.00000536,0.00000989,-0.0
 0001876,-0.00000447,-0.00001193,0.00012893,0.00008261,0.00011893,0.057
 82918,-0.20703743,0.13816800,0.00020498,0.00229276,0.00492527,0.001306
 41,0.00265028,0.00510383,0.00023288,-0.00030456,-0.00171386,-0.0026814
 3,0.00490258,0.00124760,-0.06203358,0.21228362,0.00002815,0.00000534,-
 0.00010834,0.00025824,0.00011757,0.00026422,-0.00117864,-0.00124059,-0
 .00208871,-0.00003982,-0.00010903,-0.00000790,-0.00005003,0.00003775,-
 0.00002417,-0.00068904,-0.00035392,0.00029881,0.00063608,-0.00031855,0
 .00054256,-0.00416746,0.01487764,-0.00728170,0.00012859,-0.00004732,-0
 .00015742,-0.00000623,0.00000415,0.00001155,-0.00006383,-0.00003986,0.
 00002853,-0.00007217,0.00004296,0.00001899,-0.00005441,-0.00000925,0.0
 0001921,0.00001831,-0.00005330,0.00000353,-0.00000479,-0.00002865,0.00
 000414,0.00000053,-0.00001017,-0.00000963,0.00001504,0.00001036,-0.000
 00405,0.00004882,-0.00003282,-0.00000017,-0.00002657,0.00003582,-0.000
 02423,-0.05035802,0.13818678,-0.15815150,0.00235919,0.00519085,0.00386
 668,-0.00182068,0.00015176,0.00826630,-0.00063103,-0.00039546,-0.00256
 874,0.00419658,0.00056711,0.00585699,0.05130749,-0.15630634,0.15669401
 ,0.00012246,0.00014891,-0.00000561,-0.00009059,-0.00025142,-0.00053527
 ,0.00088923,-0.00081633,0.00138376,-0.00025372,0.00016732,0.00008878,0
 .00003180,0.00002504,-0.00002919,-0.00075554,-0.00033298,-0.00008137,-
 0.00002511,0.00006699,-0.00006143,-0.00411655,0.00314996,-0.00174050,0
 .00024581,0.00014955,-0.00022856,-0.00003993,-0.00001210,0.00000717,-0
 .00019129,-0.00002023,0.00008779,-0.00007279,0.00007944,-0.00003960,-0
 .00009610,-0.00002026,0.00002604,0.00006198,-0.00007417,0.00004616,-0.
 00000098,-0.00002866,0.00001288,0.00001008,-0.00000542,0.00000350,0.00
 000815,0.00000995,-0.00002478,0.00003266,0.00003423,0.00002143,-0.0000
 4847,0.00002280,-0.00005037,-0.01318163,-0.01782266,0.01524048,-0.2289
 7035,-0.10671300,0.10747935,-0.00025283,0.00364441,-0.00414396,0.00378
 381,0.00265959,-0.00253276,-0.00039363,0.00252966,-0.00129364,0.001054
 70,-0.00010738,-0.00030092,0.23798511,-0.00021196,-0.00020235,0.000046
 65,-0.00007924,0.00047020,0.00044808,-0.00124886,0.00146547,-0.0003191
 6,0.00025618,-0.00022346,-0.00007543,-0.00001428,-0.00003079,0.0000247
 1,0.00146287,0.00045490,0.00014193,0.00006027,-0.00010274,0.00000555,0
 .00494394,0.00379540,0.00300745,-0.00039436,-0.00021134,0.00040171,0.0
 0004689,0.00001338,-0.00000764,0.00027664,0.00000971,-0.00013271,0.000
 11814,-0.00010661,0.00006729,0.00015321,0.00003263,-0.00004298,-0.0000
 8947,0.00010667,-0.00009785,0.00000661,0.00004446,-0.00002095,-0.00002
 093,-0.00000063,-0.00001363,-0.00001403,-0.00001269,0.00003958,-0.0000
 4788,-0.00000995,-0.00001291,0.00006279,-0.00002923,0.00009967,0.00673
 439,0.00861347,-0.00875391,-0.10964385,-0.11034277,0.08306082,-0.00868
 705,-0.00463870,0.00462667,-0.00313180,-0.00226146,0.00619888,0.001594
 65,-0.00489768,0.00220501,-0.00105726,-0.00161597,-0.00244268,0.114284
 85,0.10754940,0.00005445,-0.00000371,-0.00000456,-0.00017332,0.0000642
 0,-0.00017427,-0.00024727,0.00037661,0.00106967,-0.00014287,0.00007356
 ,0.00005425,0.00001059,-0.00000399,-0.00004460,0.00017594,0.00001736,-
 0.00002845,-0.00001543,0.00002564,-0.00000719,-0.00185917,0.00379634,0
 .00379774,0.00006373,0.00004383,0.00000702,0.00000583,-0.00000653,-0.0
 0000278,-0.00008142,0.00000208,0.00002663,0.00003678,0.00000111,0.0000
 4569,-0.00001986,0.00000440,0.00001024,-0.00006423,-0.00005189,-0.0000
 5371,-0.00001269,0.00000073,-0.00000183,-0.00000170,-0.00000254,-0.000
 01544,0.00001136,0.00000328,-0.00000903,0.00001083,0.00002128,0.000002
 72,0.00008454,0.00010276,0.00005955,-0.00752732,-0.00453232,0.00451319
 ,0.11263547,0.07787464,-0.10096657,0.00361765,0.00369240,-0.00599598,0
 .00311603,0.00734254,-0.00196987,0.00021852,-0.00072182,0.00084633,0.0
 0005343,-0.00246336,-0.00236518,-0.11382953,-0.08456392,0.10206242,-0.
 00216534,-0.00233827,0.00007870,-0.00001205,0.00517803,0.00469383,-0.0
 0444490,0.00317235,-0.00593737,0.00235455,-0.00193135,-0.00043957,-0.0
 0034993,-0.00022506,0.00012727,0.00780326,0.00273430,0.00152453,-0.000
 17078,-0.00087990,-0.00009523,0.00262543,0.00180207,-0.00459819,-0.003
 24522,-0.00255623,0.00291278,0.00035791,0.00009913,-0.00011811,0.00284
 079,0.00019662,-0.00108114,0.00061576,-0.00110187,0.00048733,0.0013096
 6,0.00028378,-0.00056788,-0.00080303,0.00134116,-0.00065756,0.00007647
 ,0.00031339,-0.00017375,-0.00012079,0.00002872,-0.00005810,-0.00015166
 ,-0.00013576,0.00039288,-0.00048841,-0.00010742,-0.00020294,0.00072480
 ,-0.00059057,0.00066690,0.00140236,0.03504270,-0.01692173,-0.05920056,
 0.02829927,-0.03597134,-0.13627601,0.07908339,-0.06671439,-0.16698742,
 -0.03339055,0.04504018,0.01298104,-0.04255366,0.00655538,-0.00485009,0
 .00018198,0.00020142,0.00332420,-0.00402747,0.00396035,0.35873797,0.00
 055191,0.00117168,0.00010490,-0.00048242,-0.00170258,-0.00210311,0.001
 91815,-0.00063715,0.00462216,-0.00086751,0.00054071,0.00016978,0.00010
 525,0.00014515,0.00006426,-0.00208547,-0.00103306,-0.00006223,0.000298
 98,-0.00013658,0.00007177,-0.00443193,-0.01128849,0.01065170,0.0008498
 9,0.00061578,-0.00073669,-0.00021909,-0.00003674,0.00010386,-0.0008189
 9,-0.00026794,0.00028803,-0.00052319,0.00049209,-0.00047695,-0.0003002
 2,-0.00013660,0.00011267,0.00071700,-0.00032539,0.00049781,0.00005283,
 -0.00012636,0.00009417,0.00005852,-0.00003102,0.00009448,0.00000927,0.
 00007532,-0.00010809,0.00019571,0.00012604,0.00016115,-0.00076674,-0.0
 0028770,-0.00052089,0.01903413,-0.00972180,-0.00196079,0.02063435,-0.0
 0896779,0.02288468,0.03331499,-0.02893082,0.00752103,0.02170696,0.0132
 0177,0.00294227,-0.02361902,0.01278338,-0.01607994,0.00120413,0.000181
 65,0.00118903,-0.00050769,0.00161539,-0.00083334,-0.07085837,0.0345953
 0,-0.00047949,-0.00049046,-0.00009748,0.00015368,0.00110196,0.00131314
 ,0.00003586,-0.00063116,-0.00368785,0.00065089,-0.00051434,-0.00004192
 ,-0.00007179,-0.00003212,0.00006608,0.00067127,0.00000775,0.00024312,-
 0.00011961,-0.00007137,-0.00002004,-0.00105096,-0.00046819,0.00036940,
 -0.00049335,-0.00036926,0.00027415,0.00005509,0.00000942,0.00000897,0.
 00060025,0.00001173,-0.00017356,0.00007598,-0.00016520,0.00005541,0.00
 018189,0.00004999,-0.00006448,-0.00009982,0.00026035,-0.00003757,0.000
 01219,0.00004020,-0.00002925,-0.00001458,0.00001270,0.00000545,-0.0000
 4217,-0.00001972,0.00008304,-0.00010568,-0.00005539,-0.00010100,0.0000
 6892,-0.00015322,0.00002956,0.00143297,0.01483139,-0.00104727,-0.03876
 048,0.02412969,-0.00870071,-0.01984379,0.00905478,-0.07546024,-0.00945
 108,-0.01742617,0.01632698,0.00534332,0.00698485,0.00989479,-0.0018260
 1,-0.00095867,-0.00173699,0.00038968,-0.00313821,-0.00013844,0.0633892
 1,-0.03084166,0.06246309,-0.00138358,-0.00374426,0.00278307,0.00164437
 ,0.00112397,0.00444218,-0.01579406,-0.00397568,-0.00487658,0.00087956,
 0.00158723,-0.00156010,-0.00059033,-0.00104244,-0.00079235,0.00558540,
 0.01028258,-0.00491028,0.00111832,-0.00015703,-0.00079843,0.01787595,-
 0.02266424,0.01495762,-0.00015414,-0.00173187,0.00369230,-0.00155658,0
 .00279834,-0.00140459,-0.00133519,0.00312352,-0.00155721,0.00306047,-0
 .00323193,0.00383823,0.00056306,0.00039508,-0.00062852,-0.00984485,-0.
 00348477,-0.00622775,-0.00064491,0.00068554,-0.00054484,-0.00028486,0.
 00020260,-0.00091907,0.00069274,-0.00042433,-0.00037579,-0.00036440,-0
 .00079465,-0.00034913,0.00534525,0.00465406,0.00349732,-0.01785588,0.0
 0524682,0.00049126,0.00347318,-0.01050021,0.00864194,0.03460981,0.0073
 5306,-0.01309739,-0.11132158,-0.02939185,0.02007193,-0.40649200,-0.223
 06766,0.17338250,-0.00146666,-0.00054039,0.00026519,0.00093950,-0.0013
 3297,-0.00008068,-0.01588802,0.00482854,-0.00070239,0.50918944,0.00022
 425,-0.00117382,-0.00028442,-0.00066393,-0.00119346,0.00026866,-0.0081
 8433,-0.00220164,-0.00500085,0.00165337,-0.00018000,0.00024493,0.00089
 503,-0.00068241,0.00069122,0.00264112,0.00417774,0.00125351,0.00025136
 ,0.00060180,-0.00005825,-0.03936088,-0.04573105,0.05164281,-0.00105584
 ,-0.00071105,0.00050120,0.00190960,-0.00104257,-0.00043077,0.00026164,
 0.00113189,-0.00012182,0.00215748,-0.00382313,0.00362304,0.00014271,0.
 00031458,-0.00016112,-0.00937050,-0.00102213,-0.00513047,-0.00066039,0
 .00058717,-0.00056120,-0.00019991,0.00041035,-0.00072653,0.00005072,-0
 .00027319,-0.00001763,-0.00039010,-0.00057644,0.00003303,0.00694574,0.
 00313111,0.00303627,0.01416668,-0.00389309,0.00409609,-0.00357193,0.00
 047167,-0.00124794,-0.00303199,0.00679617,0.00445355,-0.01332642,0.016
 44516,-0.00095984,-0.21633650,-0.22043778,0.10802843,-0.00162911,-0.00
 140944,0.00097080,-0.00026041,0.00051527,-0.00025934,0.00293959,-0.001
 91424,-0.00115968,0.26380295,0.25168254,-0.00008410,0.00096877,-0.0012
 1374,-0.00097135,0.00003535,-0.00194303,0.00562778,-0.00333256,-0.0014
 1481,0.00066365,-0.00102804,0.00132875,0.00050392,0.00092762,0.0009501
 6,-0.00470263,0.00330153,-0.00469772,-0.00031866,-0.00006376,0.0001494
 7,0.03146223,0.05323995,-0.02206461,0.00293277,-0.00024794,-0.00093037
 ,-0.00089818,-0.00074110,0.00056955,0.00059614,-0.00087178,0.00068094,
 0.00001774,-0.00032171,0.00036746,-0.00029790,0.00012284,0.00028700,-0
 .00083570,-0.00062703,0.00099721,-0.00016799,-0.00009368,-0.00010018,0
 .00002730,0.00018942,0.00012792,-0.00032853,0.00016919,0.00007020,-0.0
 0001681,0.00007820,0.00005565,-0.00154111,-0.00092362,-0.00343449,-0.0
 1521732,0.00508862,0.00305519,0.00706980,-0.00226568,0.00024995,-0.010
 45077,-0.00494122,0.00626903,0.00868426,0.00504960,0.01414100,0.170639
 18,0.10699140,-0.15894606,0.00122767,0.00062132,-0.00134682,0.00011048
 ,-0.00075200,-0.00071756,0.00350655,0.00214994,0.00020360,-0.19723844,
 -0.16272365,0.16730630\\-0.00001176,-0.00001596,-0.00000291,-0.0000119
 8,0.00001585,-0.00001607,0.00001521,0.00000483,0.00001841,0.00000872,-
 0.00000734,0.00000962,0.00001342,-0.00000369,-0.00000117,-0.00004891,-
 0.00000617,0.00000460,-0.00000115,-0.00000560,-0.00000162,0.00001446,0
 .00000324,-0.00002765,0.00004774,-0.00000749,-0.00000414,-0.00000143,0
 .00000567,0.00000102,-0.00000688,-0.00000222,0.00001151,0.00000027,0.0
 0000578,0.00000475,-0.00000387,0.00000070,-0.00000575,-0.00001260,-0.0
 0000089,0.00000872,-0.00000618,0.00000205,-0.00000193,0.00000136,0.000
 00045,-0.00000177,-0.00000314,-0.00000324,-0.00000900,-0.00000022,-0.0
 0000294,-0.00000745,0.00001471,0.00000224,-0.00000368,0.00002460,0.000
 01264,0.00001514,-0.00003184,0.00000602,-0.00000686,0.00001868,0.00000
 227,-0.00000474,0.00006628,-0.00001401,0.00001706,-0.00010775,-0.00000
 441,0.00001049,-0.00000101,0.00000039,-0.00000216,0.00000207,-0.000003
 76,0.00000684,0.00001363,-0.00000341,0.00000312,0.00000756,0.00001898,
 -0.00001438\\\@
 The archive entry for this job was punched.


 At the touch of love, everyone becomes a poet.
                                -- Plato
 Job cpu time:       0 days 17 hours 25 minutes 16.9 seconds.
 Elapsed time:       0 days  0 hours 26 minutes 21.6 seconds.
 File lengths (MBytes):  RWF=   1167 Int=      0 D2E=      0 Chk=     28 Scr=      1
 Normal termination of Gaussian 16 at Sat Oct 26 20:42:55 2024.
