 Entering Gaussian System, Link 0=g16
 Input=UridineNarrgPBE0aVDZ.gjf
 Output=UridineNarrgPBE0aVDZ.log
 Initial command:
 /sw/contrib/chem-src/g16/c01/g16/l1.exe "/scr/Gau-49910.inp" -scrdir="/scr/"
 Entering Link 1 = /sw/contrib/chem-src/g16/c01/g16/l1.exe PID=     49911.
  
 Copyright (c) 1988-2019, Gaussian, Inc.  All Rights Reserved.
  
 This is part of the Gaussian(R) 16 program.  It is based on
 the Gaussian(R) 09 system (copyright 2009, Gaussian, Inc.),
 the Gaussian(R) 03 system (copyright 2003, Gaussian, Inc.),
 the Gaussian(R) 98 system (copyright 1998, Gaussian, Inc.),
 the Gaussian(R) 94 system (copyright 1995, Gaussian, Inc.),
 the Gaussian 92(TM) system (copyright 1992, Gaussian, Inc.),
 the Gaussian 90(TM) system (copyright 1990, Gaussian, Inc.),
 the Gaussian 88(TM) system (copyright 1988, Gaussian, Inc.),
 the Gaussian 86(TM) system (copyright 1986, Carnegie Mellon
 University), and the Gaussian 82(TM) system (copyright 1983,
 Carnegie Mellon University). Gaussian is a federally registered
 trademark of Gaussian, Inc.
  
 This software contains proprietary and confidential information,
 including trade secrets, belonging to Gaussian, Inc.
  
 This software is provided under written license and may be
 used, copied, transmitted, or stored only in accord with that
 written license.
  
 The following legend is applicable only to US Government
 contracts under FAR:
  
                    RESTRICTED RIGHTS LEGEND
  
 Use, reproduction and disclosure by the US Government is
 subject to restrictions as set forth in subparagraphs (a)
 and (c) of the Commercial Computer Software - Restricted
 Rights clause in FAR 52.227-19.
  
 Gaussian, Inc.
 340 Quinnipiac St., Bldg. 40, Wallingford CT 06492
  
  
 ---------------------------------------------------------------
 Warning -- This program may not be used in any manner that
 competes with the business of Gaussian, Inc. or will provide
 assistance to any competitor of Gaussian, Inc.  The licensee
 of this program is prohibited from giving any competitor of
 Gaussian, Inc. access to this program.  By using this program,
 the user acknowledges that Gaussian, Inc. is engaged in the
 business of creating and licensing software in the field of
 computational chemistry and represents and warrants to the
 licensee that it is not a competitor of Gaussian, Inc. and that
 it will not use this program in any manner prohibited above.
 ---------------------------------------------------------------
  

 Cite this work as:
 Gaussian 16, Revision C.01,
 M. J. Frisch, G. W. Trucks, H. B. Schlegel, G. E. Scuseria, 
 M. A. Robb, J. R. Cheeseman, G. Scalmani, V. Barone, 
 G. A. Petersson, H. Nakatsuji, X. Li, M. Caricato, A. V. Marenich, 
 J. Bloino, B. G. Janesko, R. Gomperts, B. Mennucci, H. P. Hratchian, 
 J. V. Ortiz, A. F. Izmaylov, J. L. Sonnenberg, D. Williams-Young, 
 F. Ding, F. Lipparini, F. Egidi, J. Goings, B. Peng, A. Petrone, 
 T. Henderson, D. Ranasinghe, V. G. Zakrzewski, J. Gao, N. Rega, 
 G. Zheng, W. Liang, M. Hada, M. Ehara, K. Toyota, R. Fukuda, 
 J. Hasegawa, M. Ishida, T. Nakajima, Y. Honda, O. Kitao, H. Nakai, 
 T. Vreven, K. Throssell, J. A. Montgomery, Jr., J. E. Peralta, 
 F. Ogliaro, M. J. Bearpark, J. J. Heyd, E. N. Brothers, K. N. Kudin, 
 V. N. Staroverov, T. A. Keith, R. Kobayashi, J. Normand, 
 K. Raghavachari, A. P. Rendell, J. C. Burant, S. S. Iyengar, 
 J. Tomasi, M. Cossi, J. M. Millam, M. Klene, C. Adamo, R. Cammi, 
 J. W. Ochterski, R. L. Martin, K. Morokuma, O. Farkas, 
 J. B. Foresman, and D. J. Fox, Gaussian, Inc., Wallingford CT, 2019.
 
 ******************************************
 Gaussian 16:  EM64L-G16RevC.01  3-Jul-2019
                17-Oct-2024 
 ******************************************
 %nprocshared=40
 Will use up to   40 processors via shared memory.
 %mem=50gb
 ------------------------------------------------------
 # PBE1PBE/aug-cc-pVDZ opt freq EmpiricalDispersion=GD3
 ------------------------------------------------------
 1/18=20,19=15,26=3,38=1/1,3;
 2/9=110,12=2,17=6,18=5,40=1/2;
 3/5=16,7=10,11=2,25=1,30=1,71=1,74=-13,124=31/1,2,3;
 4//1;
 5/5=2,38=5/2;
 6/7=2,8=2,9=2,10=2,28=1/1;
 7//1,2,3,16;
 1/18=20,19=15,26=3/3(2);
 2/9=110/2;
 99//99;
 2/9=110/2;
 3/5=16,7=10,11=2,25=1,30=1,71=1,74=-13,124=31/1,2,3;
 4/5=5,16=3,69=1/1;
 5/5=2,38=5/2;
 7//1,2,3,16;
 1/18=20,19=15,26=3/3(-5);
 2/9=110/2;
 6/7=2,8=2,9=2,10=2,19=2,28=1/1;
 99/9=1/99;
 ----
 blah
 ----
 Symbolic Z-matrix:
 Charge =  0 Multiplicity = 1
 C                    -3.24933  -1.78624   0.72701 
 C                    -2.21372  -1.54335  -0.35869 
 C                    -1.75097  -0.09814  -0.10472 
 O                    -2.83714  -1.64945  -1.65216 
 H                    -1.40104  -2.27574  -0.34035 
 O                    -2.65685   0.51145   0.83354 
 H                    -1.84576   0.48572  -1.02892 
 N                    -0.3789    0.03592   0.39095 
 C                    -3.7792   -0.37885   0.98692 
 H                    -2.76085  -2.22293   1.60251 
 O                    -4.2568   -2.69096   0.27155 
 C                    -4.38652  -0.19218   2.3767 
 H                    -4.52888  -0.09694   0.2368 
 O                    -3.53843  -0.69425   3.40615 
 H                    -5.34074  -0.72232   2.45117 
 H                    -4.55894   0.8691    2.58172 
 H                    -4.76957  -2.95436   1.0594 
 H                    -3.53525  -2.32994  -1.53546 
 H                    -2.61769  -0.42662   3.19084 
 C                     0.58557   0.5607   -0.45043 
 C                     1.8586    0.69809  -0.07422 
 C                     2.24874   0.27397   1.27781 
 N                     1.24754  -0.24236   2.04603 
 C                    -0.06297  -0.39306   1.67304 
 H                     0.27181   0.86583  -1.44551 
 H                     2.62795   1.10804  -0.7146 
 H                     1.4927   -0.54154   2.97682 
 O                     3.40526   0.3798    1.66615 
 O                    -0.86708  -0.88816   2.46075 
 

 GradGradGradGradGradGradGradGradGradGradGradGradGradGradGradGradGradGrad
 Berny optimization.
 Initialization pass.
                           ----------------------------
                           !    Initial Parameters    !
                           ! (Angstroms and Degrees)  !
 --------------------------                            --------------------------
 ! Name  Definition              Value          Derivative Info.                !
 --------------------------------------------------------------------------------
 ! R1    R(1,2)                  1.5199         estimate D2E/DX2                !
 ! R2    R(1,9)                  1.5261         estimate D2E/DX2                !
 ! R3    R(1,10)                 1.0935         estimate D2E/DX2                !
 ! R4    R(1,11)                 1.4286         estimate D2E/DX2                !
 ! R5    R(2,3)                  1.5386         estimate D2E/DX2                !
 ! R6    R(2,4)                  1.4398         estimate D2E/DX2                !
 ! R7    R(2,5)                  1.0942         estimate D2E/DX2                !
 ! R8    R(3,6)                  1.4396         estimate D2E/DX2                !
 ! R9    R(3,7)                  1.0973         estimate D2E/DX2                !
 ! R10   R(3,8)                  1.465          estimate D2E/DX2                !
 ! R11   R(4,18)                 0.9819         estimate D2E/DX2                !
 ! R12   R(6,9)                  1.4408         estimate D2E/DX2                !
 ! R13   R(8,20)                 1.3833         estimate D2E/DX2                !
 ! R14   R(8,24)                 1.3884         estimate D2E/DX2                !
 ! R15   R(9,12)                 1.5281         estimate D2E/DX2                !
 ! R16   R(9,13)                 1.0974         estimate D2E/DX2                !
 ! R17   R(11,17)                0.9762         estimate D2E/DX2                !
 ! R18   R(12,14)                1.4252         estimate D2E/DX2                !
 ! R19   R(12,15)                1.0941         estimate D2E/DX2                !
 ! R20   R(12,16)                1.0946         estimate D2E/DX2                !
 ! R21   R(14,19)                0.9827         estimate D2E/DX2                !
 ! R22   R(20,21)                1.3345         estimate D2E/DX2                !
 ! R23   R(20,25)                1.0871         estimate D2E/DX2                !
 ! R24   R(21,22)                1.4697         estimate D2E/DX2                !
 ! R25   R(21,26)                1.0817         estimate D2E/DX2                !
 ! R26   R(22,23)                1.3635         estimate D2E/DX2                !
 ! R27   R(22,28)                1.2246         estimate D2E/DX2                !
 ! R28   R(23,24)                1.3709         estimate D2E/DX2                !
 ! R29   R(23,27)                1.008          estimate D2E/DX2                !
 ! R30   R(24,29)                1.2297         estimate D2E/DX2                !
 ! A1    A(2,1,9)              102.1717         estimate D2E/DX2                !
 ! A2    A(2,1,10)             109.3507         estimate D2E/DX2                !
 ! A3    A(2,1,11)             110.7295         estimate D2E/DX2                !
 ! A4    A(9,1,10)             112.7688         estimate D2E/DX2                !
 ! A5    A(9,1,11)             113.1702         estimate D2E/DX2                !
 ! A6    A(10,1,11)            108.5035         estimate D2E/DX2                !
 ! A7    A(1,2,3)              103.7165         estimate D2E/DX2                !
 ! A8    A(1,2,4)              109.5677         estimate D2E/DX2                !
 ! A9    A(1,2,5)              112.7754         estimate D2E/DX2                !
 ! A10   A(3,2,4)              110.3495         estimate D2E/DX2                !
 ! A11   A(3,2,5)              113.7394         estimate D2E/DX2                !
 ! A12   A(4,2,5)              106.6989         estimate D2E/DX2                !
 ! A13   A(2,3,6)              108.4249         estimate D2E/DX2                !
 ! A14   A(2,3,7)              109.5595         estimate D2E/DX2                !
 ! A15   A(2,3,8)              115.0551         estimate D2E/DX2                !
 ! A16   A(6,3,7)              105.621          estimate D2E/DX2                !
 ! A17   A(6,3,8)              109.273          estimate D2E/DX2                !
 ! A18   A(7,3,8)              108.4926         estimate D2E/DX2                !
 ! A19   A(2,4,18)             104.6055         estimate D2E/DX2                !
 ! A20   A(3,6,9)              107.3319         estimate D2E/DX2                !
 ! A21   A(3,8,20)             118.8108         estimate D2E/DX2                !
 ! A22   A(3,8,24)             119.8203         estimate D2E/DX2                !
 ! A23   A(20,8,24)            121.3483         estimate D2E/DX2                !
 ! A24   A(1,9,6)              106.3354         estimate D2E/DX2                !
 ! A25   A(1,9,12)             113.924          estimate D2E/DX2                !
 ! A26   A(1,9,13)             110.9581         estimate D2E/DX2                !
 ! A27   A(6,9,12)             109.3258         estimate D2E/DX2                !
 ! A28   A(6,9,13)             107.4978         estimate D2E/DX2                !
 ! A29   A(12,9,13)            108.5899         estimate D2E/DX2                !
 ! A30   A(1,11,17)            106.4987         estimate D2E/DX2                !
 ! A31   A(9,12,14)            112.1727         estimate D2E/DX2                !
 ! A32   A(9,12,15)            110.4463         estimate D2E/DX2                !
 ! A33   A(9,12,16)            110.5721         estimate D2E/DX2                !
 ! A34   A(14,12,15)           107.4055         estimate D2E/DX2                !
 ! A35   A(14,12,16)           107.4581         estimate D2E/DX2                !
 ! A36   A(15,12,16)           108.643          estimate D2E/DX2                !
 ! A37   A(12,14,19)           107.6594         estimate D2E/DX2                !
 ! A38   A(8,20,21)            122.1865         estimate D2E/DX2                !
 ! A39   A(8,20,25)            117.5172         estimate D2E/DX2                !
 ! A40   A(21,20,25)           120.2962         estimate D2E/DX2                !
 ! A41   A(20,21,22)           118.8708         estimate D2E/DX2                !
 ! A42   A(20,21,26)           123.4076         estimate D2E/DX2                !
 ! A43   A(22,21,26)           117.7216         estimate D2E/DX2                !
 ! A44   A(21,22,23)           115.6362         estimate D2E/DX2                !
 ! A45   A(21,22,28)           121.165          estimate D2E/DX2                !
 ! A46   A(23,22,28)           123.1977         estimate D2E/DX2                !
 ! A47   A(22,23,24)           126.177          estimate D2E/DX2                !
 ! A48   A(22,23,27)           117.006          estimate D2E/DX2                !
 ! A49   A(24,23,27)           116.817          estimate D2E/DX2                !
 ! A50   A(8,24,23)            115.7743         estimate D2E/DX2                !
 ! A51   A(8,24,29)            124.5502         estimate D2E/DX2                !
 ! A52   A(23,24,29)           119.6748         estimate D2E/DX2                !
 ! D1    D(9,1,2,3)             27.8165         estimate D2E/DX2                !
 ! D2    D(9,1,2,4)            -90.0007         estimate D2E/DX2                !
 ! D3    D(9,1,2,5)            151.3151         estimate D2E/DX2                !
 ! D4    D(10,1,2,3)           -91.8774         estimate D2E/DX2                !
 ! D5    D(10,1,2,4)           150.3054         estimate D2E/DX2                !
 ! D6    D(10,1,2,5)            31.6212         estimate D2E/DX2                !
 ! D7    D(11,1,2,3)           148.6138         estimate D2E/DX2                !
 ! D8    D(11,1,2,4)            30.7966         estimate D2E/DX2                !
 ! D9    D(11,1,2,5)           -87.8875         estimate D2E/DX2                !
 ! D10   D(2,1,9,6)            -35.377          estimate D2E/DX2                !
 ! D11   D(2,1,9,12)          -155.8614         estimate D2E/DX2                !
 ! D12   D(2,1,9,13)            81.224          estimate D2E/DX2                !
 ! D13   D(10,1,9,6)            81.8904         estimate D2E/DX2                !
 ! D14   D(10,1,9,12)          -38.5939         estimate D2E/DX2                !
 ! D15   D(10,1,9,13)         -161.5085         estimate D2E/DX2                !
 ! D16   D(11,1,9,6)          -154.4667         estimate D2E/DX2                !
 ! D17   D(11,1,9,12)           85.049          estimate D2E/DX2                !
 ! D18   D(11,1,9,13)          -37.8657         estimate D2E/DX2                !
 ! D19   D(2,1,11,17)          167.9358         estimate D2E/DX2                !
 ! D20   D(9,1,11,17)          -78.0358         estimate D2E/DX2                !
 ! D21   D(10,1,11,17)          47.919          estimate D2E/DX2                !
 ! D22   D(1,2,3,6)            -11.9985         estimate D2E/DX2                !
 ! D23   D(1,2,3,7)           -126.8055         estimate D2E/DX2                !
 ! D24   D(1,2,3,8)            110.67           estimate D2E/DX2                !
 ! D25   D(4,2,3,6)            105.2744         estimate D2E/DX2                !
 ! D26   D(4,2,3,7)             -9.5326         estimate D2E/DX2                !
 ! D27   D(4,2,3,8)           -132.0571         estimate D2E/DX2                !
 ! D28   D(5,2,3,6)           -134.8635         estimate D2E/DX2                !
 ! D29   D(5,2,3,7)            110.3295         estimate D2E/DX2                !
 ! D30   D(5,2,3,8)            -12.195          estimate D2E/DX2                !
 ! D31   D(1,2,4,18)           -33.0168         estimate D2E/DX2                !
 ! D32   D(3,2,4,18)          -146.6098         estimate D2E/DX2                !
 ! D33   D(5,2,4,18)            89.3657         estimate D2E/DX2                !
 ! D34   D(2,3,6,9)            -10.2168         estimate D2E/DX2                !
 ! D35   D(7,3,6,9)            107.1415         estimate D2E/DX2                !
 ! D36   D(8,3,6,9)           -136.3284         estimate D2E/DX2                !
 ! D37   D(2,3,8,20)           109.2387         estimate D2E/DX2                !
 ! D38   D(2,3,8,24)           -69.1334         estimate D2E/DX2                !
 ! D39   D(6,3,8,20)          -128.5483         estimate D2E/DX2                !
 ! D40   D(6,3,8,24)            53.0795         estimate D2E/DX2                !
 ! D41   D(7,3,8,20)           -13.8564         estimate D2E/DX2                !
 ! D42   D(7,3,8,24)           167.7714         estimate D2E/DX2                !
 ! D43   D(3,6,9,1)             28.6703         estimate D2E/DX2                !
 ! D44   D(3,6,9,12)           152.0789         estimate D2E/DX2                !
 ! D45   D(3,6,9,13)           -90.2252         estimate D2E/DX2                !
 ! D46   D(3,8,20,21)         -179.1943         estimate D2E/DX2                !
 ! D47   D(3,8,20,25)            0.914          estimate D2E/DX2                !
 ! D48   D(24,8,20,21)          -0.8479         estimate D2E/DX2                !
 ! D49   D(24,8,20,25)         179.2603         estimate D2E/DX2                !
 ! D50   D(3,8,24,23)          179.288          estimate D2E/DX2                !
 ! D51   D(3,8,24,29)           -0.41           estimate D2E/DX2                !
 ! D52   D(20,8,24,23)           0.9581         estimate D2E/DX2                !
 ! D53   D(20,8,24,29)        -178.7399         estimate D2E/DX2                !
 ! D54   D(1,9,12,14)           48.4446         estimate D2E/DX2                !
 ! D55   D(1,9,12,15)          -71.3356         estimate D2E/DX2                !
 ! D56   D(1,9,12,16)          168.3777         estimate D2E/DX2                !
 ! D57   D(6,9,12,14)          -70.3489         estimate D2E/DX2                !
 ! D58   D(6,9,12,15)          169.8709         estimate D2E/DX2                !
 ! D59   D(6,9,12,16)           49.5842         estimate D2E/DX2                !
 ! D60   D(13,9,12,14)         172.643          estimate D2E/DX2                !
 ! D61   D(13,9,12,15)          52.8628         estimate D2E/DX2                !
 ! D62   D(13,9,12,16)         -67.4239         estimate D2E/DX2                !
 ! D63   D(9,12,14,19)          42.282          estimate D2E/DX2                !
 ! D64   D(15,12,14,19)        163.8213         estimate D2E/DX2                !
 ! D65   D(16,12,14,19)        -79.4494         estimate D2E/DX2                !
 ! D66   D(8,20,21,22)           0.1771         estimate D2E/DX2                !
 ! D67   D(8,20,21,26)        -179.8347         estimate D2E/DX2                !
 ! D68   D(25,20,21,22)       -179.9341         estimate D2E/DX2                !
 ! D69   D(25,20,21,26)          0.054          estimate D2E/DX2                !
 ! D70   D(20,21,22,23)          0.3045         estimate D2E/DX2                !
 ! D71   D(20,21,22,28)        179.9285         estimate D2E/DX2                !
 ! D72   D(26,21,22,23)       -179.6843         estimate D2E/DX2                !
 ! D73   D(26,21,22,28)         -0.0604         estimate D2E/DX2                !
 ! D74   D(21,22,23,24)         -0.1486         estimate D2E/DX2                !
 ! D75   D(21,22,23,27)        179.8879         estimate D2E/DX2                !
 ! D76   D(28,22,23,24)       -179.764          estimate D2E/DX2                !
 ! D77   D(28,22,23,27)          0.2724         estimate D2E/DX2                !
 ! D78   D(22,23,24,8)          -0.4683         estimate D2E/DX2                !
 ! D79   D(22,23,24,29)        179.2454         estimate D2E/DX2                !
 ! D80   D(27,23,24,8)         179.4954         estimate D2E/DX2                !
 ! D81   D(27,23,24,29)         -0.7909         estimate D2E/DX2                !
 --------------------------------------------------------------------------------
 Trust Radius=3.00D-01 FncErr=1.00D-07 GrdErr=1.00D-06 EigMax=2.50D+02 EigMin=1.00D-04
 Number of steps in this run=    173 maximum allowed number of steps=    174.
 GradGradGradGradGradGradGradGradGradGradGradGradGradGradGradGradGradGrad

                          Input orientation:                          
 ---------------------------------------------------------------------
 Center     Atomic      Atomic             Coordinates (Angstroms)
 Number     Number       Type             X           Y           Z
 ---------------------------------------------------------------------
      1          6           0       -3.249327   -1.786242    0.727011
      2          6           0       -2.213724   -1.543349   -0.358694
      3          6           0       -1.750972   -0.098140   -0.104719
      4          8           0       -2.837143   -1.649453   -1.652158
      5          1           0       -1.401042   -2.275740   -0.340346
      6          8           0       -2.656849    0.511448    0.833537
      7          1           0       -1.845755    0.485715   -1.028920
      8          7           0       -0.378897    0.035923    0.390953
      9          6           0       -3.779195   -0.378846    0.986924
     10          1           0       -2.760852   -2.222934    1.602508
     11          8           0       -4.256797   -2.690963    0.271548
     12          6           0       -4.386524   -0.192183    2.376699
     13          1           0       -4.528880   -0.096941    0.236797
     14          8           0       -3.538428   -0.694245    3.406146
     15          1           0       -5.340737   -0.722316    2.451171
     16          1           0       -4.558936    0.869104    2.581717
     17          1           0       -4.769574   -2.954364    1.059399
     18          1           0       -3.535250   -2.329937   -1.535458
     19          1           0       -2.617692   -0.426624    3.190839
     20          6           0        0.585572    0.560697   -0.450427
     21          6           0        1.858601    0.698088   -0.074218
     22          6           0        2.248742    0.273970    1.277805
     23          7           0        1.247538   -0.242361    2.046031
     24          6           0       -0.062968   -0.393058    1.673036
     25          1           0        0.271809    0.865832   -1.445513
     26          1           0        2.627949    1.108037   -0.714596
     27          1           0        1.492696   -0.541538    2.976822
     28          8           0        3.405255    0.379801    1.666154
     29          8           0       -0.867075   -0.888158    2.460747
 ---------------------------------------------------------------------
                    Distance matrix (angstroms):
                    1          2          3          4          5
     1  C    0.000000
     2  C    1.519943   0.000000
     3  C    2.405521   1.538594   0.000000
     4  O    2.418481   1.439777   2.445589   0.000000
     5  H    2.189753   1.094160   2.218088   2.043397   0.000000
     6  O    2.375238   2.416602   1.439631   3.298587   3.274671
     7  H    3.196106   2.168341   1.097277   2.435204   2.880544
     8  N    3.416517   2.534297   1.465010   3.613553   2.631229
     9  C    1.526132   2.370117   2.320382   3.076793   3.318956
    10  H    1.093528   2.146508   2.906756   3.305684   2.372036
    11  O    1.428622   2.426596   3.625392   2.607835   2.949943
    12  C    2.560412   3.745541   3.621107   4.555864   4.542758
    13  H    2.175155   2.794038   2.798822   2.973284   3.855338
    14  O    2.907542   4.080421   3.984535   5.195253   4.594100
    15  H    2.911815   4.283416   4.450684   4.895394   5.072169
    16  H    3.493690   4.468329   4.004643   5.218563   5.329240
    17  H    1.945801   3.245662   4.315686   3.576258   3.710368
    18  H    2.344381   1.936473   3.195557   0.981851   2.446646
    19  H    2.884090   3.742920   3.423421   4.999809   4.167582
    20  C    4.647680   3.503068   2.452145   4.247811   3.464697
    21  C    5.736270   4.657124   3.696475   5.481866   4.420379
    22  C    5.897170   5.088653   4.248241   6.176606   4.737125
    23  N    4.934083   4.410851   3.692910   5.686926   4.104193
    24  C    3.603998   3.174405   2.469159   4.509045   3.064088
    25  H    4.914443   3.628112   2.611247   4.004365   3.726834
    26  H    6.708014   5.531574   4.582768   6.192738   5.274730
    27  H    5.394230   5.085945   4.495984   6.434472   4.731255
    28  O    7.060963   6.274667   5.472759   7.355039   5.846232
    29  O    3.080181   3.192489   2.826131   4.623497   3.171219
                    6          7          8          9         10
     6  O    0.000000
     7  H    2.031572   0.000000
     8  N    2.368770   2.090461   0.000000
     9  C    1.440768   2.923916   3.476959   0.000000
    10  H    2.842354   3.885691   3.499144   2.194682   0.000000
    11  O    3.623686   4.194713   4.742180   2.466931   2.056296
    12  C    2.422441   4.302707   4.478425   1.528125   2.714062
    13  H    2.056875   3.023356   4.154970   1.097354   3.083980
    14  O    2.974759   4.891550   4.427999   2.451547   2.488900
    15  H    3.367814   5.077920   5.425798   2.168042   3.102885
    16  H    2.608061   4.532664   4.792324   2.169963   3.708457
    17  H    4.065276   4.974328   5.354127   2.760325   2.205656
    18  H    3.802262   3.322480   4.389866   3.198230   3.233879
    19  H    2.537397   4.385729   3.614625   2.491709   2.402087
    20  C    3.487733   2.500325   1.383296   4.690406   4.812660
    21  C    4.609571   3.831294   2.379337   5.836999   5.716916
    22  C    4.931389   4.704331   2.783462   6.070158   5.606781
    23  N    4.157235   4.421977   2.337095   5.138909   4.492947
    24  C    2.872474   3.354272   1.388370   3.779060   3.260674
    25  H    3.727827   2.191373   2.117729   4.886369   5.294142
    26  H    5.539109   4.527706   3.378282   6.793931   6.745629
    27  H    4.787606   5.314741   3.243923   5.637286   4.775824
    28  O    6.120433   5.903198   4.008016   7.256255   6.693217
    29  O    2.794638   3.875967   2.318683   3.303331   2.470747
                   11         12         13         14         15
    11  O    0.000000
    12  C    3.269921   0.000000
    13  H    2.608483   2.146745   0.000000
    14  O    3.785318   1.425165   3.373802   0.000000
    15  H    3.130695   1.094125   2.440012   2.039873   0.000000
    16  H    4.254673   1.094572   2.536296   2.040877   1.777884
    17  H    0.976232   3.084096   2.983198   3.482969   2.691709
    18  H    1.978950   4.538682   3.019016   5.205281   4.662343
    19  H    4.041801   1.961264   3.533793   0.982718   2.837167
    20  C    5.877335   5.768986   5.202151   5.784065   6.722093
    21  C    7.000236   6.767656   6.444277   6.571107   7.760516
    22  C    7.219793   6.741782   6.867127   6.241684   7.744003
    23  N    6.280297   5.643980   6.054871   4.995957   6.618147
    24  C    4.983245   4.385046   4.700514   3.895280   5.344974
    25  H    6.008939   6.117905   5.177230   6.363202   7.014773
    26  H    7.924936   7.774928   7.319653   7.632362   8.767682
    27  H    6.707845   5.920086   6.630593   5.051717   6.856004
    28  O    8.371473   7.844990   8.075942   7.238501   8.850045
    29  O    4.419605   3.588588   4.356695   2.840336   4.476745
                   16         17         18         19         20
    16  H    0.000000
    17  H    4.120768   0.000000
    18  H    5.313467   2.940535   0.000000
    19  H    2.412129   3.945010   5.177104   0.000000
    20  C    5.979546   6.581247   5.149198   4.949194   0.000000
    21  C    6.947519   7.652333   6.355926   5.653563   1.334546
    22  C    6.956929   7.728299   6.938973   5.275672   2.415602
    23  N    5.936114   6.673383   6.329305   4.035411   2.704700
    24  C    4.757361   5.393419   5.109078   2.971778   2.416474
    25  H    6.289252   6.803236   4.971391   5.613859   1.087084
    26  H    7.910379   8.624008   7.104823   6.717467   2.130885
    27  H    6.226416   6.979560   6.988511   4.117559   3.712658
    28  O    8.031564   8.849443   8.109477   6.265052   3.530333
    29  O    4.090530   4.632761   5.016726   1.952103   3.561502
                   21         22         23         24         25
    21  C    0.000000
    22  C    1.469712   0.000000
    23  N    2.398603   1.363517   0.000000
    24  C    2.817077   2.438266   1.370861   0.000000
    25  H    2.103925   3.416874   3.790912   3.379679   0.000000
    26  H    1.081683   2.192972   3.369001   3.898091   2.478770
    27  H    3.313518   2.030595   1.007959   2.035189   4.798781
    28  O    2.349966   1.224556   2.277529   3.553299   4.442655
    29  O    4.046176   3.529620   2.249585   1.229716   4.430847
                   26         27         28         29
    26  H    0.000000
    27  H    4.199579   0.000000
    28  O    2.608160   2.494915   0.000000
    29  O    5.126675   2.440286   4.526799   0.000000
 Stoichiometry    C9H12N2O6
 Framework group  C1[X(C9H12N2O6)]
 Deg. of freedom    81
 Full point group                 C1      NOp   1
 Largest Abelian subgroup         C1      NOp   1
 Largest concise Abelian subgroup C1      NOp   1
                         Standard orientation:                         
 ---------------------------------------------------------------------
 Center     Atomic      Atomic             Coordinates (Angstroms)
 Number     Number       Type             X           Y           Z
 ---------------------------------------------------------------------
      1          6           0       -2.177365    0.264521   -0.685678
      2          6           0       -1.136440    1.363394   -0.547189
      3          6           0       -0.307003    0.928474    0.673528
      4          8           0       -1.791932    2.618356   -0.285737
      5          1           0       -0.543234    1.501894   -1.456095
      6          8           0       -1.002907   -0.142108    1.338440
      7          1           0       -0.264549    1.749530    1.400222
      8          7           0        1.062145    0.502328    0.373383
      9          6           0       -2.315597   -0.230698    0.751238
     10          1           0       -1.802417   -0.506256   -1.364735
     11          8           0       -3.395274    0.786121   -1.220088
     12          6           0       -2.824807   -1.666954    0.865428
     13          1           0       -2.980542    0.423232    1.329519
     14          8           0       -2.116789   -2.558402    0.008033
     15          1           0       -3.882705   -1.720336    0.591360
     16          1           0       -2.709656   -2.035571    1.889611
     17          1           0       -3.943039    0.015933   -1.464614
     18          1           0       -2.641124    2.560830   -0.775221
     19          1           0       -1.162657   -2.329463    0.062375
     20          6           0        2.113038    1.314299    0.760468
     21          6           0        3.385059    0.999628    0.507571
     22          6           0        3.678031   -0.249422   -0.209433
     23          7           0        2.592415   -0.992626   -0.567573
     24          6           0        1.280815   -0.681439   -0.318318
     25          1           0        1.869888    2.233019    1.288279
     26          1           0        4.221706    1.618208    0.803238
     27          1           0        2.769616   -1.852886   -1.062078
     28          8           0        4.829607   -0.578488   -0.464627
     29          8           0        0.391346   -1.435087   -0.709550
 ---------------------------------------------------------------------
 Rotational constants (GHZ):           0.9112442           0.3089735           0.2623322
 Standard basis: Aug-CC-pVDZ (5D, 7F)
 There are   533 symmetry adapted cartesian basis functions of A   symmetry.
 There are   499 symmetry adapted basis functions of A   symmetry.
   499 basis functions,   863 primitive gaussians,   533 cartesian basis functions
    64 alpha electrons       64 beta electrons
       nuclear repulsion energy      1332.0463934132 Hartrees.
 NAtoms=   29 NActive=   29 NUniq=   29 SFac= 1.00D+00 NAtFMM=   60 NAOKFM=F Big=F
 Integral buffers will be    131072 words long.
 Raffenetti 2 integral format.
 Two-electron integral symmetry is turned on.
 Nuclear repulsion after empirical dispersion term =     1332.0259949626 Hartrees.
 One-electron integrals computed using PRISM.
 NBasis=   499 RedAO= T EigKep=  2.83D-06  NBF=   499
 NBsUse=   499 1.00D-06 EigRej= -1.00D+00 NBFU=   499
 ExpMin= 2.97D-02 ExpMax= 1.17D+04 ExpMxC= 4.01D+02 IAcc=3 IRadAn=         5 AccDes= 0.00D+00
 Harris functional with IExCor= 1009 and IRadAn=       5 diagonalized for initial guess.
 HarFok:  IExCor= 1009 AccDes= 0.00D+00 IRadAn=         5 IDoV= 1 UseB2=F ITyADJ=14
 ICtDFT=  3500011 ScaDFX=  1.000000  1.000000  1.000000  1.000000
 FoFCou: FMM=F IPFlag=           0 FMFlag=      100000 FMFlg1=           0
         NFxFlg=           0 DoJE=T BraDBF=F KetDBF=T FulRan=T
         wScrn=  0.000000 ICntrl=       500 IOpCl=  0 I1Cent=   200000004 NGrid=           0
         NMat0=    1 NMatS0=      1 NMatT0=    0 NMatD0=    1 NMtDS0=    0 NMtDT0=    0
 Petite list used in FoFCou.
 Requested convergence on RMS density matrix=1.00D-08 within 128 cycles.
 Requested convergence on MAX density matrix=1.00D-06.
 Requested convergence on             energy=1.00D-06.
 No special actions if energy rises.
 SCF Done:  E(RPBE1PBE) =  -910.207368587     A.U. after   14 cycles
            NFock= 14  Conv=0.37D-08     -V/T= 2.0055

 **********************************************************************

            Population analysis using the SCF Density.

 **********************************************************************

 Orbital symmetries:
       Occupied  (A) (A) (A) (A) (A) (A) (A) (A) (A) (A) (A) (A)
                 (A) (A) (A) (A) (A) (A) (A) (A) (A) (A) (A) (A)
                 (A) (A) (A) (A) (A) (A) (A) (A) (A) (A) (A) (A)
                 (A) (A) (A) (A) (A) (A) (A) (A) (A) (A) (A) (A)
                 (A) (A) (A) (A) (A) (A) (A) (A) (A) (A) (A) (A)
                 (A) (A) (A) (A)
       Virtual   (A) (A) (A) (A) (A) (A) (A) (A) (A) (A) (A) (A)
                 (A) (A) (A) (A) (A) (A) (A) (A) (A) (A) (A) (A)
                 (A) (A) (A) (A) (A) (A) (A) (A) (A) (A) (A) (A)
                 (A) (A) (A) (A) (A) (A) (A) (A) (A) (A) (A) (A)
                 (A) (A) (A) (A) (A) (A) (A) (A) (A) (A) (A) (A)
                 (A) (A) (A) (A) (A) (A) (A) (A) (A) (A) (A) (A)
                 (A) (A) (A) (A) (A) (A) (A) (A) (A) (A) (A) (A)
                 (A) (A) (A) (A) (A) (A) (A) (A) (A) (A) (A) (A)
                 (A) (A) (A) (A) (A) (A) (A) (A) (A) (A) (A) (A)
                 (A) (A) (A) (A) (A) (A) (A) (A) (A) (A) (A) (A)
                 (A) (A) (A) (A) (A) (A) (A) (A) (A) (A) (A) (A)
                 (A) (A) (A) (A) (A) (A) (A) (A) (A) (A) (A) (A)
                 (A) (A) (A) (A) (A) (A) (A) (A) (A) (A) (A) (A)
                 (A) (A) (A) (A) (A) (A) (A) (A) (A) (A) (A) (A)
                 (A) (A) (A) (A) (A) (A) (A) (A) (A) (A) (A) (A)
                 (A) (A) (A) (A) (A) (A) (A) (A) (A) (A) (A) (A)
                 (A) (A) (A) (A) (A) (A) (A) (A) (A) (A) (A) (A)
                 (A) (A) (A) (A) (A) (A) (A) (A) (A) (A) (A) (A)
                 (A) (A) (A) (A) (A) (A) (A) (A) (A) (A) (A) (A)
                 (A) (A) (A) (A) (A) (A) (A) (A) (A) (A) (A) (A)
                 (A) (A) (A) (A) (A) (A) (A) (A) (A) (A) (A) (A)
                 (A) (A) (A) (A) (A) (A) (A) (A) (A) (A) (A) (A)
                 (A) (A) (A) (A) (A) (A) (A) (A) (A) (A) (A) (A)
                 (A) (A) (A) (A) (A) (A) (A) (A) (A) (A) (A) (A)
                 (A) (A) (A) (A) (A) (A) (A) (A) (A) (A) (A) (A)
                 (A) (A) (A) (A) (A) (A) (A) (A) (A) (A) (A) (A)
                 (A) (A) (A) (A) (A) (A) (A) (A) (A) (A) (A) (A)
                 (A) (A) (A) (A) (A) (A) (A) (A) (A) (A) (A) (A)
                 (A) (A) (A) (A) (A) (A) (A) (A) (A) (A) (A) (A)
                 (A) (A) (A) (A) (A) (A) (A) (A) (A) (A) (A) (A)
                 (A) (A) (A) (A) (A) (A) (A) (A) (A) (A) (A) (A)
                 (A) (A) (A) (A) (A) (A) (A) (A) (A) (A) (A) (A)
                 (A) (A) (A) (A) (A) (A) (A) (A) (A) (A) (A) (A)
                 (A) (A) (A) (A) (A) (A) (A) (A) (A) (A) (A) (A)
                 (A) (A) (A) (A) (A) (A) (A) (A) (A) (A) (A) (A)
                 (A) (A) (A) (A) (A) (A) (A) (A) (A) (A) (A) (A)
                 (A) (A) (A)
 The electronic state is 1-A.
 Alpha  occ. eigenvalues --  -19.26336 -19.26146 -19.24285 -19.23086 -19.21476
 Alpha  occ. eigenvalues --  -19.21085 -14.49529 -14.47545 -10.41141 -10.36327
 Alpha  occ. eigenvalues --  -10.36035 -10.32577 -10.31256 -10.30341 -10.29959
 Alpha  occ. eigenvalues --  -10.28508 -10.26523  -1.14164  -1.11221  -1.09165
 Alpha  occ. eigenvalues --   -1.08768  -1.05985  -1.04417  -1.03212  -0.98881
 Alpha  occ. eigenvalues --   -0.85042  -0.81894  -0.80209  -0.74353  -0.71922
 Alpha  occ. eigenvalues --   -0.69557  -0.65006  -0.63372  -0.62251  -0.59363
 Alpha  occ. eigenvalues --   -0.57423  -0.56169  -0.54845  -0.52953  -0.52629
 Alpha  occ. eigenvalues --   -0.50887  -0.50073  -0.49852  -0.48590  -0.47097
 Alpha  occ. eigenvalues --   -0.46634  -0.44889  -0.44436  -0.43937  -0.43319
 Alpha  occ. eigenvalues --   -0.42184  -0.40952  -0.40287  -0.39587  -0.36291
 Alpha  occ. eigenvalues --   -0.34888  -0.34056  -0.33128  -0.32018  -0.31052
 Alpha  occ. eigenvalues --   -0.29987  -0.29063  -0.28155  -0.27646
 Alpha virt. eigenvalues --   -0.05550  -0.02115  -0.01529  -0.00775   0.00014
 Alpha virt. eigenvalues --    0.00706   0.01595   0.02374   0.02487   0.03265
 Alpha virt. eigenvalues --    0.03644   0.04290   0.04899   0.05399   0.05512
 Alpha virt. eigenvalues --    0.06017   0.06684   0.07113   0.07707   0.07908
 Alpha virt. eigenvalues --    0.08122   0.08382   0.08779   0.08956   0.09074
 Alpha virt. eigenvalues --    0.09778   0.10182   0.10339   0.10444   0.11030
 Alpha virt. eigenvalues --    0.11356   0.11642   0.11810   0.11913   0.12301
 Alpha virt. eigenvalues --    0.12340   0.13063   0.13418   0.13894   0.14201
 Alpha virt. eigenvalues --    0.14649   0.14722   0.15204   0.15872   0.16011
 Alpha virt. eigenvalues --    0.16403   0.16935   0.17287   0.17407   0.18061
 Alpha virt. eigenvalues --    0.18503   0.18874   0.18945   0.19760   0.20227
 Alpha virt. eigenvalues --    0.20548   0.21047   0.21394   0.21651   0.21913
 Alpha virt. eigenvalues --    0.22666   0.22895   0.23251   0.23645   0.23878
 Alpha virt. eigenvalues --    0.23965   0.24387   0.24432   0.25139   0.25360
 Alpha virt. eigenvalues --    0.25642   0.26204   0.26499   0.26694   0.27301
 Alpha virt. eigenvalues --    0.27406   0.27630   0.27952   0.28192   0.28469
 Alpha virt. eigenvalues --    0.28786   0.29247   0.29590   0.29961   0.30354
 Alpha virt. eigenvalues --    0.30563   0.31004   0.31578   0.31814   0.32176
 Alpha virt. eigenvalues --    0.32439   0.32907   0.33457   0.33907   0.34422
 Alpha virt. eigenvalues --    0.34932   0.35334   0.35826   0.36205   0.36523
 Alpha virt. eigenvalues --    0.37199   0.37356   0.37606   0.38583   0.38968
 Alpha virt. eigenvalues --    0.39090   0.39689   0.40187   0.40291   0.40742
 Alpha virt. eigenvalues --    0.41039   0.41491   0.42187   0.42519   0.43282
 Alpha virt. eigenvalues --    0.43749   0.44301   0.44706   0.45257   0.45686
 Alpha virt. eigenvalues --    0.46124   0.46285   0.46575   0.47856   0.49012
 Alpha virt. eigenvalues --    0.49119   0.49800   0.50365   0.50841   0.51053
 Alpha virt. eigenvalues --    0.51544   0.52019   0.52852   0.53195   0.53810
 Alpha virt. eigenvalues --    0.54334   0.55369   0.55846   0.56166   0.56310
 Alpha virt. eigenvalues --    0.56916   0.57705   0.58156   0.58604   0.59013
 Alpha virt. eigenvalues --    0.59730   0.60248   0.61179   0.61342   0.61816
 Alpha virt. eigenvalues --    0.62288   0.62596   0.63063   0.63218   0.64771
 Alpha virt. eigenvalues --    0.65143   0.65298   0.65762   0.66048   0.66632
 Alpha virt. eigenvalues --    0.67176   0.67255   0.68193   0.68508   0.68956
 Alpha virt. eigenvalues --    0.69164   0.69434   0.70207   0.71551   0.71880
 Alpha virt. eigenvalues --    0.72224   0.73238   0.73489   0.73835   0.74317
 Alpha virt. eigenvalues --    0.74725   0.75572   0.76094   0.76755   0.77118
 Alpha virt. eigenvalues --    0.77885   0.78810   0.79657   0.80157   0.80561
 Alpha virt. eigenvalues --    0.80839   0.81587   0.82190   0.83017   0.83469
 Alpha virt. eigenvalues --    0.84157   0.84856   0.85173   0.86370   0.87074
 Alpha virt. eigenvalues --    0.87416   0.88122   0.88576   0.89226   0.90829
 Alpha virt. eigenvalues --    0.91749   0.92357   0.92989   0.93961   0.94276
 Alpha virt. eigenvalues --    0.94666   0.95877   0.96536   0.98142   0.98918
 Alpha virt. eigenvalues --    0.99546   1.00889   1.00971   1.01492   1.02599
 Alpha virt. eigenvalues --    1.03712   1.04078   1.05182   1.06315   1.07174
 Alpha virt. eigenvalues --    1.08357   1.08614   1.10233   1.11105   1.11512
 Alpha virt. eigenvalues --    1.11883   1.12498   1.14141   1.15197   1.16644
 Alpha virt. eigenvalues --    1.17967   1.18059   1.18682   1.19207   1.20632
 Alpha virt. eigenvalues --    1.21275   1.21685   1.23570   1.23939   1.24492
 Alpha virt. eigenvalues --    1.24890   1.26134   1.27662   1.28881   1.29244
 Alpha virt. eigenvalues --    1.29866   1.31556   1.33022   1.34318   1.34979
 Alpha virt. eigenvalues --    1.35865   1.36696   1.37937   1.38277   1.39202
 Alpha virt. eigenvalues --    1.40024   1.40663   1.41650   1.42899   1.43306
 Alpha virt. eigenvalues --    1.44322   1.45578   1.46397   1.47663   1.48078
 Alpha virt. eigenvalues --    1.48616   1.50118   1.50669   1.51501   1.53033
 Alpha virt. eigenvalues --    1.53218   1.54040   1.55347   1.57093   1.57219
 Alpha virt. eigenvalues --    1.57650   1.58832   1.60093   1.61084   1.62457
 Alpha virt. eigenvalues --    1.63371   1.64193   1.65032   1.66776   1.67024
 Alpha virt. eigenvalues --    1.67877   1.70188   1.70562   1.71560   1.72515
 Alpha virt. eigenvalues --    1.72746   1.73516   1.74053   1.75788   1.76035
 Alpha virt. eigenvalues --    1.77062   1.78122   1.78977   1.80682   1.81009
 Alpha virt. eigenvalues --    1.81418   1.81804   1.83318   1.83774   1.84992
 Alpha virt. eigenvalues --    1.86154   1.86871   1.86999   1.89809   1.90486
 Alpha virt. eigenvalues --    1.93504   1.93883   1.94651   1.94986   1.96619
 Alpha virt. eigenvalues --    1.97034   1.97858   1.99012   2.00797   2.01736
 Alpha virt. eigenvalues --    2.02704   2.03304   2.04925   2.05668   2.06926
 Alpha virt. eigenvalues --    2.07540   2.08038   2.09106   2.09766   2.11455
 Alpha virt. eigenvalues --    2.12692   2.14391   2.15201   2.15847   2.16377
 Alpha virt. eigenvalues --    2.16684   2.19240   2.21462   2.22064   2.22316
 Alpha virt. eigenvalues --    2.24073   2.24689   2.25791   2.26033   2.27779
 Alpha virt. eigenvalues --    2.28758   2.30476   2.32626   2.33743   2.33992
 Alpha virt. eigenvalues --    2.36094   2.38462   2.39267   2.40519   2.42855
 Alpha virt. eigenvalues --    2.43680   2.44794   2.46457   2.47629   2.48045
 Alpha virt. eigenvalues --    2.49670   2.50044   2.53083   2.54990   2.55611
 Alpha virt. eigenvalues --    2.57750   2.58175   2.59594   2.60936   2.61841
 Alpha virt. eigenvalues --    2.63978   2.64774   2.65810   2.68450   2.69722
 Alpha virt. eigenvalues --    2.70935   2.72381   2.73012   2.75703   2.77231
 Alpha virt. eigenvalues --    2.78590   2.82220   2.83801   2.87054   2.88144
 Alpha virt. eigenvalues --    2.89338   2.92357   2.93424   2.96582   2.98864
 Alpha virt. eigenvalues --    3.00938   3.11965   3.13260   3.16721   3.21977
 Alpha virt. eigenvalues --    3.25820   3.27580   3.33446   3.35997   3.38495
 Alpha virt. eigenvalues --    3.39286   3.40616   3.43324   3.44727   3.45756
 Alpha virt. eigenvalues --    3.48068   3.49063   3.50057   3.50388   3.51626
 Alpha virt. eigenvalues --    3.52263   3.53267   3.55657   3.57959   3.59203
 Alpha virt. eigenvalues --    3.60810   3.61637   3.63968   3.65442   3.67278
 Alpha virt. eigenvalues --    3.68237   3.69464   3.71799   3.74542   3.78045
 Alpha virt. eigenvalues --    3.79176   3.88000   3.91875   3.98152   4.04510
 Alpha virt. eigenvalues --    4.06937   4.10834   4.11293   4.27666   4.72246
          Condensed to atoms (all electrons):
               1          2          3          4          5          6
     1  C   11.131859  -4.305696   1.883917   0.318802   0.763693  -0.073454
     2  C   -4.305696  12.218232  -4.500532  -0.731683  -1.455521   0.083726
     3  C    1.883917  -4.500532  13.663429   0.419260   0.582621  -0.349608
     4  O    0.318802  -0.731683   0.419260   8.737938  -0.072836   0.010778
     5  H    0.763693  -1.455521   0.582621  -0.072836   2.082475   0.025118
     6  O   -0.073454   0.083726  -0.349608   0.010778   0.025118   9.394024
     7  H    0.189235   0.221916  -0.823311  -0.035173   0.070012  -0.206060
     8  N   -0.200456   0.672296  -0.737806  -0.018632  -0.267096  -0.033984
     9  C   -2.870353   1.580217  -2.373121  -0.153156  -0.039632  -0.052951
    10  H   -1.358213   0.579186  -0.505420  -0.020368  -0.162419   0.062701
    11  O   -0.674952   0.275825   0.004089  -0.044374  -0.013981  -0.004772
    12  C    0.178716  -0.329572   0.187501   0.030175   0.008163   0.012942
    13  H    0.320343  -0.110421   0.132430   0.010079  -0.008346  -0.067473
    14  O   -0.069769   0.029178  -0.019698  -0.000437  -0.004160  -0.017969
    15  H   -0.048443   0.129867  -0.041560  -0.001862   0.001723   0.103129
    16  H   -0.021790  -0.049898  -0.014248   0.001936   0.000128  -0.093591
    17  H    0.232305  -0.102396   0.026895   0.009884   0.011745  -0.007160
    18  H   -0.254050   0.195297  -0.081044   0.279681  -0.035845   0.005454
    19  H    0.003747   0.003156  -0.007086  -0.001319  -0.000099   0.025488
    20  C   -0.086961   0.353441  -1.379526  -0.016146  -0.048152  -0.113255
    21  C    0.049320  -0.088896   0.137452   0.001370   0.014477   0.007389
    22  C   -0.035811   0.031319  -0.209908   0.001291   0.004626  -0.011762
    23  N   -0.061365   0.079880   0.028413  -0.001004  -0.008021  -0.013495
    24  C   -0.090121   0.129514  -1.181979  -0.010388  -0.005697   0.194876
    25  H   -0.013076   0.105941  -0.040632  -0.005030  -0.011538   0.047302
    26  H    0.000815  -0.008379   0.059874   0.000593   0.000095  -0.001590
    27  H   -0.001849  -0.004393   0.010670   0.000027  -0.000607  -0.000177
    28  O    0.000929   0.000999   0.005495  -0.000037   0.000298   0.000405
    29  O    0.079669  -0.032969   0.024540  -0.001166   0.016186  -0.008765
               7          8          9         10         11         12
     1  C    0.189235  -0.200456  -2.870353  -1.358213  -0.674952   0.178716
     2  C    0.221916   0.672296   1.580217   0.579186   0.275825  -0.329572
     3  C   -0.823311  -0.737806  -2.373121  -0.505420   0.004089   0.187501
     4  O   -0.035173  -0.018632  -0.153156  -0.020368  -0.044374   0.030175
     5  H    0.070012  -0.267096  -0.039632  -0.162419  -0.013981   0.008163
     6  O   -0.206060  -0.033984  -0.052951   0.062701  -0.004772   0.012942
     7  H    2.115967  -0.116042   0.053044  -0.028793  -0.008832  -0.028472
     8  N   -0.116042   8.014248  -0.027172   0.024800  -0.003697   0.033527
     9  C    0.053044  -0.027172  10.014118   0.357819   0.331286  -0.372558
    10  H   -0.028793   0.024800   0.357819   2.548506  -0.105797  -0.083530
    11  O   -0.008832  -0.003697   0.331286  -0.105797   8.594927  -0.011470
    12  C   -0.028472   0.033527  -0.372558  -0.083530  -0.011470   5.017009
    13  H   -0.016007   0.023017  -1.144766   0.135843  -0.048726  -0.090084
    14  O   -0.001347   0.021421   0.016394   0.021020   0.002097   0.119724
    15  H   -0.004476   0.000740  -0.123684  -0.017211   0.009471   0.056626
    16  H   -0.001226  -0.001137   0.389343   0.017374  -0.002162   0.020469
    17  H    0.002393  -0.000395  -0.103014  -0.122139   0.321052   0.008038
    18  H   -0.013666   0.001443   0.062929   0.034079   0.055430  -0.008954
    19  H    0.001582  -0.004759  -0.017514  -0.004072  -0.000499  -0.041732
    20  C    0.256966  -0.004762  -0.082388  -0.022205  -0.002923  -0.031646
    21  C    0.033408  -0.320961  -0.050881   0.004186  -0.000129   0.007748
    22  C    0.011159  -0.123674   0.016275  -0.002875   0.000600  -0.005559
    23  N    0.009977  -0.032038   0.001345   0.000888   0.000743  -0.002259
    24  C   -0.076478   0.052514   0.151042   0.110475  -0.006146  -0.050551
    25  H   -0.198701  -0.005639   0.047155   0.002775  -0.000660   0.006781
    26  H   -0.001794   0.045769  -0.001636  -0.000064   0.000039   0.000313
    27  H   -0.001090   0.053546  -0.001762  -0.000961  -0.000007   0.000727
    28  O    0.000061  -0.001571   0.000512   0.000290  -0.000007   0.000015
    29  O    0.014417  -0.111685  -0.022852   0.015458  -0.002383   0.001153
              13         14         15         16         17         18
     1  C    0.320343  -0.069769  -0.048443  -0.021790   0.232305  -0.254050
     2  C   -0.110421   0.029178   0.129867  -0.049898  -0.102396   0.195297
     3  C    0.132430  -0.019698  -0.041560  -0.014248   0.026895  -0.081044
     4  O    0.010079  -0.000437  -0.001862   0.001936   0.009884   0.279681
     5  H   -0.008346  -0.004160   0.001723   0.000128   0.011745  -0.035845
     6  O   -0.067473  -0.017969   0.103129  -0.093591  -0.007160   0.005454
     7  H   -0.016007  -0.001347  -0.004476  -0.001226   0.002393  -0.013666
     8  N    0.023017   0.021421   0.000740  -0.001137  -0.000395   0.001443
     9  C   -1.144766   0.016394  -0.123684   0.389343  -0.103014   0.062929
    10  H    0.135843   0.021020  -0.017211   0.017374  -0.122139   0.034079
    11  O   -0.048726   0.002097   0.009471  -0.002162   0.321052   0.055430
    12  C   -0.090084   0.119724   0.056626   0.020469   0.008038  -0.008954
    13  H    2.497175   0.030837  -0.119279  -0.013542  -0.009276   0.013022
    14  O    0.030837   8.401098  -0.149560  -0.047707   0.000207   0.000294
    15  H   -0.119279  -0.149560   1.873515  -0.364505  -0.006017   0.001856
    16  H   -0.013542  -0.047707  -0.364505   1.469393   0.000193  -0.001297
    17  H   -0.009276   0.000207  -0.006017   0.000193   0.605283  -0.009167
    18  H    0.013022   0.000294   0.001856  -0.001297  -0.009167   0.550395
    19  H    0.002601   0.229858   0.029113  -0.036380   0.000380   0.000203
    20  C    0.013455   0.003325  -0.001340   0.000298   0.000922   0.001234
    21  C   -0.003842   0.001966   0.000737  -0.000859   0.000045  -0.000244
    22  C    0.000655  -0.001907  -0.001007   0.001233  -0.000094  -0.000215
    23  N   -0.000146  -0.001845  -0.000042  -0.000514  -0.000474   0.000248
    24  C    0.017767  -0.000843  -0.013871   0.024406  -0.003019   0.003346
    25  H    0.006139   0.000011   0.000610   0.000042  -0.000246   0.001824
    26  H   -0.000167   0.000071  -0.000023   0.000072   0.000008  -0.000081
    27  H   -0.000222   0.000299   0.000133   0.000300  -0.000004  -0.000019
    28  O    0.000043   0.000037   0.000009  -0.000021   0.000002   0.000003
    29  O    0.003832  -0.021095   0.003037  -0.001428  -0.000357  -0.000325
              19         20         21         22         23         24
     1  C    0.003747  -0.086961   0.049320  -0.035811  -0.061365  -0.090121
     2  C    0.003156   0.353441  -0.088896   0.031319   0.079880   0.129514
     3  C   -0.007086  -1.379526   0.137452  -0.209908   0.028413  -1.181979
     4  O   -0.001319  -0.016146   0.001370   0.001291  -0.001004  -0.010388
     5  H   -0.000099  -0.048152   0.014477   0.004626  -0.008021  -0.005697
     6  O    0.025488  -0.113255   0.007389  -0.011762  -0.013495   0.194876
     7  H    0.001582   0.256966   0.033408   0.011159   0.009977  -0.076478
     8  N   -0.004759  -0.004762  -0.320961  -0.123674  -0.032038   0.052514
     9  C   -0.017514  -0.082388  -0.050881   0.016275   0.001345   0.151042
    10  H   -0.004072  -0.022205   0.004186  -0.002875   0.000888   0.110475
    11  O   -0.000499  -0.002923  -0.000129   0.000600   0.000743  -0.006146
    12  C   -0.041732  -0.031646   0.007748  -0.005559  -0.002259  -0.050551
    13  H    0.002601   0.013455  -0.003842   0.000655  -0.000146   0.017767
    14  O    0.229858   0.003325   0.001966  -0.001907  -0.001845  -0.000843
    15  H    0.029113  -0.001340   0.000737  -0.001007  -0.000042  -0.013871
    16  H   -0.036380   0.000298  -0.000859   0.001233  -0.000514   0.024406
    17  H    0.000380   0.000922   0.000045  -0.000094  -0.000474  -0.003019
    18  H    0.000203   0.001234  -0.000244  -0.000215   0.000248   0.003346
    19  H    0.576608  -0.003365   0.005079  -0.002008   0.001654  -0.012057
    20  C   -0.003365   9.700169  -2.057576   0.381501   0.277332  -1.546402
    21  C    0.005079  -2.057576   9.046697  -1.801222  -0.128168   0.909537
    22  C   -0.002008   0.381501  -1.801222   7.884457   0.350855  -0.817083
    23  N    0.001654   0.277332  -0.128168   0.350855   7.389401  -0.570738
    24  C   -0.012057  -1.546402   0.909537  -0.817083  -0.570738   7.961284
    25  H   -0.000469  -0.585357  -0.093097  -0.096515  -0.004672   0.092125
    26  H   -0.000115   0.531936  -0.865062   0.169464  -0.033026  -0.120515
    27  H   -0.000951  -0.016539   0.016586  -0.133128   0.453023  -0.334909
    28  O   -0.000067   0.004561  -0.035339   0.074132  -0.127738   0.115157
    29  O    0.038298  -0.050340   0.016500  -0.048916  -0.395568   0.424101
              25         26         27         28         29
     1  C   -0.013076   0.000815  -0.001849   0.000929   0.079669
     2  C    0.105941  -0.008379  -0.004393   0.000999  -0.032969
     3  C   -0.040632   0.059874   0.010670   0.005495   0.024540
     4  O   -0.005030   0.000593   0.000027  -0.000037  -0.001166
     5  H   -0.011538   0.000095  -0.000607   0.000298   0.016186
     6  O    0.047302  -0.001590  -0.000177   0.000405  -0.008765
     7  H   -0.198701  -0.001794  -0.001090   0.000061   0.014417
     8  N   -0.005639   0.045769   0.053546  -0.001571  -0.111685
     9  C    0.047155  -0.001636  -0.001762   0.000512  -0.022852
    10  H    0.002775  -0.000064  -0.000961   0.000290   0.015458
    11  O   -0.000660   0.000039  -0.000007  -0.000007  -0.002383
    12  C    0.006781   0.000313   0.000727   0.000015   0.001153
    13  H    0.006139  -0.000167  -0.000222   0.000043   0.003832
    14  O    0.000011   0.000071   0.000299   0.000037  -0.021095
    15  H    0.000610  -0.000023   0.000133   0.000009   0.003037
    16  H    0.000042   0.000072   0.000300  -0.000021  -0.001428
    17  H   -0.000246   0.000008  -0.000004   0.000002  -0.000357
    18  H    0.001824  -0.000081  -0.000019   0.000003  -0.000325
    19  H   -0.000469  -0.000115  -0.000951  -0.000067   0.038298
    20  C   -0.585357   0.531936  -0.016539   0.004561  -0.050340
    21  C   -0.093097  -0.865062   0.016586  -0.035339   0.016500
    22  C   -0.096515   0.169464  -0.133128   0.074132  -0.048916
    23  N   -0.004672  -0.033026   0.453023  -0.127738  -0.395568
    24  C    0.092125  -0.120515  -0.334909   0.115157   0.424101
    25  H    2.623672  -0.158354   0.001043  -0.000054   0.002050
    26  H   -0.158354   1.964932   0.009046  -0.020167   0.001529
    27  H    0.001043   0.009046   1.097104  -0.050949  -0.003458
    28  O   -0.000054  -0.020167  -0.050949   8.701581  -0.000539
    29  O    0.002050   0.001529  -0.003458  -0.000539   8.732727
 Mulliken charges:
               1
     1  C    1.013010
     2  C    1.030362
     3  C    1.098896
     4  O   -0.708205
     5  H   -0.447408
     6  O   -0.917266
     7  H   -0.418669
     8  N    0.068183
     9  C    0.415961
    10  H   -0.481332
    11  O   -0.664043
    12  C    1.366763
    13  H   -0.574944
    14  O   -0.541502
    15  H   -0.317686
    16  H   -0.274881
    17  H    0.144404
    18  H    0.198167
    19  H    0.214724
    20  C    0.523743
    21  C    1.193780
    22  C    0.364115
    23  N   -0.212645
    24  C    0.654654
    25  H   -0.723430
    26  H   -0.573581
    27  H   -0.091479
    28  O   -0.668040
    29  O   -0.671651
 Sum of Mulliken charges =  -0.00000
 Mulliken charges with hydrogens summed into heavy atoms:
               1
     1  C    0.531678
     2  C    0.582954
     3  C    0.680227
     4  O   -0.510037
     6  O   -0.917266
     8  N    0.068183
     9  C   -0.158983
    11  O   -0.519639
    12  C    0.774196
    14  O   -0.326779
    20  C   -0.199687
    21  C    0.620198
    22  C    0.364115
    23  N   -0.304124
    24  C    0.654654
    28  O   -0.668040
    29  O   -0.671651
 Electronic spatial extent (au):  <R**2>=           4159.9519
 Charge=              0.0000 electrons
 Dipole moment (field-independent basis, Debye):
    X=             -2.3491    Y=              2.3323    Z=              0.6969  Tot=              3.3828
 Quadrupole moment (field-independent basis, Debye-Ang):
   XX=           -110.1044   YY=           -106.1933   ZZ=            -96.5226
   XY=              5.1750   XZ=              4.6519   YZ=              1.9998
 Traceless Quadrupole moment (field-independent basis, Debye-Ang):
   XX=             -5.8310   YY=             -1.9198   ZZ=              7.7508
   XY=              5.1750   XZ=              4.6519   YZ=              1.9998
 Octapole moment (field-independent basis, Debye-Ang**2):
  XXX=           -199.0521  YYY=              4.5227  ZZZ=            -10.3675  XYY=             33.8799
  XXY=             16.3171  XXZ=             11.3354  XZZ=             -8.9037  YZZ=             -0.0061
  YYZ=              6.5138  XYZ=             11.0102
 Hexadecapole moment (field-independent basis, Debye-Ang**3):
 XXXX=          -4328.1007 YYYY=          -1222.7571 ZZZZ=           -430.6300 XXXY=            169.0261
 XXXZ=            156.0889 YYYX=            -72.1889 YYYZ=              4.4072 ZZZX=              3.7575
 ZZZY=              6.1531 XXYY=           -798.8897 XXZZ=           -665.1172 YYZZ=           -236.8557
 XXYZ=             19.0624 YYXZ=              2.8230 ZZXY=              1.1247
 N-N= 1.332025994963D+03 E-N=-4.795348719669D+03  KE= 9.051881732051D+02
 Calling FoFJK, ICntrl=      2127 FMM=F ISym2X=0 I1Cent= 0 IOpClX= 0 NMat=1 NMatS=1 NMatT=0.
 ***** Axes restored to original set *****
 -------------------------------------------------------------------
 Center     Atomic                   Forces (Hartrees/Bohr)
 Number     Number              X              Y              Z
 -------------------------------------------------------------------
      1        6          -0.004244297   -0.003829556    0.000448130
      2        6          -0.011382339   -0.010808205   -0.018055018
      3        6          -0.011948023    0.009456915    0.011920932
      4        8          -0.002182537    0.000185030    0.013333956
      5        1           0.006428328    0.001913856    0.005129147
      6        8           0.006172906   -0.019540697   -0.007582700
      7        1           0.007743903   -0.003947593   -0.003520432
      8        7          -0.005789894    0.000731005   -0.003641720
      9        6          -0.005359730    0.009290126    0.013615520
     10        1           0.000795570    0.006261388    0.003926966
     11        8          -0.002744744    0.002984365    0.012093207
     12        6           0.021481914   -0.001133120    0.007962524
     13        1          -0.003487332   -0.004583909   -0.003920443
     14        8           0.004507800    0.002261116   -0.007736756
     15        1          -0.002629134   -0.001956413   -0.001235232
     16        1          -0.004990241    0.005791827   -0.006042517
     17        1           0.006829837    0.001610063   -0.013293102
     18        1           0.008652143    0.010249486   -0.003480784
     19        1          -0.011542174   -0.005272082    0.002197270
     20        6          -0.004713773    0.000459305   -0.001166922
     21        6           0.003807012   -0.005937168    0.016843450
     22        6           0.033474626    0.016924228   -0.027742533
     23        7          -0.007731175    0.000012703   -0.002235556
     24        6          -0.011791900   -0.006960559    0.011219652
     25        1          -0.006365005   -0.001383834    0.000198862
     26        1           0.001197059    0.000908405   -0.001441055
     27        1          -0.001370836   -0.002123241    0.004828434
     28        8          -0.007548975   -0.004650183    0.008869718
     29        8           0.004731012    0.003086743   -0.011493000
 -------------------------------------------------------------------
 Cartesian Forces:  Max     0.033474626 RMS     0.008986147

 GradGradGradGradGradGradGradGradGradGradGradGradGradGradGradGradGradGrad
 Berny optimization.
 FormGI is forming the generalized inverse of G from B-inverse, IUseBI=4.
 Internal  Forces:  Max     0.020178063 RMS     0.004818153
 Search for a local minimum.
 Step number   1 out of a maximum of  173
 All quantities printed in internal units (Hartrees-Bohrs-Radians)
 Mixed Optimization -- RFO/linear search
 Second derivative matrix not updated -- first step.
 ITU=  0
     Eigenvalues ---    0.00394   0.00485   0.00832   0.00847   0.01166
     Eigenvalues ---    0.01313   0.01359   0.01457   0.01595   0.01787
     Eigenvalues ---    0.01954   0.01981   0.02093   0.02129   0.02333
     Eigenvalues ---    0.02534   0.03081   0.03668   0.04295   0.04762
     Eigenvalues ---    0.04790   0.04893   0.05344   0.05540   0.05683
     Eigenvalues ---    0.06100   0.06422   0.06517   0.07965   0.08485
     Eigenvalues ---    0.10091   0.11725   0.13346   0.13937   0.16000
     Eigenvalues ---    0.16000   0.16000   0.16000   0.16000   0.16000
     Eigenvalues ---    0.16044   0.17237   0.19210   0.19550   0.22067
     Eigenvalues ---    0.22359   0.23437   0.24608   0.24990   0.24999
     Eigenvalues ---    0.25000   0.26521   0.28834   0.29313   0.29597
     Eigenvalues ---    0.33976   0.33985   0.34290   0.34336   0.34340
     Eigenvalues ---    0.34408   0.34925   0.35152   0.35792   0.36344
     Eigenvalues ---    0.37526   0.38039   0.39616   0.41188   0.41692
     Eigenvalues ---    0.45290   0.46207   0.46316   0.49424   0.50861
     Eigenvalues ---    0.51027   0.51435   0.52124   0.57000   0.91205
     Eigenvalues ---    0.93393
 RFO step:  Lambda=-1.65512273D-02 EMin= 3.93912391D-03
 Linear search not attempted -- first point.
 Iteration  1 RMS(Cart)=  0.08076924 RMS(Int)=  0.00222263
 Iteration  2 RMS(Cart)=  0.00294256 RMS(Int)=  0.00035617
 Iteration  3 RMS(Cart)=  0.00000394 RMS(Int)=  0.00035616
 Iteration  4 RMS(Cart)=  0.00000000 RMS(Int)=  0.00035616
 Variable       Old X    -DE/DX   Delta X   Delta X   Delta X     New X
                                 (Linear)    (Quad)   (Total)
    R1        2.87228   0.00395   0.00000   0.01893   0.01865   2.89092
    R2        2.88397  -0.00305   0.00000  -0.00731  -0.00731   2.87666
    R3        2.06647   0.00100   0.00000   0.00277   0.00277   2.06924
    R4        2.69970  -0.00541   0.00000  -0.01262  -0.01262   2.68708
    R5        2.90752  -0.00387   0.00000  -0.01734  -0.01739   2.89013
    R6        2.72078  -0.01242   0.00000  -0.03010  -0.03010   2.69069
    R7        2.06766   0.00358   0.00000   0.00994   0.00994   2.07761
    R8        2.72051  -0.01123   0.00000  -0.03247  -0.03226   2.68825
    R9        2.07355   0.00020   0.00000   0.00055   0.00055   2.07410
   R10        2.76847  -0.00382   0.00000  -0.01004  -0.01004   2.75842
   R11        1.85543  -0.01367   0.00000  -0.02595  -0.02595   1.82948
   R12        2.72266  -0.00557   0.00000  -0.01203  -0.01189   2.71077
   R13        2.61405  -0.00098   0.00000  -0.00293  -0.00295   2.61110
   R14        2.62364  -0.00563   0.00000  -0.01229  -0.01234   2.61130
   R15        2.88774  -0.00717   0.00000  -0.02293  -0.02293   2.86480
   R16        2.07370   0.00389   0.00000   0.01090   0.01090   2.08460
   R17        1.84481  -0.01475   0.00000  -0.02743  -0.02743   1.81738
   R18        2.69317  -0.00713   0.00000  -0.01644  -0.01644   2.67673
   R19        2.06760   0.00316   0.00000   0.00877   0.00877   2.07637
   R20        2.06844   0.00527   0.00000   0.01466   0.01466   2.08311
   R21        1.85707  -0.01273   0.00000  -0.02424  -0.02424   1.83282
   R22        2.52193   0.01430   0.00000   0.02364   0.02367   2.54559
   R23        2.05429   0.00127   0.00000   0.00344   0.00344   2.05773
   R24        2.77735  -0.00889   0.00000  -0.02268  -0.02262   2.75473
   R25        2.04409   0.00205   0.00000   0.00547   0.00547   2.04956
   R26        2.57667   0.02018   0.00000   0.03831   0.03833   2.61501
   R27        2.31408  -0.00472   0.00000  -0.00496  -0.00496   2.30911
   R28        2.59055   0.00691   0.00000   0.01336   0.01333   2.60389
   R29        1.90477   0.00476   0.00000   0.00992   0.00992   1.91468
   R30        2.32383  -0.01170   0.00000  -0.01260  -0.01260   2.31123
    A1        1.78323   0.00051   0.00000   0.00817   0.00806   1.79129
    A2        1.90853  -0.00009   0.00000   0.00966   0.00952   1.91805
    A3        1.93260  -0.00158   0.00000  -0.02505  -0.02473   1.90787
    A4        1.96819  -0.00224   0.00000  -0.03780  -0.03769   1.93050
    A5        1.97519   0.00001   0.00000   0.00440   0.00438   1.97957
    A6        1.89374   0.00311   0.00000   0.03753   0.03765   1.93139
    A7        1.81019  -0.00087   0.00000  -0.00569  -0.00568   1.80451
    A8        1.91232   0.00511   0.00000   0.03463   0.03390   1.94622
    A9        1.96830   0.00009   0.00000   0.00805   0.00683   1.97513
   A10        1.92596  -0.00620   0.00000  -0.06111  -0.06059   1.86537
   A11        1.98513  -0.00206   0.00000  -0.02972  -0.02936   1.95577
   A12        1.86225   0.00385   0.00000   0.05167   0.04987   1.91212
   A13        1.89237  -0.00289   0.00000  -0.00939  -0.00962   1.88275
   A14        1.91217  -0.00025   0.00000  -0.01254  -0.01291   1.89926
   A15        2.00809   0.00281   0.00000   0.01158   0.01120   2.01929
   A16        1.84343   0.00414   0.00000   0.04452   0.04486   1.88830
   A17        1.90717   0.00176   0.00000   0.02566   0.02582   1.93299
   A18        1.89355  -0.00535   0.00000  -0.05608  -0.05636   1.83720
   A19        1.82571   0.00397   0.00000   0.02251   0.02251   1.84822
   A20        1.87330   0.00901   0.00000   0.03243   0.03253   1.90583
   A21        2.07364  -0.00246   0.00000  -0.00709  -0.00707   2.06657
   A22        2.09126   0.00358   0.00000   0.01559   0.01560   2.10686
   A23        2.11793  -0.00113   0.00000  -0.00874  -0.00881   2.10911
   A24        1.85590  -0.00522   0.00000  -0.03003  -0.02990   1.82600
   A25        1.98835   0.00506   0.00000   0.02272   0.02246   2.01081
   A26        1.93658  -0.00259   0.00000  -0.02525  -0.02519   1.91139
   A27        1.90810   0.00127   0.00000  -0.00496  -0.00459   1.90351
   A28        1.87619   0.00171   0.00000   0.02612   0.02548   1.90167
   A29        1.89525  -0.00036   0.00000   0.01149   0.01161   1.90686
   A30        1.85875   0.00499   0.00000   0.02824   0.02824   1.88699
   A31        1.95778   0.00313   0.00000   0.01863   0.01846   1.97624
   A32        1.92765  -0.00163   0.00000  -0.02560  -0.02605   1.90160
   A33        1.92985  -0.00612   0.00000  -0.03152  -0.03268   1.89716
   A34        1.87458  -0.00231   0.00000  -0.01948  -0.01926   1.85532
   A35        1.87550   0.00644   0.00000   0.07002   0.07014   1.94564
   A36        1.89618   0.00076   0.00000  -0.01012  -0.01105   1.88513
   A37        1.87901   0.00085   0.00000   0.00483   0.00483   1.88384
   A38        2.13256   0.00458   0.00000   0.01585   0.01587   2.14843
   A39        2.05106  -0.00886   0.00000  -0.04511  -0.04512   2.00594
   A40        2.09956   0.00427   0.00000   0.02926   0.02924   2.12881
   A41        2.07469   0.00218   0.00000   0.00934   0.00944   2.08413
   A42        2.15387  -0.00145   0.00000  -0.00674  -0.00679   2.14708
   A43        2.05463  -0.00073   0.00000  -0.00261  -0.00266   2.05197
   A44        2.01823  -0.01023   0.00000  -0.03599  -0.03590   1.98234
   A45        2.11473   0.01856   0.00000   0.06842   0.06837   2.18310
   A46        2.15020  -0.00832   0.00000  -0.03242  -0.03247   2.11774
   A47        2.20220   0.00729   0.00000   0.03191   0.03190   2.23410
   A48        2.04214  -0.00111   0.00000  -0.00159  -0.00160   2.04054
   A49        2.03884  -0.00618   0.00000  -0.03032  -0.03033   2.00851
   A50        2.02064  -0.00269   0.00000  -0.01250  -0.01269   2.00795
   A51        2.17381  -0.00409   0.00000  -0.01419  -0.01426   2.15955
   A52        2.08872   0.00678   0.00000   0.02657   0.02647   2.11519
    D1        0.48549   0.00023   0.00000  -0.00109  -0.00109   0.48440
    D2       -1.57081   0.00551   0.00000   0.05666   0.05689  -1.51392
    D3        2.64095  -0.00282   0.00000  -0.03670  -0.03685   2.60410
    D4       -1.60356   0.00258   0.00000   0.03377   0.03382  -1.56975
    D5        2.62332   0.00786   0.00000   0.09151   0.09180   2.71513
    D6        0.55189  -0.00047   0.00000  -0.00185  -0.00194   0.54995
    D7        2.59380  -0.00022   0.00000  -0.00322  -0.00321   2.59059
    D8        0.53750   0.00505   0.00000   0.05452   0.05477   0.59228
    D9       -1.53393  -0.00328   0.00000  -0.03884  -0.03897  -1.57290
   D10       -0.61745   0.00258   0.00000   0.00049   0.00072  -0.61672
   D11       -2.72029   0.00154   0.00000   0.01366   0.01390  -2.70639
   D12        1.41763   0.00027   0.00000   0.00118   0.00172   1.41935
   D13        1.42926   0.00174   0.00000  -0.00071  -0.00068   1.42858
   D14       -0.67359   0.00070   0.00000   0.01246   0.01249  -0.66110
   D15       -2.81886  -0.00057   0.00000  -0.00002   0.00032  -2.81854
   D16       -2.69595   0.00415   0.00000   0.02321   0.02316  -2.67279
   D17        1.48438   0.00311   0.00000   0.03638   0.03634   1.52072
   D18       -0.66088   0.00184   0.00000   0.02389   0.02416  -0.63672
   D19        2.93103  -0.00019   0.00000  -0.01284  -0.01294   2.91809
   D20       -1.36198  -0.00056   0.00000  -0.01597  -0.01604  -1.37802
   D21        0.83634  -0.00108   0.00000  -0.03321  -0.03303   0.80332
   D22       -0.20941  -0.00020   0.00000   0.01565   0.01530  -0.19411
   D23       -2.21317  -0.00340   0.00000  -0.02540  -0.02575  -2.23892
   D24        1.93156   0.00183   0.00000   0.04996   0.04961   1.98117
   D25        1.83739   0.00239   0.00000   0.02440   0.02418   1.86157
   D26       -0.16638  -0.00082   0.00000  -0.01665  -0.01686  -0.18324
   D27       -2.30483   0.00441   0.00000   0.05870   0.05850  -2.24634
   D28       -2.35381   0.00147   0.00000   0.02667   0.02700  -2.32681
   D29        1.92561  -0.00173   0.00000  -0.01438  -0.01405   1.91157
   D30       -0.21284   0.00350   0.00000   0.06098   0.06131  -0.15153
   D31       -0.57625  -0.00188   0.00000  -0.01104  -0.01242  -0.58867
   D32       -2.55882  -0.00028   0.00000   0.01000   0.00987  -2.54895
   D33        1.55973   0.00355   0.00000   0.05039   0.05190   1.61163
   D34       -0.17832   0.00001   0.00000  -0.02260  -0.02267  -0.20099
   D35        1.86997   0.00046   0.00000  -0.01860  -0.01906   1.85091
   D36       -2.37938  -0.00273   0.00000  -0.04788  -0.04771  -2.42709
   D37        1.90658   0.00084   0.00000   0.04056   0.04062   1.94720
   D38       -1.20661   0.00116   0.00000   0.05026   0.05033  -1.15628
   D39       -2.24359   0.00040   0.00000   0.05627   0.05666  -2.18693
   D40        0.92641   0.00072   0.00000   0.06597   0.06637   0.99278
   D41       -0.24184   0.00335   0.00000   0.09234   0.09187  -0.14997
   D42        2.92816   0.00367   0.00000   0.10204   0.10158   3.02974
   D43        0.50039  -0.00026   0.00000   0.01698   0.01709   0.51749
   D44        2.65428   0.00339   0.00000   0.02315   0.02346   2.67774
   D45       -1.57473   0.00461   0.00000   0.04880   0.04944  -1.52529
   D46       -3.12753  -0.00002   0.00000   0.00198   0.00173  -3.12580
   D47        0.01595   0.00009   0.00000   0.00478   0.00456   0.02051
   D48       -0.01480  -0.00026   0.00000  -0.00746  -0.00757  -0.02237
   D49        3.12868  -0.00016   0.00000  -0.00466  -0.00475   3.12394
   D50        3.12917  -0.00002   0.00000   0.00042   0.00033   3.12950
   D51       -0.00716   0.00100   0.00000   0.02868   0.02832   0.02116
   D52        0.01672   0.00033   0.00000   0.01033   0.01024   0.02696
   D53       -3.11960   0.00135   0.00000   0.03860   0.03822  -3.08138
   D54        0.84552  -0.00409   0.00000  -0.07247  -0.07239   0.77313
   D55       -1.24504  -0.00212   0.00000  -0.04265  -0.04236  -1.28740
   D56        2.93875   0.00197   0.00000   0.00723   0.00672   2.94546
   D57       -1.22782  -0.00161   0.00000  -0.04551  -0.04548  -1.27330
   D58        2.96481   0.00036   0.00000  -0.01569  -0.01544   2.94936
   D59        0.86541   0.00446   0.00000   0.03419   0.03363   0.89903
   D60        3.01319  -0.00416   0.00000  -0.08050  -0.08023   2.93296
   D61        0.92263  -0.00219   0.00000  -0.05068  -0.05019   0.87244
   D62       -1.17677   0.00191   0.00000  -0.00080  -0.00112  -1.17789
   D63        0.73796  -0.00101   0.00000  -0.01923  -0.01847   0.71949
   D64        2.85922  -0.00266   0.00000  -0.05263  -0.05247   2.80675
   D65       -1.38665   0.00033   0.00000  -0.03869  -0.03961  -1.42626
   D66        0.00309  -0.00005   0.00000  -0.00027  -0.00029   0.00280
   D67       -3.13871   0.00011   0.00000   0.00360   0.00363  -3.13508
   D68       -3.14044  -0.00018   0.00000  -0.00323  -0.00339   3.13935
   D69        0.00094  -0.00001   0.00000   0.00065   0.00053   0.00147
   D70        0.00531   0.00013   0.00000   0.00394   0.00396   0.00927
   D71        3.14034   0.00013   0.00000   0.00480   0.00478  -3.13806
   D72       -3.13608  -0.00003   0.00000   0.00028   0.00025  -3.13583
   D73       -0.00105  -0.00003   0.00000   0.00114   0.00107   0.00002
   D74       -0.00259   0.00001   0.00000  -0.00028  -0.00034  -0.00293
   D75        3.13964  -0.00034   0.00000  -0.00962  -0.00983   3.12981
   D76       -3.13747  -0.00010   0.00000  -0.00158  -0.00155  -3.13902
   D77        0.00475  -0.00045   0.00000  -0.01092  -0.01104  -0.00629
   D78       -0.00817  -0.00026   0.00000  -0.00678  -0.00677  -0.01494
   D79        3.12842  -0.00126   0.00000  -0.03370  -0.03410   3.09433
   D80        3.13278   0.00009   0.00000   0.00255   0.00259   3.13537
   D81       -0.01380  -0.00091   0.00000  -0.02437  -0.02474  -0.03855
         Item               Value     Threshold  Converged?
 Maximum Force            0.020178     0.000450     NO 
 RMS     Force            0.004818     0.000300     NO 
 Maximum Displacement     0.270235     0.001800     NO 
 RMS     Displacement     0.081060     0.001200     NO 
 Predicted change in Energy=-9.607034D-03
 GradGradGradGradGradGradGradGradGradGradGradGradGradGradGradGradGradGrad

                          Input orientation:                          
 ---------------------------------------------------------------------
 Center     Atomic      Atomic             Coordinates (Angstroms)
 Number     Number       Type             X           Y           Z
 ---------------------------------------------------------------------
      1          6           0       -3.279038   -1.790825    0.769847
      2          6           0       -2.203314   -1.578729   -0.296996
      3          6           0       -1.739916   -0.141968   -0.052002
      4          8           0       -2.754651   -1.617191   -1.609207
      5          1           0       -1.374769   -2.297770   -0.224720
      6          8           0       -2.653893    0.462946    0.854865
      7          1           0       -1.781660    0.409999   -0.999759
      8          7           0       -0.366898    0.008431    0.420135
      9          6           0       -3.805397   -0.380616    0.996883
     10          1           0       -2.824014   -2.184344    1.684781
     11          8           0       -4.263599   -2.688429    0.272988
     12          6           0       -4.433457   -0.136622    2.354907
     13          1           0       -4.534217   -0.127911    0.208312
     14          8           0       -3.680917   -0.680880    3.424409
     15          1           0       -5.415619   -0.628137    2.387386
     16          1           0       -4.590278    0.947048    2.482199
     17          1           0       -4.813596   -2.967376    1.010953
     18          1           0       -3.479312   -2.258174   -1.573654
     19          1           0       -2.742870   -0.509727    3.247045
     20          6           0        0.559830    0.585824   -0.426611
     21          6           0        1.854539    0.754279   -0.095025
     22          6           0        2.322223    0.310696    1.212459
     23          7           0        1.332457   -0.267932    1.987353
     24          6           0        0.005896   -0.457512    1.666490
     25          1           0        0.165519    0.903376   -1.390660
     26          1           0        2.579655    1.213002   -0.758417
     27          1           0        1.605059   -0.604316    2.903388
     28          8           0        3.469192    0.415242    1.620677
     29          8           0       -0.755412   -1.031160    2.432772
 ---------------------------------------------------------------------
                    Distance matrix (angstroms):
                    1          2          3          4          5
     1  C    0.000000
     2  C    1.529810   0.000000
     3  C    2.400638   1.529393   0.000000
     4  O    2.442340   1.423850   2.372943   0.000000
     5  H    2.207350   1.099423   2.193318   2.069799   0.000000
     6  O    2.340410   2.387099   1.422562   3.226263   3.228500
     7  H    3.196448   2.150979   1.097568   2.329729   2.845744
     8  N    3.440956   2.530964   1.459696   3.530190   2.598115
     9  C    1.522264   2.382491   2.328803   3.069998   3.328023
    10  H    1.094992   2.163210   2.891882   3.343177   2.399869
    11  O    1.421943   2.408544   3.599869   2.639532   2.957307
    12  C    2.565441   3.753105   3.612257   4.552436   4.547593
    13  H    2.157796   2.791652   2.806436   2.947573   3.857190
    14  O    2.905200   4.103449   4.017878   5.203069   4.609641
    15  H    2.921174   4.292835   4.438217   4.902217   5.093058
    16  H    3.485320   4.449840   3.966446   5.165699   5.309967
    17  H    1.948660   3.233055   4.308169   3.595482   3.714942
    18  H    2.398024   1.928645   3.133569   0.968121   2.500058
    19  H    2.839929   3.740870   3.467689   4.980943   4.137867
    20  C    4.670854   3.512414   2.441074   4.151818   3.478296
    21  C    5.794754   4.685071   3.704756   5.400115   4.445250
    22  C    5.998868   5.131167   4.278403   6.119902   4.747350
    23  N    5.006736   4.408868   3.689757   5.608938   4.042595
    24  C    3.656841   3.161173   2.469948   4.437980   2.978164
    25  H    4.877652   3.601156   2.552535   3.863731   3.738882
    26  H    6.758909   5.557290   4.581884   6.098250   5.314868
    27  H    5.460239   5.069087   4.487421   6.355824   4.640282
    28  O    7.150472   6.311159   5.499377   7.300627   5.850631
    29  O    3.116264   3.138134   2.816738   4.547305   3.008349
                    6          7          8          9         10
     6  O    0.000000
     7  H    2.050178   0.000000
     8  N    2.371903   2.044238   0.000000
     9  C    1.434478   2.950791   3.508172   0.000000
    10  H    2.779540   3.876065   3.527749   2.165583   0.000000
[...]
 67538977,0.00035463,-0.00014689,0.00057594,0.00057023,-0.00046896,0.00
 110671,-0.00192814,0.00049783,0.00476742,0.00001807,0.00033809,-0.0006
 3753,-0.00001779,0.00020745,0.00024242,-0.00092569,0.00080365,-0.00161
 405,0.00088756,0.00010367,-0.00014232,0.01608807,0.01624759,-0.0024316
 3,0.00023248,-0.00012825,0.00010661,0.00041671,0.00030960,-0.00014829,
 -0.00046213,-0.00008244,-0.00050420,0.00071492,-0.00042091,0.00071999,
 -0.00008041,0.00002611,-0.00008366,-0.00158623,0.00072456,0.00011856,-
 0.00012854,0.00002004,-0.00011228,-0.00012285,0.00016690,-0.00008374,0
 .00011819,0.00011180,0.00005660,-0.00001772,0.00007942,0.00016975,0.00
 189324,-0.00129568,-0.00116357,-0.00843089,-0.00488608,0.00423129,-0.0
 0699060,-0.00505625,0.02365364,-0.04906791,-0.10579582,0.06702262,0.13
 394815,0.26082921,-0.00004499,0.00024500,-0.00063190,0.00011276,0.0007
 1397,0.00003937,0.00485631,0.00432677,-0.00570483,-0.00006052,-0.00042
 504,0.00027888,0.00011844,-0.00033312,-0.00008117,-0.00129761,-0.00005
 313,0.00208776,-0.00197450,-0.00036201,-0.00049442,-0.04491117,-0.0000
 7339,-0.01747861,0.00043819,0.00064690,-0.00032383,-0.00021247,-0.0002
 5523,0.00017573,0.00003009,-0.00011937,0.00049215,-0.00047725,0.000165
 42,-0.00048209,-0.00007774,-0.00010571,0.00000933,0.00072377,-0.000235
 17,0.00027516,0.00004461,-0.00000618,0.00009811,0.00004086,-0.00007128
 ,0.00003487,-0.00003991,-0.00005594,-0.00007667,0.00013837,-0.00003311
 ,-0.00008352,-0.00059779,0.00034802,0.00009008,-0.00275415,-0.00069927
 ,-0.00080289,0.02418478,0.02573901,-0.02251888,0.03749783,0.07840408,-
 0.17601028,0.13210025,-0.28423622,0.68237440,-0.00225797,-0.00091037,-
 0.00217858,-0.00260998,0.00150974,-0.00285759,-0.00170467,0.01579512,-
 0.03916107,0.00098520,-0.00071440,0.00275730,0.00063634,-0.00185099,-0
 .00139984,0.00051843,-0.00109714,0.00666182,-0.00584474,-0.00187839,-0
 .00113615,-0.15726679,-0.00916529,-0.03780593,-0.00211840,0.00072067,-
 0.00061668,-0.00141134,-0.00075067,0.00060713,0.00156919,0.00081861,0.
 00161667,-0.00224671,0.00153320,-0.00202533,0.00047110,-0.00017441,0.0
 0026434,0.00449706,-0.00110390,0.00005167,0.00048054,-0.00003199,0.000
 29254,0.00019999,-0.00051493,0.00022716,-0.00036052,-0.00046973,-0.000
 15610,0.00010046,-0.00040754,-0.00035157,-0.00765097,0.00133937,0.0034
 2284,0.04452544,0.00906333,0.01305628,-0.01789630,0.00302781,-0.017026
 74,-0.04687951,-0.03631044,0.04758781,-0.26439331,-0.02313752,-0.08600
 103,0.77470618,-0.00129497,0.00007532,-0.00266655,-0.00487204,0.003551
 64,-0.00245742,0.02194787,0.00470700,-0.00763331,0.00015043,-0.0020379
 7,0.00187415,0.00009333,-0.00171733,-0.00186579,-0.00515873,-0.0023814
 7,0.00793279,-0.00354773,-0.00018558,-0.00022173,-0.00533609,-0.097627
 30,0.05142297,0.00130038,0.00296282,-0.00124350,-0.00119190,-0.0009954
 8,0.00069537,0.00054963,-0.00041198,0.00171623,-0.00265729,0.00129402,
 -0.00277477,-0.00043977,-0.00048734,0.00024669,0.00582097,-0.00204380,
 0.00040767,0.00040421,-0.00016355,0.00067850,0.00041852,-0.00053921,0.
 00020795,-0.00034128,-0.00029425,-0.00027577,0.00015691,-0.00034333,-0
 .00041362,-0.00765714,0.00362579,0.00248874,-0.00750783,-0.01743577,0.
 02465368,0.00677450,0.00145781,0.00311971,-0.01008476,-0.00651955,-0.0
 1984963,-0.04357095,-0.08528363,0.02305539,0.22672860,0.42465020,0.000
 22403,-0.00075578,0.00410212,0.00337624,-0.00348241,-0.00074696,-0.038
 84587,0.00034520,-0.00883370,0.00158549,0.00217552,-0.00067117,-0.0008
 1489,-0.00020518,0.00094995,0.01089927,0.00165766,-0.00998666,0.001643
 07,0.00126816,0.00176899,-0.04989841,0.05071349,-0.19212912,-0.0015123
 5,-0.00379394,0.00152391,0.00185445,0.00132641,-0.00081682,0.00034093,
 0.00111436,-0.00273537,0.00356908,-0.00158992,0.00383887,0.00057044,0.
 00063944,-0.00028999,-0.00630259,0.00168426,-0.00139720,-0.00044940,0.
 00014388,-0.00082378,-0.00036527,0.00055592,-0.00037117,0.00034027,0.0
 0025168,0.00046692,-0.00067103,0.00022265,0.00078856,0.00835162,-0.002
 42784,-0.00270010,0.04368169,0.03343419,-0.03768964,-0.02473363,0.0008
 4867,-0.01582032,-0.00221685,-0.03753443,0.05365421,-0.04555689,0.0363
 1557,-0.15531426,-0.07321293,-0.25450880,0.64808929,-0.00006157,0.0000
 0263,0.00008211,-0.00007892,-0.00016621,-0.00011867,-0.00000442,-0.001
 05855,0.00449513,0.00007336,0.00019884,-0.00001553,-0.00000976,0.00012
 189,-0.00000560,0.00040313,-0.00032530,-0.00087847,-0.00059140,-0.0002
 1886,-0.00046981,0.00711529,-0.01022988,0.02090983,-0.00032538,-0.0001
 8482,0.00012666,0.00002600,0.00002230,-0.00000733,0.00010750,0.0000956
 4,-0.00004478,0.00005158,-0.00001017,0.00008911,0.00002721,0.00002404,
 0.00001033,-0.00007494,0.00003147,-0.00009798,-0.00000081,0.00001076,-
 0.00002242,-0.00001872,0.00000762,0.00000202,-0.00000266,-0.00001707,0
 .00001392,-0.00004148,-0.00000634,0.00001039,0.00010667,-0.00005595,0.
 00002965,-0.09327879,0.03687316,-0.09792519,-0.00319448,0.00974558,-0.
 02496322,-0.00379804,-0.00517643,-0.00046158,0.00044235,0.00033510,0.0
 0014282,-0.00338154,-0.00210948,-0.00064324,0.09727061,-0.00000094,-0.
 00006163,0.00005605,-0.00025903,0.00008290,0.00012646,0.00148489,-0.00
 133212,0.00107206,0.00007449,0.00002695,-0.00015242,0.00003696,0.00004
 109,0.00004468,0.00039511,0.00012001,-0.00063379,-0.00076716,0.0003479
 1,-0.00053450,0.00496012,-0.00499237,0.01795561,-0.00009571,-0.0001097
 9,-0.00005912,0.00002215,0.00002036,-0.00000740,0.00004708,0.00002151,
 -0.00007252,0.00007520,0.00002301,0.00007280,0.00001499,0.00001609,0.0
 0000266,-0.00007150,0.00000049,-0.00006030,-0.00000061,0.00000014,-0.0
 0002291,0.00000281,-0.00000691,-0.00001502,-0.00001013,-0.00000264,0.0
 0001377,-0.00005783,-0.00000385,-0.00001894,0.00009839,-0.00002783,0.0
 0000301,0.03298520,-0.08225815,0.09348804,-0.00331979,0.00907748,-0.00
 350928,-0.00415785,0.00806130,0.00458904,0.00065213,-0.00029698,-0.000
 54505,-0.00421282,0.00213330,-0.00016475,-0.03000932,0.07561004,-0.000
 00713,-0.00006573,-0.00011075,-0.00000521,0.00001256,0.00052300,-0.002
 92789,-0.00142243,-0.00079804,0.00000270,0.00003422,-0.00004451,-0.000
 03033,-0.00010967,-0.00002216,0.00020572,-0.00025416,0.00007483,0.0006
 9895,-0.00010736,0.00124057,-0.00587538,0.00858657,-0.01609456,0.00016
 190,-0.00002317,0.00008661,-0.00003978,-0.00001957,0.00001697,-0.00007
 036,-0.00006650,0.00004102,-0.00007445,0.00003964,-0.00007472,0.000019
 96,0.00001791,-0.00000394,0.00009201,-0.00004980,0.00005102,0.00000312
 ,-0.00000984,0.00002124,0.00001442,-0.00001560,0.00000047,-0.00000691,
 0.00000526,-0.00000800,0.00001800,0.00000828,0.00002050,-0.00012406,0.
 00006971,0.00000837,-0.09081865,0.09597274,-0.27019709,-0.00112664,0.0
 0449399,-0.00082052,-0.00216197,0.00392569,0.00341718,-0.00033206,-0.0
 0068013,0.00027960,0.00308129,0.00144628,0.00311068,0.09827592,-0.1089
 3122,0.28220747,0.00001707,-0.00001095,-0.00003268,-0.00020743,0.00025
 189,-0.00006698,0.00048214,-0.00112691,0.00058682,-0.00009672,-0.00010
 065,-0.00006270,0.00000766,0.00000748,-0.00001123,-0.00013887,0.000011
 47,0.00011703,-0.00003945,0.00004585,-0.00002418,-0.00292966,-0.001277
 00,-0.00424612,0.00004702,0.00004908,-0.00002982,-0.00001242,-0.000007
 64,0.00000528,-0.00004310,-0.00003391,0.00001698,-0.00002120,-0.000004
 92,-0.00003369,-0.00002287,-0.00000853,0.00000179,0.00002226,0.0000042
 1,0.00002537,0.00000146,-0.00000064,0.00000947,-0.00000060,0.00000296,
 0.00000503,-0.00000015,0.00000389,-0.00000531,0.00001205,-0.00001576,-
 0.00002472,-0.00002441,0.00000056,-0.00001171,-0.01255615,-0.01428046,
 0.01862517,-0.17438843,-0.10885616,0.10641923,0.00969967,0.00666417,-0
 .00680091,-0.00009770,0.00071503,-0.00311098,-0.00085572,0.00026008,-0
 .00082758,0.00020671,0.00147356,0.00079602,0.18020099,-0.00001364,0.00
 004782,0.00003783,0.00025912,-0.00008668,0.00014330,0.00002621,0.00128
 908,0.00083910,0.00009598,0.00006260,0.00000422,-0.00000209,-0.0000271
 9,0.00000390,-0.00061243,-0.00004721,-0.00000814,-0.00000274,-0.000040
 85,0.00001123,-0.00159994,0.00663313,0.00151761,-0.00001187,0.00013488
 ,-0.00005283,0.00000461,0.00000158,-0.00000706,0.00003084,-0.00000247,
 -0.00002802,-0.00001820,-0.00000144,-0.00000120,-0.00003292,-0.0000189
 9,0.00000860,0.00000881,-0.00002102,0.00000031,-0.00000042,0.00000125,
 0.00000778,0.00000407,-0.00000612,-0.00000630,-0.00000258,-0.00000136,
 0.00000489,-0.00001432,0.00001199,0.00003100,-0.00001720,0.00001741,0.
 00000215,0.00056811,-0.00161239,0.00137518,-0.10932763,-0.12093347,0.1
 0241127,-0.00877940,-0.00306134,0.00248230,0.00028984,0.00121349,0.002
 84197,0.00100723,-0.00023412,0.00063331,0.00139004,-0.00370014,-0.0023
 7730,0.11601974,0.12125730,0.00001528,0.00004068,-0.00001541,0.0000555
 2,0.00003906,0.00006531,0.00015313,0.00033456,0.00096119,0.00000395,-0
 .00002457,-0.00004150,-0.00000697,-0.00001639,-0.00000595,-0.00061102,
 -0.00003564,0.00008808,-0.00004804,-0.00002897,-0.00001923,-0.00451193
 ,0.00168587,0.00216875,0.00003872,0.00014346,-0.00004141,-0.00000888,-
 0.00000849,0.00000165,-0.00002192,-0.00003439,0.00000295,-0.00004280,0
 .00000070,-0.00003877,-0.00004175,-0.00002039,0.00000708,0.00004321,-0
 .00002288,0.00003369,-0.00000103,-0.00000116,0.00001494,0.00000749,-0.
 00000476,-0.00000014,-0.00000122,0.00000306,-0.00000372,0.00000179,0.0
 0000360,0.00000910,-0.00004716,0.00002842,-0.00001121,-0.00803328,-0.0
 0758354,0.00764675,0.10742397,0.10255265,-0.14670976,0.02102230,0.0122
 3004,-0.00783113,-0.00229742,0.00309945,-0.00446616,-0.00210230,0.0000
 1376,-0.00166756,0.00105456,-0.00231582,-0.00062653,-0.11269293,-0.107
 93813,0.14839059,-0.00006557,0.00001575,-0.00014731,-0.00004087,0.0001
 6487,-0.00011678,0.00115835,0.00054332,-0.00162691,-0.00002549,-0.0000
 9323,0.00009478,0.00001568,-0.00006251,-0.00003878,-0.00006367,-0.0000
 4674,0.00048734,-0.00050559,-0.00004649,-0.00013080,-0.00649340,-0.002
 96549,-0.00128434,0.00004098,0.00009817,-0.00006055,-0.00007185,-0.000
 05843,0.00002733,0.00005355,0.00001199,0.00011802,-0.00016420,0.000081
 39,-0.00017362,-0.00000495,-0.00001701,0.00001741,0.00026496,-0.000065
 32,0.00014908,0.00002993,-0.00000034,0.00002940,0.00001023,-0.00003056
 ,0.00001780,-0.00001801,-0.00002577,-0.00002083,0.00001981,-0.00002727
 ,-0.00003605,-0.00028573,0.00008161,-0.00006312,-0.00098495,-0.0004714
 3,0.00066922,-0.00381280,-0.00350704,0.00172373,0.01799405,-0.00733192
 ,0.02432357,-0.09273678,0.02367363,-0.09155151,-0.00227120,0.01756118,
 -0.03397763,-0.00002029,0.00012520,-0.00000786,0.00062520,-0.00046937,
 0.00107351,0.08659760,0.00003458,0.00003404,-0.00002787,-0.00000345,0.
 00011667,0.00006509,0.00012781,0.00092577,-0.00006147,-0.00001160,-0.0
 0007944,-0.00001433,0.00001481,-0.00000443,0.00000730,-0.00022827,-0.0
 0014232,0.00003440,-0.00013435,-0.00006747,-0.00013480,-0.00326952,0.0
 0335472,0.00041024,0.00009701,0.00010823,-0.00003178,-0.00001070,0.000
 02010,-0.00000134,-0.00005771,-0.00008318,-0.00000826,0.00000257,0.000
 00082,0.00001811,-0.00001894,-0.00001089,-0.00000620,-0.00000822,-0.00
 011260,-0.00005445,-0.00001642,-0.00000558,0.00000411,0.00002036,-0.00
 001267,0.00000114,-0.00001347,0.00002380,-0.00000882,0.00000456,0.0000
 1951,-0.00000065,0.00006121,0.00017740,0.00007508,-0.00055410,-0.00073
 206,-0.00031314,-0.00383673,0.00141241,0.00217932,0.00753460,-0.004465
 89,0.01569207,0.02633880,-0.08849617,0.14918853,0.00153250,0.00447044,
 -0.00886987,0.00011312,-0.00025211,-0.00014149,0.00034230,0.00001439,0
 .00064708,-0.03005472,0.08909627,-0.00010697,-0.00003388,-0.00000716,-
 0.00007617,-0.00003940,-0.00015644,-0.00017231,0.00043648,0.00013940,0
 .00013464,0.00004376,0.00013393,0.00002055,-0.00007053,-0.00002010,0.0
 0021511,-0.00000949,0.00000065,0.00003188,-0.00005968,-0.00004285,-0.0
 0074880,0.00051785,0.00327405,-0.00019618,-0.00003489,0.00000228,-0.00
 004618,-0.00002430,0.00003523,0.00015759,0.00008081,0.00001520,0.00000
 605,0.00001928,0.00003105,0.00003297,-0.00000130,0.00000234,0.00012513
 ,-0.00007184,-0.00022524,0.00001289,0.00000206,-0.00000330,0.00000349,
 -0.00001324,0.,-0.00002814,-0.00002812,0.00001670,-0.00003562,-0.00001
 174,0.00000670,-0.00024432,0.00016645,0.00033108,0.00091268,-0.0002082
 5,0.00026788,0.00237269,0.00233275,0.00097079,-0.00398805,0.00610078,-
 0.01251658,-0.09635662,0.14792683,-0.35793361,-0.00431786,0.00093938,-
 0.00532940,0.00000941,-0.00012947,-0.00011141,-0.00041475,0.00013793,-
 0.00027552,0.10044905,-0.15446737,0.37178573,0.00082119,0.00017655,-0.
 00004834,-0.00006890,0.00091127,0.00116848,0.00528165,-0.00025689,0.00
 105533,-0.00093666,-0.00067919,-0.00103112,-0.00011212,0.00027969,0.00
 006172,-0.00306938,-0.00001384,0.00070275,-0.00032505,-0.00003539,-0.0
 0007072,-0.00783786,-0.00206656,-0.00193299,0.00140000,0.00088832,-0.0
 0028504,0.00017193,0.00013818,-0.00009097,-0.00112834,-0.00075472,-0.0
 0021716,0.00021179,-0.00034644,0.00008126,-0.00032930,-0.00008997,-0.0
 0007698,-0.00083800,0.00032976,0.00040396,-0.00014081,-0.00003746,0.00
 006502,0.00000376,0.00012595,-0.00003631,0.00014120,0.00023316,-0.0000
 3147,0.00020937,0.00008371,0.00001982,0.00111159,-0.00049334,-0.000756
 26,0.01088957,0.00367581,-0.00197023,-0.03191094,0.00210465,-0.0374684
 2,-0.58867371,-0.04855679,-0.22707985,-0.09133293,-0.03480201,-0.00412
 337,0.01631990,-0.00170653,0.00921998,-0.00099176,0.00045799,0.0001594
 6,-0.00020188,0.00122193,-0.00096842,-0.00130070,0.00164001,-0.0011883
 8,0.70245914,0.00012276,-0.00002254,0.00014214,0.00015027,-0.00005357,
 0.00020029,0.00022531,-0.00011586,-0.00031870,-0.00010327,0.00002699,-
 0.00019802,-0.00004697,0.00009328,0.00003405,-0.00002214,0.00021375,-0
 .00015548,-0.00020596,-0.00003480,-0.00012811,-0.00019388,0.00287422,-
 0.00556622,0.00005908,-0.00004405,0.00002073,0.00007054,0.00005920,-0.
 00004833,-0.00012468,-0.00002907,-0.00010880,0.00014461,-0.00010917,0.
 00011798,-0.00001520,0.00001487,-0.00002235,-0.00026540,0.00015335,-0.
 00001689,-0.00002178,0.00000130,-0.00001865,-0.00002368,0.00004670,-0.
 00000896,0.00003807,0.00002664,0.00001338,0.00000847,0.00000202,0.0000
 2126,0.00033160,-0.00020169,-0.00011728,-0.00362381,-0.00114971,0.0064
 7760,0.01253721,0.02229534,0.00833954,-0.05049384,-0.08708604,-0.00925
 996,-0.04679006,0.00798300,-0.00840963,0.00672728,0.00312988,0.0117213
 3,0.00143201,-0.00169060,-0.00095331,-0.00024262,-0.00069274,-0.002556
 06,0.00316969,-0.00139474,-0.00301086,0.08089900,0.05788174,0.00030485
 ,0.00009944,-0.00027790,-0.00027876,0.00054394,0.00040630,0.00302243,-
 0.00065626,0.00073387,-0.00047187,-0.00037976,-0.00024538,-0.00000783,
 0.00008320,-0.00004339,-0.00190117,-0.00012060,0.00089122,0.00013946,-
 0.00003311,0.00028899,-0.00438325,-0.00678125,0.00906093,0.00071492,0.
 00056519,-0.00022569,-0.00003517,-0.00003405,-0.00000784,-0.00049841,-
 0.00036606,0.00010128,-0.00018912,-0.00002449,-0.00030007,-0.00016754,
 -0.00007361,0.00000357,0.00012464,0.00001596,0.00039408,-0.00002535,-0
 .00002235,0.00007956,0.00002931,0.00001084,0.00001382,0.00004191,0.000
 08348,-0.00005770,0.00014089,0.00003178,-0.00004736,-0.00002329,-0.000
 01559,-0.00026663,0.01126527,0.01108504,-0.00961561,-0.05667036,0.0017
 8232,-0.01570727,-0.22348583,-0.00802404,-0.19833533,0.01859204,-0.000
 78467,0.03215923,-0.00684653,0.00617095,-0.00893473,-0.00150563,-0.001
 55937,-0.00082104,0.00154498,-0.00163850,0.00200363,-0.00423604,-0.004
 00256,0.00082743,0.26289354,0.00509293,0.18635349,-0.00015599,-0.00173
 890,0.00301532,0.00156195,-0.00125666,0.00097148,-0.01293896,0.0001014
 6,0.00416854,0.00024519,0.00060784,-0.00168078,-0.00038948,0.00046533,
 0.00054097,0.00145069,0.00394826,-0.00955048,0.00096612,0.00086205,-0.
 00001118,0.02504776,-0.00855399,0.02078893,0.00169069,-0.00151133,0.00
 124270,-0.00159061,0.00034708,-0.00260297,-0.00168321,-0.00010294,-0.0
 0269688,0.00277405,-0.00179915,0.00315770,-0.00007672,0.00024119,-0.00
 034971,-0.00846127,0.00300946,0.00130988,-0.00064361,0.00015931,-0.000
 59124,-0.00039033,0.00058946,-0.00037444,0.00039990,0.00062240,0.00023
 763,-0.00029897,0.00026620,0.00060091,0.00479744,-0.00232648,-0.002964
 63,-0.00644461,-0.00358596,-0.00122630,0.00271871,-0.00220528,0.006350
 12,0.01273514,0.01171050,-0.01888509,-0.07683983,-0.05226759,0.0368058
 9,-0.32586016,-0.18469010,0.19437201,0.00004457,0.00005643,0.00007922,
 0.00031454,-0.00002177,0.00054366,0.00205569,0.00035396,0.00343620,-0.
 00982275,-0.00374260,0.00191191,0.38879405,0.00014324,-0.00125980,0.00
 204765,0.00244119,-0.00267129,0.00052523,-0.00856528,-0.00357511,-0.00
 298879,-0.00078788,0.00124440,-0.00175477,-0.00115546,0.00113295,0.000
 77293,0.00581615,-0.00046248,0.00079987,0.00040502,0.00046783,-0.00005
 748,-0.01398683,-0.00885994,0.04544572,-0.00196663,-0.00232857,0.00013
 005,0.00030286,0.00052628,-0.00163545,-0.00095870,0.00044941,-0.001579
 26,0.00078103,-0.00002188,0.00020207,0.00025599,0.00046519,-0.00000996
 ,-0.00092464,0.00141478,-0.00019061,0.00008159,-0.00003785,-0.00020032
 ,-0.00018674,0.00025424,0.00009438,0.00040461,0.00031001,0.00022165,-0
 .00005888,0.00018442,0.00022949,0.00200169,-0.00273449,-0.00040738,0.0
 0277046,0.00413617,0.00225923,-0.00101668,-0.00185908,0.00081463,0.002
 99903,0.00861457,-0.00014510,-0.03788208,0.00269562,0.01034379,-0.1870
 7292,-0.23335652,0.16828121,-0.00083581,-0.00084746,0.00061443,0.00011
 388,-0.00019740,-0.00023120,-0.00025317,-0.00391504,-0.00048999,-0.003
 32686,-0.00217771,-0.00104882,0.24046182,0.24240875,0.00022189,-0.0004
 5522,-0.00160301,-0.00009247,0.00092656,-0.00030085,0.01245065,-0.0027
 1404,0.00166112,-0.00157181,-0.00052524,-0.00025619,-0.00072359,0.0001
 8408,-0.00082491,-0.00540161,0.00143471,0.00295070,-0.00022246,-0.0000
 7502,0.00048764,0.03016058,0.04933668,-0.05586761,0.00183330,0.0012904
 9,-0.00067368,-0.00179319,-0.00112371,-0.00091350,-0.00065495,-0.00028
 170,0.00119500,-0.00245156,0.00162957,-0.00399341,-0.00027784,-0.00021
 507,0.00031800,0.00772696,-0.00228171,0.00156243,0.00057117,-0.0002022
 5,0.00069212,0.00037799,-0.00049872,0.00049117,-0.00005493,-0.00003577
 ,-0.00032401,0.00045192,0.00000364,-0.00051999,-0.00709134,0.00256932,
 0.00094530,-0.01274055,-0.00134441,-0.00069978,0.00453699,0.00023381,0
 .00127902,-0.00299680,0.00542799,-0.00354206,0.01078431,0.00250888,0.0
 2400847,0.19756938,0.16684069,-0.27203558,0.00190760,0.00130770,-0.001
 36627,0.00024308,-0.00043640,0.00036029,0.00429191,-0.00017805,-0.0012
 1881,0.00154474,-0.00128358,0.00156855,-0.23859938,-0.22204323,0.30661
 984\\0.00000296,0.00000498,0.00000444,0.00000429,0.00000269,-0.0000068
 4,0.00001410,-0.00001063,-0.00000890,-0.00000322,0.00000554,0.00000723
 ,-0.00000013,-0.00000181,0.00000256,-0.00000554,0.00000401,0.00000792,
 -0.00000082,0.00000010,0.00000073,-0.00000628,0.00000370,-0.00000871,-
 0.00000135,-0.00000904,-0.00000321,-0.00000056,0.00000034,-0.00000035,
 -0.00000835,0.00000229,-0.00000062,-0.00000513,0.00000228,-0.00000385,
 -0.00000109,-0.00000058,-0.00000079,0.00000384,-0.00000364,0.00000116,
 0.00000079,-0.00000106,0.00000107,0.00000093,-0.00000130,-0.00000088,0
 .00000571,-0.00000090,-0.00000270,0.00000315,-0.00000175,0.00000142,-0
 .00000346,0.00000130,0.00000037,-0.00000210,-0.00000036,0.00000148,0.0
 0000093,0.00000340,0.00000331,0.00000128,-0.00000324,-0.00000891,-0.00
 000683,0.00000367,0.00000135,0.00000213,-0.00000873,0.00001293,-0.0000
 0006,-0.00000009,0.00000012,0.00000028,0.00000105,0.00000118,0.0000014
 5,0.00000103,0.00000025,0.00000108,0.00000232,0.00000350,0.00000203,0.
 00000441,-0.00000526\\\@
 The archive entry for this job was punched.


 SOME PHYSICISTS WOULD PREFER TO COME BACK TO THE IDEA OF AN OBJECTIVE
 REAL WORLD WHOSE SMALLEST PARTS EXIST OBJECTIVELY IN THE SAME SENSE AS
 STONES OR TREES EXIST INDEPENDENTLY OF WHETHER WE OBSERVE THEM.
 THIS, HOWEVER, IS IMPOSSIBLE.  -- WERNER HEISENBERG
 Job cpu time:       0 days 10 hours 40 minutes 16.1 seconds.
 Elapsed time:       0 days  0 hours 16 minutes  8.2 seconds.
 File lengths (MBytes):  RWF=    632 Int=      0 D2E=      0 Chk=     21 Scr=      1
 Normal termination of Gaussian 16 at Thu Oct 17 07:48:33 2024.
