 Entering Gaussian System, Link 0=g16
 Input=PseudoUridineNsllgPBE0aVDZ.gjf
 Output=PseudoUridineNsllgPBE0aVDZ.log
 Initial command:
 /sw/contrib/chem-src/g16/c01/g16/l1.exe "/scr/Gau-26110.inp" -scrdir="/scr/"
 Entering Link 1 = /sw/contrib/chem-src/g16/c01/g16/l1.exe PID=     26111.
  
 Copyright (c) 1988-2019, Gaussian, Inc.  All Rights Reserved.
  
 This is part of the Gaussian(R) 16 program.  It is based on
 the Gaussian(R) 09 system (copyright 2009, Gaussian, Inc.),
 the Gaussian(R) 03 system (copyright 2003, Gaussian, Inc.),
 the Gaussian(R) 98 system (copyright 1998, Gaussian, Inc.),
 the Gaussian(R) 94 system (copyright 1995, Gaussian, Inc.),
 the Gaussian 92(TM) system (copyright 1992, Gaussian, Inc.),
 the Gaussian 90(TM) system (copyright 1990, Gaussian, Inc.),
 the Gaussian 88(TM) system (copyright 1988, Gaussian, Inc.),
 the Gaussian 86(TM) system (copyright 1986, Carnegie Mellon
 University), and the Gaussian 82(TM) system (copyright 1983,
 Carnegie Mellon University). Gaussian is a federally registered
 trademark of Gaussian, Inc.
  
 This software contains proprietary and confidential information,
 including trade secrets, belonging to Gaussian, Inc.
  
 This software is provided under written license and may be
 used, copied, transmitted, or stored only in accord with that
 written license.
  
 The following legend is applicable only to US Government
 contracts under FAR:
  
                    RESTRICTED RIGHTS LEGEND
  
 Use, reproduction and disclosure by the US Government is
 subject to restrictions as set forth in subparagraphs (a)
 and (c) of the Commercial Computer Software - Restricted
 Rights clause in FAR 52.227-19.
  
 Gaussian, Inc.
 340 Quinnipiac St., Bldg. 40, Wallingford CT 06492
  
  
 ---------------------------------------------------------------
 Warning -- This program may not be used in any manner that
 competes with the business of Gaussian, Inc. or will provide
 assistance to any competitor of Gaussian, Inc.  The licensee
 of this program is prohibited from giving any competitor of
 Gaussian, Inc. access to this program.  By using this program,
 the user acknowledges that Gaussian, Inc. is engaged in the
 business of creating and licensing software in the field of
 computational chemistry and represents and warrants to the
 licensee that it is not a competitor of Gaussian, Inc. and that
 it will not use this program in any manner prohibited above.
 ---------------------------------------------------------------
  

 Cite this work as:
 Gaussian 16, Revision C.01,
 M. J. Frisch, G. W. Trucks, H. B. Schlegel, G. E. Scuseria, 
 M. A. Robb, J. R. Cheeseman, G. Scalmani, V. Barone, 
 G. A. Petersson, H. Nakatsuji, X. Li, M. Caricato, A. V. Marenich, 
 J. Bloino, B. G. Janesko, R. Gomperts, B. Mennucci, H. P. Hratchian, 
 J. V. Ortiz, A. F. Izmaylov, J. L. Sonnenberg, D. Williams-Young, 
 F. Ding, F. Lipparini, F. Egidi, J. Goings, B. Peng, A. Petrone, 
 T. Henderson, D. Ranasinghe, V. G. Zakrzewski, J. Gao, N. Rega, 
 G. Zheng, W. Liang, M. Hada, M. Ehara, K. Toyota, R. Fukuda, 
 J. Hasegawa, M. Ishida, T. Nakajima, Y. Honda, O. Kitao, H. Nakai, 
 T. Vreven, K. Throssell, J. A. Montgomery, Jr., J. E. Peralta, 
 F. Ogliaro, M. J. Bearpark, J. J. Heyd, E. N. Brothers, K. N. Kudin, 
 V. N. Staroverov, T. A. Keith, R. Kobayashi, J. Normand, 
 K. Raghavachari, A. P. Rendell, J. C. Burant, S. S. Iyengar, 
 J. Tomasi, M. Cossi, J. M. Millam, M. Klene, C. Adamo, R. Cammi, 
 J. W. Ochterski, R. L. Martin, K. Morokuma, O. Farkas, 
 J. B. Foresman, and D. J. Fox, Gaussian, Inc., Wallingford CT, 2019.
 
 ******************************************
 Gaussian 16:  EM64L-G16RevC.01  3-Jul-2019
                26-Oct-2024 
 ******************************************
 %nprocshared=40
 Will use up to   40 processors via shared memory.
 %mem=50gb
 ------------------------------------------------------
 # PBE1PBE/aug-cc-pVDZ opt freq EmpiricalDispersion=GD3
 ------------------------------------------------------
 1/18=20,19=15,26=3,38=1/1,3;
 2/9=110,12=2,17=6,18=5,40=1/2;
 3/5=16,7=10,11=2,25=1,30=1,71=1,74=-13,124=31/1,2,3;
 4//1;
 5/5=2,38=5/2;
 6/7=2,8=2,9=2,10=2,28=1/1;
 7//1,2,3,16;
 1/18=20,19=15,26=3/3(2);
 2/9=110/2;
 99//99;
 2/9=110/2;
 3/5=16,7=10,11=2,25=1,30=1,71=1,74=-13,124=31/1,2,3;
 4/5=5,16=3,69=1/1;
 5/5=2,38=5/2;
 7//1,2,3,16;
 1/18=20,19=15,26=3/3(-5);
 2/9=110/2;
 6/7=2,8=2,9=2,10=2,19=2,28=1/1;
 99/9=1/99;
 ----
 blah
 ----
 Symbolic Z-matrix:
 Charge =  0 Multiplicity = 1
 C                    -2.06019  -0.19892   0.80898 
 C                    -1.15747  -1.35494   0.38107 
 C                    -0.41591  -0.74392  -0.81642 
 O                    -2.01229  -2.40654  -0.02088 
 H                    -0.46345  -1.68095   1.16565 
 O                    -1.21237   0.29111  -1.32269 
 H                    -0.23302  -1.50225  -1.58756 
 C                     0.89851  -0.20909  -0.42226 
 C                    -2.39958   0.44481  -0.53658 
 H                    -1.46591   0.50555   1.40821 
 O                    -3.17274  -0.5701    1.5715 
 C                    -2.78638   1.90769  -0.49167 
 H                    -3.22407  -0.12056  -1.00467 
 O                    -1.82432   2.71857   0.16406 
 H                    -3.7785    1.9903   -0.02149 
 H                    -2.86781   2.28318  -1.5202 
 H                    -3.47247  -1.42319   1.23004 
 H                    -1.47863  -3.19226  -0.17549 
 H                    -2.03934   2.76584   1.09913 
 C                     1.13182   1.12973  -0.23367 
 N                     2.34524   1.60546   0.12699 
 C                     3.45641   0.69639   0.32396 
 N                     3.11222  -0.64934   0.11301 
 C                     1.88708  -1.16076  -0.23062 
 H                     0.26654   1.77158  -0.39363 
 H                     2.51407   2.66839   0.26971 
 H                     3.84781  -1.33144   0.25306 
 O                     4.59503   0.99011   0.64327 
 O                     1.66589  -2.35795  -0.35402 
 

 GradGradGradGradGradGradGradGradGradGradGradGradGradGradGradGradGradGrad
 Berny optimization.
 Initialization pass.
                           ----------------------------
                           !    Initial Parameters    !
                           ! (Angstroms and Degrees)  !
 --------------------------                            --------------------------
 ! Name  Definition              Value          Derivative Info.                !
 --------------------------------------------------------------------------------
 ! R1    R(1,2)                  1.5279         estimate D2E/DX2                !
 ! R2    R(1,9)                  1.5297         estimate D2E/DX2                !
 ! R3    R(1,10)                 1.0993         estimate D2E/DX2                !
 ! R4    R(1,11)                 1.3989         estimate D2E/DX2                !
 ! R5    R(2,3)                  1.5353         estimate D2E/DX2                !
 ! R6    R(2,4)                  1.4136         estimate D2E/DX2                !
 ! R7    R(2,5)                  1.097          estimate D2E/DX2                !
 ! R8    R(3,6)                  1.4007         estimate D2E/DX2                !
 ! R9    R(3,7)                  1.0969         estimate D2E/DX2                !
 ! R10   R(3,8)                  1.4728         estimate D2E/DX2                !
 ! R11   R(4,18)                 0.9623         estimate D2E/DX2                !
 ! R12   R(6,9)                  1.4321         estimate D2E/DX2                !
 ! R13   R(8,20)                 1.372          estimate D2E/DX2                !
 ! R14   R(8,24)                 1.3855         estimate D2E/DX2                !
 ! R15   R(9,12)                 1.5138         estimate D2E/DX2                !
 ! R16   R(9,13)                 1.1039         estimate D2E/DX2                !
 ! R17   R(11,17)                0.9665         estimate D2E/DX2                !
 ! R18   R(12,14)                1.4188         estimate D2E/DX2                !
 ! R19   R(12,15)                1.101          estimate D2E/DX2                !
 ! R20   R(12,16)                1.0979         estimate D2E/DX2                !
 ! R21   R(14,19)                0.9606         estimate D2E/DX2                !
 ! R22   R(20,21)                1.3523         estimate D2E/DX2                !
 ! R23   R(20,25)                1.0892         estimate D2E/DX2                !
 ! R24   R(21,22)                1.4491         estimate D2E/DX2                !
 ! R25   R(21,26)                1.0857         estimate D2E/DX2                !
 ! R26   R(22,23)                1.405          estimate D2E/DX2                !
 ! R27   R(22,28)                1.2185         estimate D2E/DX2                !
 ! R28   R(23,24)                1.3714         estimate D2E/DX2                !
 ! R29   R(23,27)                1.0129         estimate D2E/DX2                !
 ! R30   R(24,29)                1.2237         estimate D2E/DX2                !
 ! A1    A(2,1,9)              101.7198         estimate D2E/DX2                !
 ! A2    A(2,1,10)             108.5496         estimate D2E/DX2                !
 ! A3    A(2,1,11)             114.9476         estimate D2E/DX2                !
 ! A4    A(9,1,10)             109.2526         estimate D2E/DX2                !
 ! A5    A(9,1,11)             114.498          estimate D2E/DX2                !
 ! A6    A(10,1,11)            107.628          estimate D2E/DX2                !
 ! A7    A(1,2,3)              101.695          estimate D2E/DX2                !
 ! A8    A(1,2,4)              106.5724         estimate D2E/DX2                !
 ! A9    A(1,2,5)              113.4732         estimate D2E/DX2                !
 ! A10   A(3,2,4)              111.4918         estimate D2E/DX2                !
 ! A11   A(3,2,5)              111.7473         estimate D2E/DX2                !
 ! A12   A(4,2,5)              111.3984         estimate D2E/DX2                !
 ! A13   A(2,3,6)              107.5381         estimate D2E/DX2                !
 ! A14   A(2,3,7)              110.7153         estimate D2E/DX2                !
 ! A15   A(2,3,8)              111.521          estimate D2E/DX2                !
 ! A16   A(6,3,7)              110.5834         estimate D2E/DX2                !
 ! A17   A(6,3,8)              109.6254         estimate D2E/DX2                !
 ! A18   A(7,3,8)              106.8819         estimate D2E/DX2                !
 ! A19   A(2,4,18)             108.5267         estimate D2E/DX2                !
 ! A20   A(3,6,9)              110.6268         estimate D2E/DX2                !
 ! A21   A(3,8,20)             122.8813         estimate D2E/DX2                !
 ! A22   A(3,8,24)             115.1104         estimate D2E/DX2                !
 ! A23   A(20,8,24)            121.9994         estimate D2E/DX2                !
 ! A24   A(1,9,6)              104.6987         estimate D2E/DX2                !
 ! A25   A(1,9,12)             115.9281         estimate D2E/DX2                !
 ! A26   A(1,9,13)             108.8552         estimate D2E/DX2                !
 ! A27   A(6,9,12)             109.3784         estimate D2E/DX2                !
 ! A28   A(6,9,13)             109.3559         estimate D2E/DX2                !
 ! A29   A(12,9,13)            108.4616         estimate D2E/DX2                !
 ! A30   A(1,11,17)            106.7528         estimate D2E/DX2                !
 ! A31   A(9,12,14)            113.1252         estimate D2E/DX2                !
 ! A32   A(9,12,15)            108.3861         estimate D2E/DX2                !
 ! A33   A(9,12,16)            108.7628         estimate D2E/DX2                !
 ! A34   A(14,12,15)           111.7629         estimate D2E/DX2                !
 ! A35   A(14,12,16)           106.725          estimate D2E/DX2                !
 ! A36   A(15,12,16)           107.9113         estimate D2E/DX2                !
 ! A37   A(12,14,19)           109.0394         estimate D2E/DX2                !
 ! A38   A(8,20,21)            122.1753         estimate D2E/DX2                !
 ! A39   A(8,20,25)            114.8201         estimate D2E/DX2                !
 ! A40   A(21,20,25)           123.0044         estimate D2E/DX2                !
 ! A41   A(20,21,22)           120.2383         estimate D2E/DX2                !
 ! A42   A(20,21,26)           121.2657         estimate D2E/DX2                !
 ! A43   A(22,21,26)           118.495          estimate D2E/DX2                !
 ! A44   A(21,22,23)           113.1179         estimate D2E/DX2                !
 ! A45   A(21,22,28)           126.9373         estimate D2E/DX2                !
 ! A46   A(23,22,28)           119.9443         estimate D2E/DX2                !
 ! A47   A(22,23,24)           127.857          estimate D2E/DX2                !
 ! A48   A(22,23,27)           116.5101         estimate D2E/DX2                !
 ! A49   A(24,23,27)           115.613          estimate D2E/DX2                !
 ! A50   A(8,24,23)            114.5776         estimate D2E/DX2                !
 ! A51   A(8,24,29)            121.9433         estimate D2E/DX2                !
 ! A52   A(23,24,29)           123.4777         estimate D2E/DX2                !
 ! D1    D(9,1,2,3)             34.7796         estimate D2E/DX2                !
 ! D2    D(9,1,2,4)            -82.0893         estimate D2E/DX2                !
 ! D3    D(9,1,2,5)            154.9382         estimate D2E/DX2                !
 ! D4    D(10,1,2,3)           -80.3596         estimate D2E/DX2                !
 ! D5    D(10,1,2,4)           162.7715         estimate D2E/DX2                !
 ! D6    D(10,1,2,5)            39.7991         estimate D2E/DX2                !
 ! D7    D(11,1,2,3)           159.0829         estimate D2E/DX2                !
 ! D8    D(11,1,2,4)            42.214          estimate D2E/DX2                !
 ! D9    D(11,1,2,5)           -80.7584         estimate D2E/DX2                !
 ! D10   D(2,1,9,6)            -34.9546         estimate D2E/DX2                !
 ! D11   D(2,1,9,12)          -155.5491         estimate D2E/DX2                !
 ! D12   D(2,1,9,13)            81.8958         estimate D2E/DX2                !
 ! D13   D(10,1,9,6)            79.6656         estimate D2E/DX2                !
 ! D14   D(10,1,9,12)          -40.929          estimate D2E/DX2                !
 ! D15   D(10,1,9,13)         -163.484          estimate D2E/DX2                !
 ! D16   D(11,1,9,6)          -159.5597         estimate D2E/DX2                !
 ! D17   D(11,1,9,12)           79.8457         estimate D2E/DX2                !
 ! D18   D(11,1,9,13)          -42.7093         estimate D2E/DX2                !
 ! D19   D(2,1,11,17)          -35.6933         estimate D2E/DX2                !
 ! D20   D(9,1,11,17)           81.576          estimate D2E/DX2                !
 ! D21   D(10,1,11,17)        -156.7556         estimate D2E/DX2                !
 ! D22   D(1,2,3,6)            -23.7096         estimate D2E/DX2                !
 ! D23   D(1,2,3,7)           -144.6208         estimate D2E/DX2                !
 ! D24   D(1,2,3,8)             96.5065         estimate D2E/DX2                !
 ! D25   D(4,2,3,6)             89.528          estimate D2E/DX2                !
 ! D26   D(4,2,3,7)            -31.3832         estimate D2E/DX2                !
 ! D27   D(4,2,3,8)           -150.256          estimate D2E/DX2                !
 ! D28   D(5,2,3,6)           -145.0758         estimate D2E/DX2                !
 ! D29   D(5,2,3,7)             94.013          estimate D2E/DX2                !
 ! D30   D(5,2,3,8)            -24.8598         estimate D2E/DX2                !
 ! D31   D(1,2,4,18)          -171.9308         estimate D2E/DX2                !
 ! D32   D(3,2,4,18)            77.92           estimate D2E/DX2                !
 ! D33   D(5,2,4,18)           -47.6697         estimate D2E/DX2                !
 ! D34   D(2,3,6,9)              1.7932         estimate D2E/DX2                !
 ! D35   D(7,3,6,9)            122.7873         estimate D2E/DX2                !
 ! D36   D(8,3,6,9)           -119.6159         estimate D2E/DX2                !
 ! D37   D(2,3,8,20)          -102.1257         estimate D2E/DX2                !
 ! D38   D(2,3,8,24)            76.8045         estimate D2E/DX2                !
 ! D39   D(6,3,8,20)            16.8549         estimate D2E/DX2                !
 ! D40   D(6,3,8,24)          -164.2148         estimate D2E/DX2                !
 ! D41   D(7,3,8,20)           136.7411         estimate D2E/DX2                !
 ! D42   D(7,3,8,24)           -44.3287         estimate D2E/DX2                !
 ! D43   D(3,6,9,1)             21.1275         estimate D2E/DX2                !
 ! D44   D(3,6,9,12)           145.9789         estimate D2E/DX2                !
 ! D45   D(3,6,9,13)           -95.3777         estimate D2E/DX2                !
 ! D46   D(3,8,20,21)         -179.9277         estimate D2E/DX2                !
 ! D47   D(3,8,20,25)            0.2641         estimate D2E/DX2                !
 ! D48   D(24,8,20,21)           1.2145         estimate D2E/DX2                !
 ! D49   D(24,8,20,25)        -178.5937         estimate D2E/DX2                !
 ! D50   D(3,8,24,23)          178.9045         estimate D2E/DX2                !
 ! D51   D(3,8,24,29)           -1.5217         estimate D2E/DX2                !
 ! D52   D(20,8,24,23)          -2.1549         estimate D2E/DX2                !
 ! D53   D(20,8,24,29)         177.4189         estimate D2E/DX2                !
 ! D54   D(1,9,12,14)           53.8255         estimate D2E/DX2                !
 ! D55   D(1,9,12,15)          -70.7016         estimate D2E/DX2                !
 ! D56   D(1,9,12,16)          172.2212         estimate D2E/DX2                !
 ! D57   D(6,9,12,14)          -64.2142         estimate D2E/DX2                !
 ! D58   D(6,9,12,15)          171.2587         estimate D2E/DX2                !
 ! D59   D(6,9,12,16)           54.1815         estimate D2E/DX2                !
 ! D60   D(13,9,12,14)         176.5879         estimate D2E/DX2                !
 ! D61   D(13,9,12,15)          52.0608         estimate D2E/DX2                !
 ! D62   D(13,9,12,16)         -65.0164         estimate D2E/DX2                !
 ! D63   D(9,12,14,19)         -90.3625         estimate D2E/DX2                !
 ! D64   D(15,12,14,19)         32.3067         estimate D2E/DX2                !
 ! D65   D(16,12,14,19)        150.0646         estimate D2E/DX2                !
 ! D66   D(8,20,21,22)           0.2092         estimate D2E/DX2                !
 ! D67   D(8,20,21,26)         179.8368         estimate D2E/DX2                !
 ! D68   D(25,20,21,22)       -179.9983         estimate D2E/DX2                !
 ! D69   D(25,20,21,26)         -0.3708         estimate D2E/DX2                !
 ! D70   D(20,21,22,23)         -0.4861         estimate D2E/DX2                !
 ! D71   D(20,21,22,28)        179.7742         estimate D2E/DX2                !
 ! D72   D(26,21,22,23)        179.8761         estimate D2E/DX2                !
 ! D73   D(26,21,22,28)          0.1364         estimate D2E/DX2                !
 ! D74   D(21,22,23,24)         -0.665          estimate D2E/DX2                !
 ! D75   D(21,22,23,27)       -178.9592         estimate D2E/DX2                !
 ! D76   D(28,22,23,24)        179.095          estimate D2E/DX2                !
 ! D77   D(28,22,23,27)          0.8007         estimate D2E/DX2                !
 ! D78   D(22,23,24,8)           1.9468         estimate D2E/DX2                !
 ! D79   D(22,23,24,29)       -177.6196         estimate D2E/DX2                !
 ! D80   D(27,23,24,8)        -179.7459         estimate D2E/DX2                !
 ! D81   D(27,23,24,29)          0.6877         estimate D2E/DX2                !
 --------------------------------------------------------------------------------
 Trust Radius=3.00D-01 FncErr=1.00D-07 GrdErr=1.00D-06 EigMax=2.50D+02 EigMin=1.00D-04
 Number of steps in this run=    173 maximum allowed number of steps=    174.
 GradGradGradGradGradGradGradGradGradGradGradGradGradGradGradGradGradGrad

                          Input orientation:                          
 ---------------------------------------------------------------------
 Center     Atomic      Atomic             Coordinates (Angstroms)
 Number     Number       Type             X           Y           Z
 ---------------------------------------------------------------------
      1          6           0       -2.060190   -0.198915    0.808978
      2          6           0       -1.157472   -1.354936    0.381066
      3          6           0       -0.415910   -0.743922   -0.816421
      4          8           0       -2.012290   -2.406540   -0.020882
      5          1           0       -0.463454   -1.680945    1.165649
      6          8           0       -1.212374    0.291109   -1.322688
      7          1           0       -0.233022   -1.502250   -1.587558
      8          6           0        0.898514   -0.209092   -0.422259
      9          6           0       -2.399579    0.444811   -0.536581
     10          1           0       -1.465914    0.505552    1.408206
     11          8           0       -3.172745   -0.570095    1.571502
     12          6           0       -2.786376    1.907687   -0.491673
     13          1           0       -3.224069   -0.120555   -1.004675
     14          8           0       -1.824320    2.718567    0.164056
     15          1           0       -3.778503    1.990297   -0.021494
     16          1           0       -2.867814    2.283181   -1.520195
     17          1           0       -3.472470   -1.423194    1.230040
     18          1           0       -1.478630   -3.192260   -0.175489
     19          1           0       -2.039338    2.765840    1.099132
     20          6           0        1.131820    1.129731   -0.233672
     21          7           0        2.345241    1.605461    0.126986
     22          6           0        3.456408    0.696388    0.323958
     23          7           0        3.112220   -0.649336    0.113013
     24          6           0        1.887080   -1.160764   -0.230619
     25          1           0        0.266540    1.771582   -0.393632
     26          1           0        2.514069    2.668391    0.269708
     27          1           0        3.847805   -1.331441    0.253057
     28          8           0        4.595028    0.990106    0.643266
     29          8           0        1.665894   -2.357952   -0.354023
 ---------------------------------------------------------------------
                    Distance matrix (angstroms):
                    1          2          3          4          5
     1  C    0.000000
     2  C    1.527872   0.000000
     3  C    2.375418   1.535326   0.000000
     4  O    2.358934   1.413558   2.438362   0.000000
     5  H    2.207531   1.097048   2.192915   2.081643   0.000000
     6  O    2.345829   2.369653   1.400696   3.100302   3.262162
     7  H    3.283384   2.179860   1.096887   2.537323   2.768606
     8  C    3.204681   2.487040   1.472792   3.669150   2.557882
     9  C    1.529738   2.371496   2.329450   2.923378   3.341408
    10  H    1.099323   2.147456   2.759105   3.289544   2.417546
    11  O    1.398927   2.468692   3.651374   2.693487   2.956174
    12  C    2.580080   3.749628   3.571498   4.408334   4.584862
    13  H    2.156407   2.777552   2.882669   2.768029   3.842671
    14  O    2.997209   4.133425   3.864425   5.131886   4.712839
    15  H    2.904296   4.268775   4.406234   4.738321   5.086932
    16  H    3.498300   4.447017   3.958596   4.997334   5.358078
    17  H    1.915904   2.466705   3.740584   2.159607   3.020722
    18  H    3.204294   1.946447   2.744909   0.962316   2.261262
    19  H    2.978993   4.274822   4.315471   5.292323   4.718234
    20  C    3.611281   3.433996   2.499128   4.736657   3.521775
    21  N    4.809232   4.593202   3.746141   5.925040   4.446128
    22  C    5.609783   5.049661   4.286001   6.297121   4.661059
    23  N    5.238423   4.335896   3.649725   5.419068   3.867519
    24  C    4.193669   3.111456   2.412609   4.098906   2.783013
    25  H    3.277621   3.521801   2.640502   4.773752   3.858004
    26  H    5.425505   5.447915   4.626914   6.806416   5.346501
    27  H    6.041198   5.006969   4.434888   5.964193   4.420626
    28  O    6.762630   6.217654   5.499731   7.458884   5.744183
    29  O    4.460685   3.085092   2.674474   3.693559   2.702196
                    6          7          8          9         10
     6  O    0.000000
     7  H    2.060442   0.000000
     8  C    2.348792   2.076187   0.000000
     9  C    1.432147   3.096703   3.364235   0.000000
    10  H    2.751009   3.811285   3.074384   2.158151   0.000000
    11  O    3.600148   4.414810   4.547588   2.464109   2.024093
    12  C    2.404453   4.398665   4.250175   1.513815   2.705391
    13  H    2.077863   3.345922   4.164461   1.103872   3.050428
    14  O    2.911604   4.838975   4.040888   2.447812   2.563942
    15  H    3.341461   5.217363   5.183861   2.134309   3.097834
    16  H    2.597661   4.612608   4.647808   2.136901   3.701462
    17  H    3.816188   4.294081   4.828005   2.785945   2.788919
    18  H    3.677066   2.530141   3.822434   3.769194   4.022694
    19  H    3.559968   5.357021   4.449250   2.862255   2.352285
    20  C    2.717441   3.259314   1.372022   3.609937   3.135855
    21  N    4.060259   4.386909   2.384804   4.929579   4.168480
    22  C    4.967214   4.701042   2.814170   5.924222   5.043934
    23  N    4.652718   3.848383   2.319661   5.656771   4.895978
    24  C    3.592654   2.540222   1.385521   4.587693   4.087166
    25  H    2.289570   3.520369   2.079250   2.981434   2.801937
    26  H    4.698252   5.328245   3.371757   5.453288   4.670580
    27  H    5.542658   4.479976   3.227079   6.542813   5.739732
    28  O    6.170858   5.873541   4.029595   7.114346   6.128209
    29  O    4.029921   2.420685   2.282789   4.941344   4.594924
                   11         12         13         14         15
    11  O    0.000000
    12  C    3.247364   0.000000
    13  H    2.615609   2.137408   0.000000
    14  O    3.822885   1.418823   3.374292   0.000000
    15  H    3.075742   1.101003   2.393687   2.093714   0.000000
    16  H    4.218146   1.097946   2.484074   2.028581   1.777988
    17  H    0.966545   3.811796   2.598562   4.583329   3.648550
    18  H    3.577395   5.274432   3.628978   5.930655   5.672039
    19  H    3.554744   1.955800   3.763093   0.960643   2.209517
    20  C    4.967629   4.003004   4.596893   3.379549   4.989676
    21  N    6.104739   5.177603   5.939445   4.315741   6.137621
    22  C    6.863382   6.411307   6.860134   5.656931   7.357817
    23  N    6.452461   6.457356   6.455803   5.976186   7.380232
    24  C    5.403551   5.596850   5.273049   5.383258   6.486274
    25  H    4.601509   3.057521   4.017201   2.362095   4.068009
    26  H    6.672504   5.408612   6.506036   4.339965   6.335698
    27  H    7.183736   7.420171   7.284198   6.970186   8.322854
    28  O    7.977101   7.524305   8.067686   6.665227   8.459214
    29  O    5.506043   6.167441   5.416736   6.182317   6.975622
                   16         17         18         19         20
    16  H    0.000000
    17  H    4.654741   0.000000
    18  H    5.806765   3.013388   0.000000
    19  H    2.789302   4.429335   6.118661   0.000000
    20  C    4.356910   5.464372   5.049499   3.809129   0.000000
    21  N    5.508943   6.650958   6.142606   4.638543   1.352325
    22  C    6.776031   7.302257   6.302827   5.923407   2.429495
    23  N    6.857684   6.723448   5.256006   6.258946   2.684633
    24  C    6.011055   5.561220   3.931669   5.709923   2.411803
    25  H    3.369726   5.179102   5.266207   2.921295   1.089160
    26  H    5.684787   7.314503   7.105426   4.629358   2.128727
    27  H    7.830035   7.385753   5.658375   7.222327   3.697411
    28  O    7.876968   8.441140   7.419695   6.883012   3.575238
    29  O    6.592009   5.457638   3.258217   6.487962   3.530390
                   21         22         23         24         25
    21  N    0.000000
    22  C    1.449104   0.000000
    23  N    2.381714   1.404968   0.000000
    24  C    2.826622   2.493864   1.371353   0.000000
    25  H    2.149334   3.441836   3.770335   3.354307   0.000000
    26  H    1.085676   2.186262   3.374856   3.912272   2.509118
    27  H    3.301361   2.066473   1.012899   2.026701   4.782512
    28  O    2.388880   1.218476   2.273248   3.566917   4.519034
    29  O    4.049880   3.604801   2.286777   1.223687   4.360368
                   26         27         28         29
    26  H    0.000000
    27  H    4.216371   0.000000
    28  O    2.699366   2.469855   0.000000
    29  O    5.135423   2.486565   4.558937   0.000000
 Stoichiometry    C9H12N2O6
 Framework group  C1[X(C9H12N2O6)]
 Deg. of freedom    81
 Full point group                 C1      NOp   1
 Largest Abelian subgroup         C1      NOp   1
 Largest concise Abelian subgroup C1      NOp   1
                         Standard orientation:                         
 ---------------------------------------------------------------------
 Center     Atomic      Atomic             Coordinates (Angstroms)
 Number     Number       Type             X           Y           Z
 ---------------------------------------------------------------------
      1          6           0       -2.072443   -0.194998    0.806826
      2          6           0       -1.180065   -1.358894    0.378572
      3          6           0       -0.434490   -0.754799   -0.819933
      4          8           0       -2.044240   -2.403337   -0.022037
      5          1           0       -0.488084   -1.690461    1.162626
      6          8           0       -1.222575    0.286770   -1.325905
      7          1           0       -0.258854   -1.515020   -1.590891
      8          6           0        0.884848   -0.231044   -0.427318
      9          6           0       -2.407645    0.450982   -0.538702
     10          1           0       -1.471573    0.504640    1.405136
     11          8           0       -3.187376   -0.556298    1.570620
     12          6           0       -2.781876    1.917132   -0.494105
     13          1           0       -3.237401   -0.107531   -1.005717
     14          8           0       -1.812274    2.720061    0.160294
     15          1           0       -3.772795    2.008441   -0.022989
     16          1           0       -2.861117    2.292832   -1.522724
     17          1           0       -3.494722   -1.406961    1.229857
     18          1           0       -1.517470   -3.193663   -0.176798
     19          1           0       -2.025956    2.769605    1.095558
     20          6           0        1.129779    1.105823   -0.239593
     21          7           0        2.347579    1.571327    0.119646
     22          6           0        3.451127    0.652878    0.315953
     23          7           0        3.095237   -0.689952    0.105983
     24          6           0        1.865430   -1.191045   -0.236201
     25          1           0        0.269860    1.754974   -0.399005
     26          1           0        2.525629    2.632841    0.261699
     27          1           0        3.825101   -1.378256    0.245626
     28          8           0        4.592531    0.936998    0.634002
     29          8           0        1.633894   -2.386355   -0.358821
 ---------------------------------------------------------------------
 Rotational constants (GHZ):           0.7878421           0.3297738           0.2607532
 Standard basis: Aug-CC-pVDZ (5D, 7F)
 There are   533 symmetry adapted cartesian basis functions of A   symmetry.
 There are   499 symmetry adapted basis functions of A   symmetry.
   499 basis functions,   863 primitive gaussians,   533 cartesian basis functions
    64 alpha electrons       64 beta electrons
       nuclear repulsion energy      1323.8234983203 Hartrees.
 NAtoms=   29 NActive=   29 NUniq=   29 SFac= 1.00D+00 NAtFMM=   60 NAOKFM=F Big=F
 Integral buffers will be    131072 words long.
 Raffenetti 2 integral format.
 Two-electron integral symmetry is turned on.
 Nuclear repulsion after empirical dispersion term =     1323.8028289617 Hartrees.
 One-electron integrals computed using PRISM.
 NBasis=   499 RedAO= T EigKep=  2.92D-06  NBF=   499
 NBsUse=   499 1.00D-06 EigRej= -1.00D+00 NBFU=   499
 ExpMin= 2.97D-02 ExpMax= 1.17D+04 ExpMxC= 4.01D+02 IAcc=3 IRadAn=         5 AccDes= 0.00D+00
 Harris functional with IExCor= 1009 and IRadAn=       5 diagonalized for initial guess.
 HarFok:  IExCor= 1009 AccDes= 0.00D+00 IRadAn=         5 IDoV= 1 UseB2=F ITyADJ=14
 ICtDFT=  3500011 ScaDFX=  1.000000  1.000000  1.000000  1.000000
 FoFCou: FMM=F IPFlag=           0 FMFlag=      100000 FMFlg1=           0
         NFxFlg=           0 DoJE=T BraDBF=F KetDBF=T FulRan=T
         wScrn=  0.000000 ICntrl=       500 IOpCl=  0 I1Cent=   200000004 NGrid=           0
         NMat0=    1 NMatS0=      1 NMatT0=    0 NMatD0=    1 NMtDS0=    0 NMtDT0=    0
 Petite list used in FoFCou.
 Requested convergence on RMS density matrix=1.00D-08 within 128 cycles.
 Requested convergence on MAX density matrix=1.00D-06.
 Requested convergence on             energy=1.00D-06.
 No special actions if energy rises.
 SCF Done:  E(RPBE1PBE) =  -910.209866567     A.U. after   14 cycles
            NFock= 14  Conv=0.82D-08     -V/T= 2.0053

 **********************************************************************

            Population analysis using the SCF Density.

 **********************************************************************

 Orbital symmetries:
       Occupied  (A) (A) (A) (A) (A) (A) (A) (A) (A) (A) (A) (A)
                 (A) (A) (A) (A) (A) (A) (A) (A) (A) (A) (A) (A)
                 (A) (A) (A) (A) (A) (A) (A) (A) (A) (A) (A) (A)
                 (A) (A) (A) (A) (A) (A) (A) (A) (A) (A) (A) (A)
                 (A) (A) (A) (A) (A) (A) (A) (A) (A) (A) (A) (A)
                 (A) (A) (A) (A)
       Virtual   (A) (A) (A) (A) (A) (A) (A) (A) (A) (A) (A) (A)
                 (A) (A) (A) (A) (A) (A) (A) (A) (A) (A) (A) (A)
                 (A) (A) (A) (A) (A) (A) (A) (A) (A) (A) (A) (A)
                 (A) (A) (A) (A) (A) (A) (A) (A) (A) (A) (A) (A)
                 (A) (A) (A) (A) (A) (A) (A) (A) (A) (A) (A) (A)
                 (A) (A) (A) (A) (A) (A) (A) (A) (A) (A) (A) (A)
                 (A) (A) (A) (A) (A) (A) (A) (A) (A) (A) (A) (A)
                 (A) (A) (A) (A) (A) (A) (A) (A) (A) (A) (A) (A)
                 (A) (A) (A) (A) (A) (A) (A) (A) (A) (A) (A) (A)
                 (A) (A) (A) (A) (A) (A) (A) (A) (A) (A) (A) (A)
                 (A) (A) (A) (A) (A) (A) (A) (A) (A) (A) (A) (A)
                 (A) (A) (A) (A) (A) (A) (A) (A) (A) (A) (A) (A)
                 (A) (A) (A) (A) (A) (A) (A) (A) (A) (A) (A) (A)
                 (A) (A) (A) (A) (A) (A) (A) (A) (A) (A) (A) (A)
                 (A) (A) (A) (A) (A) (A) (A) (A) (A) (A) (A) (A)
                 (A) (A) (A) (A) (A) (A) (A) (A) (A) (A) (A) (A)
                 (A) (A) (A) (A) (A) (A) (A) (A) (A) (A) (A) (A)
                 (A) (A) (A) (A) (A) (A) (A) (A) (A) (A) (A) (A)
                 (A) (A) (A) (A) (A) (A) (A) (A) (A) (A) (A) (A)
                 (A) (A) (A) (A) (A) (A) (A) (A) (A) (A) (A) (A)
                 (A) (A) (A) (A) (A) (A) (A) (A) (A) (A) (A) (A)
                 (A) (A) (A) (A) (A) (A) (A) (A) (A) (A) (A) (A)
                 (A) (A) (A) (A) (A) (A) (A) (A) (A) (A) (A) (A)
                 (A) (A) (A) (A) (A) (A) (A) (A) (A) (A) (A) (A)
                 (A) (A) (A) (A) (A) (A) (A) (A) (A) (A) (A) (A)
                 (A) (A) (A) (A) (A) (A) (A) (A) (A) (A) (A) (A)
                 (A) (A) (A) (A) (A) (A) (A) (A) (A) (A) (A) (A)
                 (A) (A) (A) (A) (A) (A) (A) (A) (A) (A) (A) (A)
                 (A) (A) (A) (A) (A) (A) (A) (A) (A) (A) (A) (A)
                 (A) (A) (A) (A) (A) (A) (A) (A) (A) (A) (A) (A)
                 (A) (A) (A) (A) (A) (A) (A) (A) (A) (A) (A) (A)
                 (A) (A) (A) (A) (A) (A) (A) (A) (A) (A) (A) (A)
                 (A) (A) (A) (A) (A) (A) (A) (A) (A) (A) (A) (A)
                 (A) (A) (A) (A) (A) (A) (A) (A) (A) (A) (A) (A)
                 (A) (A) (A) (A) (A) (A) (A) (A) (A) (A) (A) (A)
                 (A) (A) (A) (A) (A) (A) (A) (A) (A) (A) (A) (A)
                 (A) (A) (A)
 The electronic state is 1-A.
 Alpha  occ. eigenvalues --  -19.24839 -19.24836 -19.24054 -19.23819 -19.22515
 Alpha  occ. eigenvalues --  -19.20488 -14.49096 -14.46368 -10.40691 -10.34586
 Alpha  occ. eigenvalues --  -10.31204 -10.29734 -10.29575 -10.29231 -10.29172
 Alpha  occ. eigenvalues --  -10.28963 -10.24557  -1.12027  -1.10918  -1.08768
 Alpha  occ. eigenvalues --   -1.08273  -1.07359  -1.06381  -1.01784  -0.96763
 Alpha  occ. eigenvalues --   -0.85491  -0.81030  -0.78594  -0.72821  -0.70364
 Alpha  occ. eigenvalues --   -0.69196  -0.65088  -0.62863  -0.59825  -0.59484
 Alpha  occ. eigenvalues --   -0.57132  -0.55839  -0.54444  -0.53533  -0.50930
 Alpha  occ. eigenvalues --   -0.50361  -0.49476  -0.49341  -0.48184  -0.47004
 Alpha  occ. eigenvalues --   -0.45733  -0.44801  -0.43664  -0.43393  -0.42381
 Alpha  occ. eigenvalues --   -0.41626  -0.39625  -0.38922  -0.38203  -0.36847
 Alpha  occ. eigenvalues --   -0.35539  -0.32957  -0.32392  -0.31274  -0.31244
 Alpha  occ. eigenvalues --   -0.29606  -0.28969  -0.27789  -0.25542
 Alpha virt. eigenvalues --   -0.04914  -0.02030  -0.00666  -0.00621   0.00086
 Alpha virt. eigenvalues --    0.00612   0.01269   0.02079   0.02705   0.03322
 Alpha virt. eigenvalues --    0.03644   0.04168   0.05177   0.05692   0.05999
 Alpha virt. eigenvalues --    0.06190   0.06650   0.07412   0.07904   0.08203
 Alpha virt. eigenvalues --    0.08465   0.08711   0.09219   0.09252   0.09797
 Alpha virt. eigenvalues --    0.10007   0.10544   0.11196   0.11373   0.11411
 Alpha virt. eigenvalues --    0.11708   0.11953   0.12233   0.12453   0.12676
 Alpha virt. eigenvalues --    0.13039   0.13112   0.13538   0.14241   0.14288
 Alpha virt. eigenvalues --    0.15099   0.15316   0.15754   0.16025   0.16442
 Alpha virt. eigenvalues --    0.17086   0.17286   0.17587   0.17821   0.18419
 Alpha virt. eigenvalues --    0.18556   0.19197   0.19569   0.19681   0.20359
 Alpha virt. eigenvalues --    0.20691   0.20872   0.21547   0.21751   0.22366
 Alpha virt. eigenvalues --    0.22722   0.22940   0.23111   0.23559   0.23712
 Alpha virt. eigenvalues --    0.24501   0.24773   0.25070   0.25511   0.25700
 Alpha virt. eigenvalues --    0.25956   0.26221   0.26911   0.27106   0.27413
 Alpha virt. eigenvalues --    0.27714   0.28214   0.28252   0.29091   0.29137
 Alpha virt. eigenvalues --    0.29288   0.29506   0.29808   0.29985   0.30364
 Alpha virt. eigenvalues --    0.31002   0.31166   0.31338   0.31549   0.32252
 Alpha virt. eigenvalues --    0.32762   0.33092   0.33504   0.34099   0.34592
 Alpha virt. eigenvalues --    0.35038   0.36060   0.36265   0.36521   0.36972
 Alpha virt. eigenvalues --    0.37290   0.37900   0.38248   0.38522   0.38601
 Alpha virt. eigenvalues --    0.39072   0.39363   0.40260   0.40929   0.41262
 Alpha virt. eigenvalues --    0.41811   0.42471   0.42759   0.43088   0.43649
 Alpha virt. eigenvalues --    0.44616   0.45028   0.45728   0.45961   0.46584
 Alpha virt. eigenvalues --    0.46864   0.47531   0.47919   0.48730   0.49119
 Alpha virt. eigenvalues --    0.49629   0.50096   0.50371   0.51254   0.51489
 Alpha virt. eigenvalues --    0.52190   0.52535   0.53326   0.54302   0.54423
 Alpha virt. eigenvalues --    0.55034   0.55680   0.56311   0.56352   0.57590
 Alpha virt. eigenvalues --    0.58015   0.58486   0.58844   0.59374   0.59468
 Alpha virt. eigenvalues --    0.59956   0.60747   0.60983   0.61962   0.62378
 Alpha virt. eigenvalues --    0.62422   0.62972   0.63606   0.64085   0.64886
 Alpha virt. eigenvalues --    0.65603   0.65957   0.66246   0.66845   0.67275
 Alpha virt. eigenvalues --    0.67594   0.68074   0.68787   0.68868   0.69448
 Alpha virt. eigenvalues --    0.69666   0.70246   0.70750   0.71509   0.72199
 Alpha virt. eigenvalues --    0.73391   0.73839   0.74220   0.74504   0.75522
 Alpha virt. eigenvalues --    0.75886   0.76463   0.76966   0.77536   0.78009
 Alpha virt. eigenvalues --    0.78189   0.78447   0.79972   0.80299   0.80795
 Alpha virt. eigenvalues --    0.81580   0.82116   0.82754   0.82981   0.83606
 Alpha virt. eigenvalues --    0.83965   0.85569   0.85928   0.86438   0.87456
 Alpha virt. eigenvalues --    0.87927   0.88757   0.89590   0.90305   0.90573
 Alpha virt. eigenvalues --    0.92372   0.92893   0.94213   0.94491   0.94808
 Alpha virt. eigenvalues --    0.96160   0.96807   0.97422   0.98664   0.98794
 Alpha virt. eigenvalues --    1.00361   1.02020   1.03279   1.04558   1.04695
 Alpha virt. eigenvalues --    1.05493   1.05666   1.06488   1.07435   1.08359
 Alpha virt. eigenvalues --    1.08631   1.09308   1.10977   1.11540   1.11872
 Alpha virt. eigenvalues --    1.12168   1.13363   1.13920   1.15357   1.16110
 Alpha virt. eigenvalues --    1.16769   1.18056   1.18891   1.20477   1.21030
 Alpha virt. eigenvalues --    1.22290   1.22833   1.23049   1.24478   1.24817
 Alpha virt. eigenvalues --    1.25085   1.25931   1.26301   1.28094   1.30452
 Alpha virt. eigenvalues --    1.31327   1.32379   1.32806   1.34402   1.34857
 Alpha virt. eigenvalues --    1.37048   1.37077   1.37756   1.39035   1.39422
 Alpha virt. eigenvalues --    1.40783   1.41468   1.42626   1.43538   1.45859
 Alpha virt. eigenvalues --    1.46368   1.47137   1.47556   1.48761   1.49137
 Alpha virt. eigenvalues --    1.50794   1.52530   1.52968   1.53320   1.54348
 Alpha virt. eigenvalues --    1.55614   1.56435   1.56746   1.57378   1.59619
 Alpha virt. eigenvalues --    1.60430   1.61018   1.61668   1.62852   1.64043
 Alpha virt. eigenvalues --    1.66217   1.66552   1.67183   1.68507   1.69066
 Alpha virt. eigenvalues --    1.69283   1.70562   1.71098   1.72835   1.74333
 Alpha virt. eigenvalues --    1.74777   1.77062   1.77234   1.78388   1.78861
 Alpha virt. eigenvalues --    1.80223   1.81005   1.81218   1.82214   1.83573
 Alpha virt. eigenvalues --    1.84147   1.85828   1.86421   1.88082   1.89165
 Alpha virt. eigenvalues --    1.90737   1.91254   1.93028   1.93272   1.93931
 Alpha virt. eigenvalues --    1.94933   1.95079   1.95958   1.97321   1.98276
 Alpha virt. eigenvalues --    2.00010   2.00760   2.02025   2.02630   2.03892
 Alpha virt. eigenvalues --    2.04596   2.05212   2.06763   2.08423   2.08997
 Alpha virt. eigenvalues --    2.09583   2.10426   2.11323   2.12750   2.13396
 Alpha virt. eigenvalues --    2.14359   2.15041   2.16560   2.16915   2.18255
 Alpha virt. eigenvalues --    2.20050   2.20615   2.21316   2.22131   2.23576
 Alpha virt. eigenvalues --    2.24049   2.25490   2.27288   2.28101   2.28501
 Alpha virt. eigenvalues --    2.29575   2.31282   2.32797   2.34341   2.34812
 Alpha virt. eigenvalues --    2.37521   2.39539   2.40087   2.41974   2.43488
 Alpha virt. eigenvalues --    2.44575   2.45211   2.45951   2.47323   2.48313
 Alpha virt. eigenvalues --    2.49670   2.50013   2.51849   2.52731   2.53907
 Alpha virt. eigenvalues --    2.56035   2.56323   2.58321   2.59315   2.60852
 Alpha virt. eigenvalues --    2.62625   2.63636   2.67893   2.69517   2.69750
 Alpha virt. eigenvalues --    2.72000   2.76003   2.77226   2.77978   2.79631
 Alpha virt. eigenvalues --    2.81901   2.83267   2.84066   2.86519   2.89263
 Alpha virt. eigenvalues --    2.90891   2.91721   2.95058   2.95844   2.97648
 Alpha virt. eigenvalues --    3.01017   3.07950   3.14750   3.16086   3.22066
 Alpha virt. eigenvalues --    3.28285   3.30353   3.33312   3.35289   3.35650
 Alpha virt. eigenvalues --    3.42047   3.42353   3.44817   3.45656   3.46351
 Alpha virt. eigenvalues --    3.48538   3.48802   3.49155   3.52044   3.52570
 Alpha virt. eigenvalues --    3.53189   3.54882   3.57047   3.58112   3.59061
 Alpha virt. eigenvalues --    3.60578   3.62139   3.64383   3.65872   3.67629
 Alpha virt. eigenvalues --    3.68540   3.70063   3.70679   3.73398   3.78040
 Alpha virt. eigenvalues --    3.80455   3.84701   3.87940   3.97187   4.01920
 Alpha virt. eigenvalues --    4.04579   4.10531   4.17374   4.40363   4.58141
          Condensed to atoms (all electrons):
               1          2          3          4          5          6
     1  C    8.320845  -1.624564   1.294959   0.054894   0.287136   0.137803
     2  C   -1.624564   9.220884  -2.588778  -0.603389  -1.170722  -0.108778
     3  C    1.294959  -2.588778  13.533682   0.070852   0.561897  -0.249327
     4  O    0.054894  -0.603389   0.070852   8.703973  -0.033663   0.021014
     5  H    0.287136  -1.170722   0.561897  -0.033663   2.246378  -0.001392
     6  O    0.137803  -0.108778  -0.249327   0.021014  -0.001392   9.479015
     7  H   -0.108180   0.234960  -0.836900   0.018144   0.090825  -0.229670
     8  C   -0.142462   0.897548  -2.230727   0.037456  -0.360774   0.140610
     9  C   -1.943136   0.642238  -2.101018   0.115876   0.027708  -0.155984
    10  H   -0.567833   0.097400   0.026937   0.019742  -0.181774   0.012759
    11  O   -0.255959  -0.009164  -0.042128  -0.011591   0.027378  -0.013643
    12  C   -0.300518  -0.101106   0.190877   0.007561   0.031453  -0.127298
    13  H    0.311893  -0.102297   0.336959  -0.018420  -0.004932  -0.095691
    14  O   -0.051798   0.034962  -0.013146  -0.001834  -0.002012   0.006923
    15  H    0.068670   0.065341  -0.033351  -0.002655   0.003318   0.096497
    16  H   -0.030729  -0.039292  -0.008878   0.000681  -0.000858  -0.097000
    17  H   -0.159896   0.026234   0.018394   0.019116  -0.005834   0.002041
    18  H   -0.028336   0.112758  -0.080097   0.338371  -0.103694   0.004891
    19  H   -0.058017  -0.002634  -0.000476  -0.000288   0.000180  -0.015641
    20  C    0.023316  -0.417681  -1.929062   0.052529  -0.020983   0.049605
    21  N    0.030776  -0.006079   0.339072  -0.001572   0.008695   0.022499
    22  C   -0.012335   0.000069  -0.377569   0.002050  -0.010616   0.010629
    23  N    0.004173  -0.013692  -0.342023   0.002743  -0.015839   0.004517
    24  C   -0.103278   0.189380  -0.435974  -0.014933   0.101194  -0.095863
    25  H   -0.024295   0.021969   0.141759   0.002137   0.020273  -0.025130
    26  H    0.000379  -0.002656  -0.003134   0.000108  -0.000464  -0.002697
    27  H   -0.000520   0.001809   0.021524   0.000050   0.000187   0.001287
    28  O    0.001173  -0.001964   0.014027  -0.000002  -0.000092   0.000104
    29  O   -0.005521   0.048036  -0.128637  -0.003936  -0.039463   0.009362
               7          8          9         10         11         12
     1  C   -0.108180  -0.142462  -1.943136  -0.567833  -0.255959  -0.300518
     2  C    0.234960   0.897548   0.642238   0.097400  -0.009164  -0.101106
     3  C   -0.836900  -2.230727  -2.101018   0.026937  -0.042128   0.190877
     4  O    0.018144   0.037456   0.115876   0.019742  -0.011591   0.007561
     5  H    0.090825  -0.360774   0.027708  -0.181774   0.027378   0.031453
     6  O   -0.229670   0.140610  -0.155984   0.012759  -0.013643  -0.127298
     7  H    1.928853   0.248432   0.237779  -0.025135   0.007372   0.009719
     8  C    0.248432  13.634612   0.413011  -0.057061   0.008226  -0.119680
     9  C    0.237779   0.413011   9.416033  -0.230792   0.239803  -0.062142
    10  H   -0.025135  -0.057061  -0.230792   2.362907  -0.172817  -0.082880
    11  O    0.007372   0.008226   0.239803  -0.172817   8.491377   0.016147
    12  C    0.009719  -0.119680  -0.062142  -0.082880   0.016147   5.135363
    13  H    0.009165  -0.114453  -1.225808   0.119695  -0.026072  -0.020229
    14  O   -0.002104   0.063898  -0.052310  -0.001944   0.007349   0.169555
    15  H   -0.001505   0.040878  -0.035453  -0.035934   0.000661   0.029840
    16  H    0.000435  -0.036992   0.319452   0.031031  -0.000941   0.056537
    17  H   -0.001233  -0.017812   0.009435   0.032230   0.355286  -0.006620
    18  H   -0.022709   0.046738  -0.027381   0.005869   0.000271  -0.004213
    19  H    0.001192  -0.019976   0.066613   0.011503   0.000013   0.003923
    20  C   -0.060905  -3.406747  -0.151227   0.129256  -0.000600  -0.056339
    21  N   -0.007988   0.239585  -0.016887  -0.006870  -0.000894  -0.005441
    22  C   -0.008088   0.030969  -0.000757   0.003339   0.000478  -0.014368
    23  N    0.011001   0.133413  -0.006868   0.009278   0.000101  -0.002575
    24  C   -0.062227  -4.457414   0.009046  -0.043930   0.004535   0.019121
    25  H    0.028787   0.169840  -0.065382  -0.031339   0.000866   0.077284
    26  H   -0.000502   0.062016   0.001505   0.000464   0.000062  -0.001782
    27  H   -0.001433   0.156293   0.000726   0.000044  -0.000010  -0.000164
    28  O    0.000711   0.033370  -0.000298  -0.000053  -0.000012   0.000399
    29  O   -0.003141   0.060492   0.006127   0.007268  -0.001027  -0.002319
              13         14         15         16         17         18
     1  C    0.311893  -0.051798   0.068670  -0.030729  -0.159896  -0.028336
     2  C   -0.102297   0.034962   0.065341  -0.039292   0.026234   0.112758
     3  C    0.336959  -0.013146  -0.033351  -0.008878   0.018394  -0.080097
     4  O   -0.018420  -0.001834  -0.002655   0.000681   0.019116   0.338371
     5  H   -0.004932  -0.002012   0.003318  -0.000858  -0.005834  -0.103694
     6  O   -0.095691   0.006923   0.096497  -0.097000   0.002041   0.004891
     7  H    0.009165  -0.002104  -0.001505   0.000435  -0.001233  -0.022709
     8  C   -0.114453   0.063898   0.040878  -0.036992  -0.017812   0.046738
     9  C   -1.225808  -0.052310  -0.035453   0.319452   0.009435  -0.027381
    10  H    0.119695  -0.001944  -0.035934   0.031031   0.032230   0.005869
    11  O   -0.026072   0.007349   0.000661  -0.000941   0.355286   0.000271
    12  C   -0.020229   0.169555   0.029840   0.056537  -0.006620  -0.004213
    13  H    2.450657   0.022593  -0.109760  -0.018794   0.000674   0.002165
    14  O    0.022593   8.364859  -0.041003  -0.170929   0.000772   0.000140
    15  H   -0.109760  -0.041003   1.633713  -0.386957   0.003061   0.000224
    16  H   -0.018794  -0.170929  -0.386957   1.546868  -0.001861  -0.000669
    17  H    0.000674   0.000772   0.003061  -0.001861   0.632016  -0.001497
    18  H    0.002165   0.000140   0.000224  -0.000669  -0.001497   0.611489
    19  H    0.004970   0.320965  -0.074844   0.030928  -0.000128  -0.000149
    20  C    0.045867  -0.110265  -0.038609   0.052913  -0.005934   0.009900
    21  N   -0.002552   0.019258   0.002067  -0.003108   0.000435  -0.001256
    22  C   -0.000117  -0.000984  -0.000634   0.000029  -0.000198   0.001427
    23  N    0.000544  -0.000626  -0.000093  -0.000306  -0.000190   0.002689
    24  C   -0.005758   0.001945   0.001377   0.002033   0.003573  -0.019325
    25  H    0.013395   0.003112  -0.007107   0.009819   0.000813  -0.001141
    26  H    0.000130   0.000054  -0.000074   0.000140  -0.000014   0.000005
    27  H    0.000063  -0.000092  -0.000021   0.000040  -0.000009  -0.000188
    28  O   -0.000011   0.000061   0.000037  -0.000003  -0.000005  -0.000038
    29  O   -0.000010  -0.000154  -0.000021  -0.000169  -0.000075   0.007981
              19         20         21         22         23         24
     1  C   -0.058017   0.023316   0.030776  -0.012335   0.004173  -0.103278
     2  C   -0.002634  -0.417681  -0.006079   0.000069  -0.013692   0.189380
     3  C   -0.000476  -1.929062   0.339072  -0.377569  -0.342023  -0.435974
     4  O   -0.000288   0.052529  -0.001572   0.002050   0.002743  -0.014933
     5  H    0.000180  -0.020983   0.008695  -0.010616  -0.015839   0.101194
     6  O   -0.015641   0.049605   0.022499   0.010629   0.004517  -0.095863
     7  H    0.001192  -0.060905  -0.007988  -0.008088   0.011001  -0.062227
     8  C   -0.019976  -3.406747   0.239585   0.030969   0.133413  -4.457414
     9  C    0.066613  -0.151227  -0.016887  -0.000757  -0.006868   0.009046
    10  H    0.011503   0.129256  -0.006870   0.003339   0.009278  -0.043930
    11  O    0.000013  -0.000600  -0.000894   0.000478   0.000101   0.004535
    12  C    0.003923  -0.056339  -0.005441  -0.014368  -0.002575   0.019121
    13  H    0.004970   0.045867  -0.002552  -0.000117   0.000544  -0.005758
    14  O    0.320965  -0.110265   0.019258  -0.000984  -0.000626   0.001945
    15  H   -0.074844  -0.038609   0.002067  -0.000634  -0.000093   0.001377
    16  H    0.030928   0.052913  -0.003108   0.000029  -0.000306   0.002033
    17  H   -0.000128  -0.005934   0.000435  -0.000198  -0.000190   0.003573
    18  H   -0.000149   0.009900  -0.001256   0.001427   0.002689  -0.019325
    19  H    0.524345   0.016570  -0.002405  -0.000032  -0.000673   0.002425
    20  C    0.016570  15.202841  -1.284891   0.027207   0.596706  -2.813108
    21  N   -0.002405  -1.284891   8.005679  -0.033635  -0.127081   0.168592
    22  C   -0.000032   0.027207  -0.033635   6.275392   0.006363  -0.428939
    23  N   -0.000673   0.596706  -0.127081   0.006363   7.424260  -0.460387
    24  C    0.002425  -2.813108   0.168592  -0.428939  -0.460387  14.038136
    25  H    0.007703  -1.045818   0.080163  -0.098303  -0.036638   0.185031
    26  H   -0.000045  -0.208398   0.440290  -0.111067   0.013942  -0.059702
    27  H    0.000017  -0.145180   0.042441  -0.211759   0.357522  -0.189728
    28  O   -0.000015   0.087441  -0.108916   0.088965  -0.113951   0.010959
    29  O   -0.000207  -0.051348   0.000721   0.030747  -0.108608   0.166740
              25         26         27         28         29
     1  C   -0.024295   0.000379  -0.000520   0.001173  -0.005521
     2  C    0.021969  -0.002656   0.001809  -0.001964   0.048036
     3  C    0.141759  -0.003134   0.021524   0.014027  -0.128637
     4  O    0.002137   0.000108   0.000050  -0.000002  -0.003936
     5  H    0.020273  -0.000464   0.000187  -0.000092  -0.039463
     6  O   -0.025130  -0.002697   0.001287   0.000104   0.009362
     7  H    0.028787  -0.000502  -0.001433   0.000711  -0.003141
     8  C    0.169840   0.062016   0.156293   0.033370   0.060492
     9  C   -0.065382   0.001505   0.000726  -0.000298   0.006127
    10  H   -0.031339   0.000464   0.000044  -0.000053   0.007268
    11  O    0.000866   0.000062  -0.000010  -0.000012  -0.001027
    12  C    0.077284  -0.001782  -0.000164   0.000399  -0.002319
    13  H    0.013395   0.000130   0.000063  -0.000011  -0.000010
    14  O    0.003112   0.000054  -0.000092   0.000061  -0.000154
    15  H   -0.007107  -0.000074  -0.000021   0.000037  -0.000021
    16  H    0.009819   0.000140   0.000040  -0.000003  -0.000169
    17  H    0.000813  -0.000014  -0.000009  -0.000005  -0.000075
    18  H   -0.001141   0.000005  -0.000188  -0.000038   0.007981
    19  H    0.007703  -0.000045   0.000017  -0.000015  -0.000207
    20  C   -1.045818  -0.208398  -0.145180   0.087441  -0.051348
    21  N    0.080163   0.440290   0.042441  -0.108916   0.000721
    22  C   -0.098303  -0.111067  -0.211759   0.088965   0.030747
    23  N   -0.036638   0.013942   0.357522  -0.113951  -0.108608
    24  C    0.185031  -0.059702  -0.189728   0.010959   0.166740
    25  H    2.192621  -0.002505  -0.003306   0.004779  -0.008450
    26  H   -0.002505   0.827378  -0.004889   0.004628   0.002294
    27  H   -0.003306  -0.004889   1.064885  -0.001012  -0.024823
    28  O    0.004779   0.004628  -0.001012   8.545255  -0.001769
    29  O   -0.008450   0.002294  -0.024823  -0.001769   8.829236
 Mulliken charges:
               1
     1  C    0.881359
     2  C    1.199205
     3  C    0.850285
     4  O   -0.775014
     5  H   -0.453510
     6  O   -0.781442
     7  H   -0.455655
     8  C    0.546708
     9  C    0.570091
    10  H   -0.431361
    11  O   -0.625066
    12  C    1.159897
    13  H   -0.573866
    14  O   -0.567245
    15  H   -0.177663
    16  H   -0.253420
    17  H    0.097228
    18  H    0.145772
    19  H    0.184183
    20  C    1.452947
    21  N   -0.790695
    22  C    0.831737
    23  N   -0.337703
    24  C    0.286482
    25  H   -0.610938
    26  H    0.044534
    27  H   -0.063756
    28  O   -0.563767
    29  O   -0.789325
 Sum of Mulliken charges =  -0.00000
 Mulliken charges with hydrogens summed into heavy atoms:
               1
     1  C    0.449998
     2  C    0.745695
     3  C    0.394629
     4  O   -0.629242
     6  O   -0.781442
     8  C    0.546708
     9  C   -0.003775
    11  O   -0.527838
    12  C    0.728814
    14  O   -0.383062
    20  C    0.842009
    21  N   -0.746162
    22  C    0.831737
    23  N   -0.401459
    24  C    0.286482
    28  O   -0.563767
    29  O   -0.789325
 Electronic spatial extent (au):  <R**2>=           4137.3581
 Charge=             -0.0000 electrons
 Dipole moment (field-independent basis, Debye):
    X=             -1.9374    Y=              1.7995    Z=              0.4952  Tot=              2.6901
 Quadrupole moment (field-independent basis, Debye-Ang):
   XX=           -110.5492   YY=            -93.9991   ZZ=           -101.4673
   XY=             -0.7030   XZ=             -0.2765   YZ=              1.4122
 Traceless Quadrupole moment (field-independent basis, Debye-Ang):
   XX=             -8.5440   YY=              8.0061   ZZ=              0.5379
   XY=             -0.7030   XZ=             -0.2765   YZ=              1.4122
 Octapole moment (field-independent basis, Debye-Ang**2):
  XXX=           -104.3289  YYY=              7.4477  ZZZ=              0.7865  XYY=            -10.5505
  XXY=            -17.6026  XXZ=            -28.1942  XZZ=              1.8197  YZZ=              4.2127
  YYZ=             14.1622  XYZ=            -10.5838
 Hexadecapole moment (field-independent basis, Debye-Ang**3):
 XXXX=          -3923.8519 YYYY=          -1278.7856 ZZZZ=           -400.1308 XXXY=           -211.9086
 XXXZ=            -51.7516 YYYX=            132.5128 YYYZ=             26.5387 ZZZX=             11.5866
 ZZZY=             15.0063 XXYY=           -748.9882 XXZZ=           -681.8293 YYZZ=           -261.3601
 XXYZ=            -31.6616 YYXZ=            -12.5431 ZZXY=            -19.3760
 N-N= 1.323802828962D+03 E-N=-4.780020414934D+03  KE= 9.053995760357D+02
 Calling FoFJK, ICntrl=      2127 FMM=F ISym2X=0 I1Cent= 0 IOpClX= 0 NMat=1 NMatS=1 NMatT=0.
 ***** Axes restored to original set *****
 -------------------------------------------------------------------
 Center     Atomic                   Forces (Hartrees/Bohr)
 Number     Number              X              Y              Z
 -------------------------------------------------------------------
      1        6           0.000674337    0.000235518   -0.001033164
      2        6           0.000528198   -0.001185192   -0.004864677
      3        6          -0.002289285   -0.003816857    0.001275606
      4        8          -0.003545635   -0.003133270    0.002415017
      5        1          -0.000780381   -0.000530454    0.000795083
      6        8          -0.017828363    0.011802856   -0.002827597
      7        1          -0.004931510   -0.003359637   -0.000886206
      8        6          -0.015219565    0.051075807    0.001031899
      9        6           0.003671148   -0.001484523   -0.004356743
     10        1          -0.000088151   -0.000376720    0.000046114
     11        8          -0.001313011   -0.000191676    0.001277679
     12        6          -0.001312538   -0.001948305   -0.000719381
     13        1          -0.001351961   -0.000135772    0.000519364
     14        8           0.001393953    0.001850231    0.001012853
     15        1           0.000053434    0.000518941    0.000257284
     16        1           0.000159739    0.000041793    0.000031439
     17        1           0.000462791   -0.000055089   -0.000317502
     18        1           0.000057239    0.000951307   -0.000235896
     19        1          -0.000346824   -0.000539628   -0.000263492
     20        6          -0.016862456   -0.026970523   -0.007840328
     21        7           0.043616372    0.025587585    0.013845398
     22        6          -0.007916861   -0.001898841   -0.001872200
     23        7           0.012055532    0.015723837    0.004629482
     24        6           0.012753201   -0.017932283    0.002621498
     25        1           0.005663724    0.011063332    0.002068790
     26        1          -0.004480094   -0.054434192   -0.006501356
     27        1           0.003827489    0.003943354    0.001268959
     28        8          -0.017932341    0.011031053   -0.003634165
     29        8           0.011281821   -0.015832654    0.002256242
 -------------------------------------------------------------------
 Cartesian Forces:  Max     0.054434192 RMS     0.011904006

 GradGradGradGradGradGradGradGradGradGradGradGradGradGradGradGradGradGrad
 Berny optimization.
 FormGI is forming the generalized inverse of G from B-inverse, IUseBI=4.
 Internal  Forces:  Max     0.054845031 RMS     0.008935485
 Search for a local minimum.
 Step number   1 out of a maximum of  173
 All quantities printed in internal units (Hartrees-Bohrs-Radians)
 Mixed Optimization -- RFO/linear search
 Second derivative matrix not updated -- first step.
 ITU=  0
     Eigenvalues ---    0.00545   0.00583   0.00914   0.01126   0.01284
     Eigenvalues ---    0.01443   0.01512   0.01542   0.01706   0.01722
     Eigenvalues ---    0.01838   0.01906   0.02050   0.02174   0.02350
     Eigenvalues ---    0.02393   0.03074   0.03735   0.04317   0.04907
     Eigenvalues ---    0.04919   0.05072   0.05603   0.05717   0.05954
     Eigenvalues ---    0.06098   0.06129   0.07108   0.08037   0.08244
     Eigenvalues ---    0.09834   0.11638   0.13196   0.14011   0.15995
     Eigenvalues ---    0.16000   0.16000   0.16000   0.16000   0.16000
     Eigenvalues ---    0.16010   0.16797   0.18761   0.19928   0.22082
     Eigenvalues ---    0.22363   0.23426   0.24595   0.24996   0.24999
     Eigenvalues ---    0.25000   0.26403   0.28533   0.28718   0.30970
     Eigenvalues ---    0.33257   0.33571   0.33757   0.33910   0.34011
     Eigenvalues ---    0.34029   0.34910   0.35317   0.35408   0.37291
     Eigenvalues ---    0.38694   0.42638   0.42655   0.43208   0.43445
     Eigenvalues ---    0.45491   0.45799   0.46513   0.48200   0.50225
     Eigenvalues ---    0.53512   0.54089   0.54978   0.55335   0.93768
     Eigenvalues ---    0.96062
 RFO step:  Lambda=-3.39727175D-02 EMin= 5.45435210D-03
 Linear search not attempted -- first point.
 Maximum step size (   0.300) exceeded in Quadratic search.
    -- Step size scaled by   0.981
 Iteration  1 RMS(Cart)=  0.06496536 RMS(Int)=  0.00141956
 Iteration  2 RMS(Cart)=  0.00179500 RMS(Int)=  0.00017628
 Iteration  3 RMS(Cart)=  0.00000204 RMS(Int)=  0.00017627
 Iteration  4 RMS(Cart)=  0.00000000 RMS(Int)=  0.00017627
 Variable       Old X    -DE/DX   Delta X   Delta X   Delta X     New X
                                 (Linear)    (Quad)   (Total)
    R1        2.88726   0.00066   0.00000  -0.00074  -0.00078   2.88648
    R2        2.89079   0.00122   0.00000   0.00079   0.00068   2.89147
    R3        2.07742  -0.00026   0.00000  -0.00070  -0.00070   2.07672
    R4        2.64359   0.00126   0.00000   0.00252   0.00252   2.64611
    R5        2.90135   0.00166   0.00000   0.00688   0.00700   2.90834
    R6        2.67124   0.00311   0.00000   0.00652   0.00652   2.67776
    R7        2.07312   0.00023   0.00000   0.00061   0.00061   2.07373
    R8        2.64693   0.01730   0.00000   0.03708   0.03717   2.68410
    R9        2.07282   0.00212   0.00000   0.00557   0.00557   2.07838
   R10        2.78317   0.02651   0.00000   0.06700   0.06700   2.85018
   R11        1.81851  -0.00071   0.00000  -0.00119  -0.00119   1.81733
   R12        2.70637  -0.00435   0.00000  -0.00929  -0.00935   2.69701
   R13        2.59275  -0.01637   0.00000  -0.02780  -0.02742   2.56533
   R14        2.61826   0.05444   0.00000   0.10866   0.10863   2.72689
   R15        2.86070  -0.00005   0.00000  -0.00015  -0.00015   2.86055
   R16        2.08602   0.00086   0.00000   0.00230   0.00230   2.08832
   R17        1.82651   0.00002   0.00000   0.00003   0.00003   1.82653
   R18        2.68119   0.00180   0.00000   0.00385   0.00385   2.68503
   R19        2.08060   0.00010   0.00000   0.00027   0.00027   2.08086
   R20        2.07482  -0.00003   0.00000  -0.00007  -0.00007   2.07475
   R21        1.81535  -0.00021   0.00000  -0.00034  -0.00034   1.81501
   R22        2.55552   0.01045   0.00000   0.01519   0.01559   2.57112
   R23        2.05821   0.00172   0.00000   0.00439   0.00439   2.06261
   R24        2.73841  -0.04006   0.00000  -0.10028  -0.10022   2.63819
   R25        2.05163  -0.05485   0.00000  -0.13896  -0.13896   1.91267
   R26        2.65501  -0.01807   0.00000  -0.03855  -0.03894   2.61607
   R27        2.30259  -0.01505   0.00000  -0.01484  -0.01484   2.28774
   R28        2.59148   0.01763   0.00000   0.03455   0.03414   2.62562
   R29        1.91410   0.00030   0.00000   0.00060   0.00060   1.91470
   R30        2.31243   0.01322   0.00000   0.01335   0.01335   2.32578
    A1        1.77534   0.00191   0.00000   0.00137   0.00130   1.77665
    A2        1.89455  -0.00008   0.00000   0.00091   0.00088   1.89543
    A3        2.00621  -0.00123   0.00000  -0.00339  -0.00332   2.00289
    A4        1.90682   0.00022   0.00000   0.00430   0.00434   1.91116
    A5        1.99837  -0.00105   0.00000  -0.00205  -0.00206   1.99631
    A6        1.87846   0.00033   0.00000  -0.00058  -0.00059   1.87787
    A7        1.77491   0.00061   0.00000   0.00202   0.00215   1.77706
    A8        1.86004  -0.00251   0.00000  -0.01192  -0.01199   1.84805
    A9        1.98048   0.00058   0.00000  -0.00069  -0.00077   1.97971
   A10        1.94590   0.00316   0.00000   0.01954   0.01957   1.96547
   A11        1.95036  -0.00110   0.00000  -0.00124  -0.00129   1.94907
   A12        1.94427  -0.00060   0.00000  -0.00678  -0.00685   1.93742
   A13        1.87689  -0.00403   0.00000  -0.01511  -0.01534   1.86155
   A14        1.93235  -0.00274   0.00000  -0.03159  -0.03185   1.90049
   A15        1.94641   0.00168   0.00000   0.01130   0.01132   1.95773
   A16        1.93004   0.00025   0.00000  -0.00780  -0.00867   1.92138
   A17        1.91332   0.00393   0.00000   0.02768   0.02761   1.94094
   A18        1.86544   0.00107   0.00000   0.01613   0.01626   1.88170
   A19        1.89415  -0.00086   0.00000  -0.00437  -0.00437   1.88978
   A20        1.93080  -0.00029   0.00000   0.00247   0.00259   1.93339
   A21        2.14468   0.00044   0.00000  -0.00438  -0.00456   2.14012
   A22        2.00906   0.01785   0.00000   0.05575   0.05558   2.06463
   A23        2.12929  -0.01829   0.00000  -0.05132  -0.05097   2.07832
   A24        1.82734   0.00097   0.00000   0.00081   0.00076   1.82809
   A25        2.02333  -0.00003   0.00000  -0.00208  -0.00208   2.02125
   A26        1.89988  -0.00069   0.00000  -0.00214  -0.00213   1.89775
   A27        1.90901  -0.00091   0.00000  -0.00104  -0.00097   1.90804
   A28        1.90862   0.00059   0.00000   0.00651   0.00649   1.91511
   A29        1.89301   0.00014   0.00000  -0.00137  -0.00138   1.89163
   A30        1.86319  -0.00101   0.00000  -0.00513  -0.00513   1.85806
   A31        1.97441   0.00032   0.00000   0.00112   0.00112   1.97553
   A32        1.89170   0.00038   0.00000   0.00224   0.00224   1.89394
   A33        1.89827  -0.00005   0.00000   0.00048   0.00048   1.89875
   A34        1.95063  -0.00062   0.00000  -0.00409  -0.00409   1.94654
   A35        1.86270  -0.00006   0.00000  -0.00006  -0.00006   1.86264
   A36        1.88341   0.00001   0.00000   0.00032   0.00032   1.88373
   A37        1.90310  -0.00115   0.00000  -0.00581  -0.00581   1.89728
   A38        2.13236   0.00010   0.00000  -0.00250  -0.00173   2.13063
   A39        2.00399   0.01279   0.00000   0.06617   0.06579   2.06977
   A40        2.14683  -0.01289   0.00000  -0.06366  -0.06405   2.08278
   A41        2.09855   0.01898   0.00000   0.05598   0.05642   2.15497
   A42        2.11649  -0.00522   0.00000  -0.00638  -0.00660   2.10989
   A43        2.06813  -0.01377   0.00000  -0.04962  -0.04984   2.01829
   A44        1.97428   0.00239   0.00000  -0.00613  -0.00648   1.96780
   A45        2.21547  -0.01865   0.00000  -0.05723  -0.05706   2.15841
   A46        2.09342   0.01626   0.00000   0.06338   0.06355   2.15697
   A47        2.23153  -0.00002   0.00000   0.00088   0.00014   2.23166
   A48        2.03348  -0.00538   0.00000  -0.02770  -0.02733   2.00616
   A49        2.01783   0.00540   0.00000   0.02682   0.02719   2.04502
   A50        1.99976  -0.00316   0.00000   0.00316   0.00270   2.00246
   A51        2.12831   0.01826   0.00000   0.05602   0.05625   2.18456
   A52        2.15509  -0.01510   0.00000  -0.05921  -0.05898   2.09611
    D1        0.60702   0.00215   0.00000   0.01546   0.01551   0.62253
    D2       -1.43273  -0.00067   0.00000  -0.00257  -0.00254  -1.43527
    D3        2.70418   0.00150   0.00000   0.01490   0.01492   2.71910
    D4       -1.40254   0.00105   0.00000   0.00964   0.00967  -1.39287
    D5        2.84090  -0.00178   0.00000  -0.00840  -0.00837   2.83252
    D6        0.69462   0.00039   0.00000   0.00908   0.00909   0.70371
    D7        2.77652   0.00150   0.00000   0.01197   0.01199   2.78851
    D8        0.73677  -0.00132   0.00000  -0.00607  -0.00606   0.73072
    D9       -1.40950   0.00084   0.00000   0.01140   0.01140  -1.39810
   D10       -0.61007  -0.00127   0.00000  -0.00741  -0.00733  -0.61740
   D11       -2.71484  -0.00080   0.00000  -0.00546  -0.00542  -2.72026
   D12        1.42935  -0.00041   0.00000  -0.00047  -0.00043   1.42892
   D13        1.39043  -0.00036   0.00000  -0.00406  -0.00401   1.38642
   D14       -0.71435   0.00011   0.00000  -0.00210  -0.00210  -0.71644
   D15       -2.85333   0.00050   0.00000   0.00289   0.00289  -2.85045
   D16       -2.78484  -0.00048   0.00000  -0.00302  -0.00297  -2.78781
   D17        1.39357  -0.00002   0.00000  -0.00107  -0.00106   1.39251
   D18       -0.74542   0.00038   0.00000   0.00392   0.00393  -0.74149
   D19       -0.62297  -0.00044   0.00000   0.00137   0.00138  -0.62159
   D20        1.42377   0.00039   0.00000  -0.00090  -0.00093   1.42284
   D21       -2.73590   0.00022   0.00000   0.00283   0.00284  -2.73306
   D22       -0.41381  -0.00140   0.00000  -0.01507  -0.01487  -0.42869
   D23       -2.52411   0.00247   0.00000   0.02278   0.02250  -2.50161
   D24        1.68436   0.00184   0.00000   0.01600   0.01596   1.70032
   D25        1.56256  -0.00271   0.00000  -0.01996  -0.01973   1.54283
   D26       -0.54774   0.00116   0.00000   0.01788   0.01765  -0.53009
   D27       -2.62246   0.00054   0.00000   0.01110   0.01111  -2.61135
   D28       -2.53205  -0.00191   0.00000  -0.01485  -0.01461  -2.54666
   D29        1.64084   0.00196   0.00000   0.02299   0.02277   1.66360
   D30       -0.43388   0.00133   0.00000   0.01621   0.01623  -0.41766
   D31       -3.00076   0.00045   0.00000   0.00049   0.00045  -3.00031
   D32        1.35996  -0.00039   0.00000  -0.00459  -0.00460   1.35536
   D33       -0.83199  -0.00090   0.00000  -0.01269  -0.01263  -0.84463
   D34        0.03130   0.00156   0.00000   0.01232   0.01217   0.04347
   D35        2.14304  -0.00417   0.00000  -0.04041  -0.04033   2.10271
   D36       -2.08769  -0.00032   0.00000  -0.00843  -0.00842  -2.09611
   D37       -1.78243  -0.00108   0.00000  -0.03207  -0.03226  -1.81469
   D38        1.34049  -0.00108   0.00000  -0.02959  -0.02971   1.31079
   D39        0.29417  -0.00250   0.00000  -0.02585  -0.02580   0.26838
   D40       -2.86609  -0.00250   0.00000  -0.02337  -0.02324  -2.88933
   D41        2.38658   0.00060   0.00000  -0.01037  -0.01034   2.37624
   D42       -0.77368   0.00060   0.00000  -0.00789  -0.00778  -0.78146
   D43        0.36874  -0.00107   0.00000  -0.00474  -0.00471   0.36403
   D44        2.54781  -0.00103   0.00000  -0.00733  -0.00730   2.54051
   D45       -1.66466  -0.00105   0.00000  -0.00574  -0.00570  -1.67035
   D46       -3.14033   0.00023   0.00000   0.00143   0.00134  -3.13899
   D47        0.00461  -0.00006   0.00000  -0.00250  -0.00268   0.00193
   D48        0.02120  -0.00016   0.00000  -0.00238  -0.00236   0.01883
   D49       -3.11705  -0.00045   0.00000  -0.00631  -0.00638  -3.12343
   D50        3.12247   0.00016   0.00000   0.00035   0.00031   3.12278
   D51       -0.02656  -0.00025   0.00000  -0.00389  -0.00402  -0.03058
   D52       -0.03761   0.00037   0.00000   0.00334   0.00326  -0.03435
   D53        3.09654  -0.00003   0.00000  -0.00089  -0.00106   3.09548
   D54        0.93943   0.00027   0.00000  -0.00141  -0.00142   0.93801
   D55       -1.23398   0.00056   0.00000   0.00142   0.00141  -1.23257
   D56        3.00583   0.00036   0.00000  -0.00046  -0.00048   3.00535
   D57       -1.12075  -0.00029   0.00000  -0.00032  -0.00032  -1.12107
   D58        2.98903   0.00000   0.00000   0.00251   0.00251   2.99154
   D59        0.94564  -0.00019   0.00000   0.00062   0.00063   0.94627
   D60        3.08204  -0.00056   0.00000  -0.00678  -0.00678   3.07526
   D61        0.90863  -0.00027   0.00000  -0.00396  -0.00395   0.90468
   D62       -1.13475  -0.00046   0.00000  -0.00584  -0.00584  -1.14059
   D63       -1.57712   0.00005   0.00000   0.00244   0.00244  -1.57469
   D64        0.56386   0.00032   0.00000   0.00311   0.00311   0.56697
   D65        2.61912  -0.00004   0.00000   0.00122   0.00122   2.62034
   D66        0.00365  -0.00009   0.00000  -0.00027  -0.00019   0.00346
   D67        3.13874  -0.00034   0.00000  -0.00369  -0.00360   3.13514
   D68       -3.14156   0.00028   0.00000   0.00423   0.00410  -3.13746
   D69       -0.00647   0.00003   0.00000   0.00081   0.00070  -0.00578
   D70       -0.00848  -0.00010   0.00000   0.00099   0.00101  -0.00748
   D71        3.13765  -0.00024   0.00000  -0.00166  -0.00157   3.13608
   D72        3.13943   0.00011   0.00000   0.00417   0.00411  -3.13964
   D73        0.00238  -0.00002   0.00000   0.00152   0.00154   0.00392
   D74       -0.01161  -0.00009   0.00000  -0.00067  -0.00071  -0.01231
   D75       -3.12343  -0.00010   0.00000  -0.00119  -0.00127  -3.12470
   D76        3.12580  -0.00007   0.00000   0.00143   0.00152   3.12731
   D77        0.01397  -0.00007   0.00000   0.00092   0.00095   0.01492
   D78        0.03398  -0.00004   0.00000  -0.00116  -0.00115   0.03283
   D79       -3.10005   0.00021   0.00000   0.00259   0.00240  -3.09764
   D80       -3.13716  -0.00018   0.00000  -0.00143  -0.00137  -3.13852
   D81        0.01200   0.00007   0.00000   0.00232   0.00218   0.01419
         Item               Value     Threshold  Converged?
 Maximum Force            0.054845     0.000450     NO 
 RMS     Force            0.008935     0.000300     NO 
 Maximum Displacement     0.334858     0.001800     NO 
 RMS     Displacement     0.065031     0.001200     NO 
 Predicted change in Energy=-1.866947D-02
 GradGradGradGradGradGradGradGradGradGradGradGradGradGradGradGradGradGrad

                          Input orientation:                          
 ---------------------------------------------------------------------
 Center     Atomic      Atomic             Coordinates (Angstroms)
 Number     Number       Type             X           Y           Z
 ---------------------------------------------------------------------
      1          6           0       -2.096613   -0.200777    0.801567
      2          6           0       -1.202281   -1.357834    0.360519
      3          6           0       -0.445321   -0.736327   -0.826643
      4          8           0       -2.080051   -2.396863   -0.036783
      5          1           0       -0.515184   -1.701460    1.144126
      6          8           0       -1.263056    0.311559   -1.327323
      7          1           0       -0.301806   -1.505588   -1.599477
      8          6           0        0.915786   -0.223224   -0.427982
      9          6           0       -2.442762    0.454765   -0.536957
     10          1           0       -1.497715    0.494291    1.406466
     11          8           0       -3.208182   -0.577029    1.565492
     12          6           0       -2.829206    1.916998   -0.474254
     13          1           0       -3.273803   -0.105688   -1.002238
     14          8           0       -1.863956    2.722936    0.187254
     15          1           0       -3.818179    1.997133    0.003271
     16          1           0       -2.915826    2.304105   -1.497997
     17          1           0       -3.507344   -1.426225    1.213913
     18          1           0       -1.557226   -3.187242   -0.200487
     19          1           0       -2.078538    2.755042    1.122886
     20          6           0        1.178992    1.097650   -0.258117
     21          7           0        2.412022    1.548607    0.098872
     22          6           0        3.505761    0.708744    0.316531
     23          7           0        3.197007   -0.629051    0.139228
     24          6           0        1.969154   -1.183058   -0.201265
     25          1           0        0.371844    1.815455   -0.414992
     26          1           0        2.589743    2.538206    0.215237
     27          1           0        3.964105   -1.270130    0.304110
     28          8           0        4.605689    1.106495    0.628871
     29          8           0        1.843093   -2.404987   -0.277072
 ---------------------------------------------------------------------
                    Distance matrix (angstroms):
                    1          2          3          4          5
     1  C    0.000000
     2  C    1.527460   0.000000
     3  C    2.380052   1.539030   0.000000
     4  O    2.350723   1.417008   2.460407   0.000000
     5  H    2.206879   1.097370   2.195517   2.080130   0.000000
     6  O    2.342964   2.374737   1.420365   3.109425   3.274083
     7  H    3.269385   2.162006   1.099832   2.529533   2.758851
     8  C    3.253743   2.528889   1.508249   3.721932   2.589281
     9  C    1.530098   2.372714   2.343585   2.917793   3.345281
    10  H    1.098955   2.147476   2.758393   3.283421   2.419817
    11  O    1.400261   2.466831   3.658017   2.674277   2.948581
    12  C    2.578640   3.750767   3.584303   4.400229   4.589890
    13  H    2.156045   2.777801   2.903248   2.758012   3.842310
    14  O    2.996600   4.137695   3.873889   5.129253   4.723354
    15  H    2.903769   4.269233   4.420038   4.725452   5.088311
    16  H    3.497648   4.449732   3.974713   4.993272   5.365487
    17  H    1.913612   2.458917   3.743770   2.131559   3.005603
    18  H    3.195938   1.946137   2.763220   0.961687   2.258625
    19  H    2.973287   4.273731   4.319458   5.280810   4.722810
    20  C    3.679461   3.475999   2.514972   4.783510   3.559710
    21  N    4.886913   4.645325   3.773846   5.980289   4.497113
    22  C    5.696410   5.141823   4.359602   6.400853   4.760462
    23  N    5.352058   4.464731   3.769743   5.568076   3.992523
    24  C    4.301280   3.225546   2.533842   4.230418   2.872412
    25  H    3.411523   3.626162   2.710869   4.888605   3.947956
    26  H    5.459647   5.438720   4.584724   6.798926   5.336494
    27  H    6.174406   5.167438   4.583294   6.157723   4.577740
    28  O    6.830787   6.314859   5.570208   7.577317   5.862887
    29  O    4.641475   3.282888   2.885011   3.930504   2.841870
                    6          7          8          9         10
     6  O    0.000000
     7  H    2.073666   0.000000
     8  C    2.417056   2.121176   0.000000
     9  C    1.427198   3.091217   3.428030   0.000000
[...]
 0021598,-0.00012411,-0.01320518,-0.00942973,-0.00399230,0.02557141,0.0
 3042570,0.00539906,-0.14353690,0.01685074,-0.02453503,0.72343337,-0.00
 007940,-0.00010076,-0.00029402,0.00008430,-0.00064068,0.00115763,0.001
 24674,-0.00396916,-0.00060006,-0.00004804,0.00080455,-0.00017879,0.000
 15912,-0.00006964,-0.00068887,0.00156226,0.00046533,0.00049983,0.00046
 953,0.00023278,0.00079703,0.01173690,0.03502586,0.00382952,0.00005142,
 0.00012520,0.00047261,-0.00002415,-0.00002966,-0.00001506,-0.00023290,
 0.00019862,0.00006520,-0.00009651,-0.00026169,-0.00024212,0.00010973,-
 0.00000027,-0.00004901,0.00015374,0.00042329,0.00015106,0.00002163,0.0
 0000584,0.00002296,0.00000280,0.00006649,-0.00000400,0.00019434,-0.000
 13278,-0.00004718,0.00080541,-0.00000954,0.00009738,-0.00006058,-0.000
 16982,-0.00005447,-0.02405879,-0.01985623,-0.00727306,0.03589724,-0.05
 220419,0.00939560,-0.02530663,-0.27684316,-0.01151330,-0.07614672,0.77
 369464,0.00003236,0.00003968,-0.00019954,-0.00031720,-0.00006188,-0.00
 024598,-0.00030371,0.00164176,0.00291295,-0.00019194,-0.00003829,0.000
 16879,0.00002845,-0.00013421,-0.00022036,-0.00071949,0.00003484,-0.000
 22386,0.00060255,-0.00005230,0.00000555,-0.01441036,0.00179478,0.00580
 057,0.00030185,0.00005640,-0.00013607,-0.00003351,0.00001343,-0.000014
 49,-0.00016051,-0.00002777,0.00018708,-0.00004337,-0.00010339,-0.00003
 772,-0.00007194,-0.00001241,0.00002040,-0.00000516,0.00015300,0.000080
 13,-0.00001785,0.00002770,0.00001815,0.00001779,0.00000029,0.00000157,
 0.00005265,-0.00001397,-0.00004979,0.00018822,0.00003963,-0.00000601,-
 0.00002222,-0.00005034,-0.00004890,-0.00423113,-0.00296989,-0.00122172
 ,0.00534712,0.00752943,0.01079142,-0.02511113,0.00133412,-0.06541618,0
 .18852500,-0.01274391,0.11815771,-0.00070157,-0.00015936,0.00021810,-0
 .00175739,-0.00012016,-0.00073903,-0.02429174,0.01611855,-0.00694962,0
 .00140889,0.00111557,0.00021251,-0.00101178,-0.00038714,0.00116147,-0.
 00197291,-0.00118876,-0.00078327,-0.00031304,0.00078777,-0.00080561,-0
 .19294891,0.05062504,-0.03247127,-0.00131002,0.00019185,-0.00043745,-0
 .00004409,0.00014368,0.00045821,0.00100037,0.00032399,-0.00054145,-0.0
 0056956,-0.00016977,-0.00026615,0.00008330,0.00012229,0.00011716,0.001
 21790,-0.00070454,0.00003976,0.00020358,0.00006256,-0.00002183,-0.0000
 3685,-0.00004061,0.00006703,-0.00020837,-0.00005479,0.00010467,-0.0001
 4799,-0.00055375,-0.00002168,-0.00012280,0.00036911,0.00018185,0.05240
 239,0.02979576,0.01447497,-0.04910325,0.01088229,-0.01263343,0.0221643
 4,-0.08857968,0.00905083,-0.23871702,0.00950973,-0.05276900,0.55769982
 ,0.00169212,0.00167775,0.00156686,-0.00114897,0.00205775,-0.00477528,0
 .00261392,0.01947722,0.00396380,-0.00082606,-0.00376101,0.00098604,-0.
 00123777,0.00024512,0.00294149,-0.00785773,-0.00176059,-0.00179391,-0.
 00328713,-0.00238696,-0.00354836,0.06203572,-0.13669524,0.01804509,0.0
 0203350,-0.00146105,-0.00242925,0.00004344,-0.00038686,-0.00066605,-0.
 00026534,-0.00142898,0.00042172,0.00081349,0.00066838,0.00100143,-0.00
 082872,-0.00007905,0.00019056,-0.00155096,-0.00007078,-0.00038602,-0.0
 0024524,0.00000049,0.00000124,0.00006462,-0.00023780,-0.00006245,-0.00
 056320,0.00054661,0.00003100,-0.00233450,0.00023402,-0.00045821,0.0003
 3351,-0.00005221,-0.00007011,0.01101603,-0.04797403,0.00258174,0.01723
 681,0.00622327,0.00529876,-0.03496442,-0.00593287,-0.00961599,-0.02713
 273,-0.13900071,-0.00864460,0.00076439,0.95692252,-0.00017744,-0.00037
 043,-0.00004733,0.00048491,0.00000708,0.00057354,-0.00726903,0.0050982
 6,-0.00083751,-0.00008432,-0.00006523,-0.00057811,0.00070830,0.0003293
 8,-0.00008844,-0.00185374,0.00027521,0.00116113,-0.00036991,0.00035428
 ,0.00036498,-0.03170974,0.01373534,-0.09198737,-0.00091878,-0.00000281
 ,-0.00054840,0.00007930,0.00013061,0.00014919,0.00022724,0.00021568,-0
 .00014705,-0.00019774,-0.00002046,-0.00000840,-0.00004070,0.00006297,0
 .00010499,0.00009328,-0.00005152,-0.00008133,0.00003192,0.00000662,-0.
 00002806,-0.00003560,0.00002613,0.00000107,0.00003341,-0.00002365,0.00
 004936,-0.00011792,-0.00006838,0.00016970,0.00002126,0.00007503,0.0000
 4896,0.01475209,0.00735246,0.00746977,-0.01259692,0.00345543,-0.008644
 77,0.00997015,-0.02537118,-0.01158279,-0.05345529,0.00150884,-0.067452
 37,0.10131273,0.00210564,0.23429781,-0.00008066,-0.00040729,0.00034079
 ,-0.00009084,0.00018398,-0.00048843,-0.00021396,-0.00079523,0.00131939
 ,-0.00031022,-0.00000533,0.00009611,0.00002717,0.00010658,-0.00014606,
 -0.00169905,-0.00041239,-0.00010469,0.00005156,0.00035219,-0.00005531,
 0.01256221,-0.00401831,0.00099802,-0.00090052,-0.00030793,0.00034569,0
 .00009381,-0.00011029,0.00008145,-0.00002280,0.00033678,-0.00017246,-0
 .00168047,-0.00092548,-0.00104960,0.00015482,0.00020067,-0.00000954,-0
 .00043491,0.00052670,-0.00047826,0.00026127,0.00016235,0.00003679,-0.0
 0006603,0.00010190,0.00007795,0.00005617,-0.00012248,0.00001339,0.0000
 3977,0.00001319,0.00001016,0.00075234,-0.00003311,0.00030627,-0.192122
 74,0.13957563,-0.03988937,-0.02025116,0.01904324,-0.00608538,-0.000236
 63,-0.00534514,-0.00124714,0.00081447,0.00054302,0.00044532,-0.0015203
 4,-0.00079672,-0.00358262,0.20551630,-0.00011240,-0.00024100,-0.000063
 76,-0.00009871,-0.00025281,0.00003642,0.00168842,-0.00060323,0.0006749
 3,0.00005827,0.00010956,0.00000377,0.00004187,0.00002779,-0.00008349,0
 .00091961,0.00122137,0.00005400,0.00002349,0.00008284,0.00003960,0.020
 22580,-0.01219058,0.00540325,-0.00153970,0.00026192,0.00045311,-0.0000
 5630,0.00008392,0.00015095,0.00020618,0.00013495,-0.00016694,0.0002243
 1,0.00082596,0.00069237,0.00031758,-0.00003514,-0.00006800,0.00055760,
 -0.00148167,-0.00020735,-0.00012751,-0.00021006,-0.00013294,0.00001303
 ,-0.00001749,-0.00001446,-0.00000322,-0.00002864,0.00000519,0.00000881
 ,-0.00004159,0.00001536,-0.00035319,0.00008274,-0.00006631,0.14482724,
 -0.20446321,0.03785888,-0.01456025,0.01366012,-0.00394882,-0.00152225,
 -0.00151004,-0.00057499,-0.00013422,0.00053820,-0.00000001,-0.00349609
 ,-0.00402724,-0.00157753,-0.14735916,0.20789397,0.00040797,0.00028375,
 0.00026511,0.00036892,0.00038018,0.00071227,0.00169992,-0.00018233,-0.
 00488374,0.00027061,0.00015230,-0.00024044,0.00002931,0.00008873,-0.00
 003972,-0.00000408,-0.00045986,-0.00122760,-0.00080872,-0.00015848,-0.
 00007331,0.00044128,-0.00089862,0.00940658,-0.00055814,0.00034957,0.00
 054430,-0.00002436,0.00000485,-0.00031314,-0.00008181,-0.00018516,-0.0
 0017319,0.00046103,0.00066707,0.00094954,0.00016151,-0.00007519,-0.000
 13899,-0.00142155,-0.00009986,-0.00109574,-0.00018031,-0.00017724,-0.0
 0017167,-0.00019976,0.00001519,-0.00015575,-0.00005959,0.00002780,0.00
 003500,0.00000349,-0.00003425,0.00001042,0.00051640,-0.00014730,-0.000
 13771,-0.03860865,0.03528500,-0.05382921,-0.00726982,0.00619620,0.0011
 4593,-0.00122082,-0.00171277,0.00369341,0.00033469,0.00013672,-0.00057
 212,-0.00349980,-0.00075864,0.01018494,0.04806524,-0.03880219,0.040911
 46,-0.00002811,-0.00011550,-0.00000446,0.00007136,0.00008252,-0.000269
 78,0.00106912,-0.00149584,-0.00034094,-0.00016094,-0.00007061,0.000126
 92,-0.00000361,0.00001312,0.00001381,-0.00012173,0.00050384,0.00011650
 ,-0.00046915,-0.00015213,-0.00009276,-0.00523964,0.00008284,-0.0023837
 6,0.00017742,-0.00004202,-0.00010985,0.00001260,-0.00002119,0.00002722
 ,-0.00004391,0.00007655,0.00003191,-0.00023071,-0.00027486,-0.00022432
 ,-0.00002599,0.00002265,0.00002030,0.00039948,0.00026875,0.00022033,0.
 00005555,0.00005864,0.00002989,0.00001083,0.00001612,0.00001980,0.0000
 2614,-0.00002643,-0.00000827,0.00000359,0.00003872,-0.00002501,-0.0001
 2622,-0.00004677,-0.00000745,-0.00072990,-0.03243174,0.00116879,-0.078
 12283,-0.06760664,-0.02067714,0.01622828,0.03056277,0.00533829,-0.0053
 2580,0.00360734,-0.00248005,-0.00194070,0.00006238,-0.00035248,0.00018
 347,0.00015580,0.00055019,0.07444939,-0.00009612,0.00004707,0.00002103
 ,-0.00009268,-0.00019504,0.00009415,-0.00016085,0.00018411,-0.00023790
 ,0.00025063,0.00014584,-0.00001227,-0.00003058,-0.00003100,0.00007306,
 0.00049725,-0.00015540,0.00004105,0.00004050,0.00004442,0.00004352,-0.
 00090566,0.00424579,-0.00022348,-0.00027531,0.00004000,0.00011825,-0.0
 0002072,0.00003624,0.00001212,0.00017937,-0.00002524,-0.00008132,0.000
 07644,0.00017377,0.00010936,0.00005550,-0.00000597,-0.00001085,-0.0000
 6091,-0.00033405,-0.00012085,-0.00000773,-0.00003047,-0.00002452,-0.00
 000739,-0.00001009,0.00000406,-0.00005518,0.00001450,0.00001566,-0.000
 04974,-0.00005937,0.00000150,0.00000978,0.00012056,0.00002134,-0.00213
 639,-0.00318585,-0.00058856,-0.06465377,-0.44952565,-0.02449011,-0.005
 33169,-0.01873433,-0.00172709,0.00323010,-0.00041901,0.00086187,0.0020
 4540,-0.00144151,0.00060685,0.00012763,0.00103991,0.00008474,0.0702049
 4,0.46494670,0.00007049,0.00000625,0.00008533,-0.00029235,-0.00002617,
 -0.00031244,-0.00036217,-0.00019827,0.00227322,-0.00021036,-0.00020112
 ,0.00002215,-0.00000164,-0.00000462,-0.00003032,0.00014611,0.00007681,
 -0.00019720,0.00035396,0.00013305,0.00008861,-0.00263665,-0.00001441,0
 .00244726,-0.00009450,-0.00001926,0.00003465,-0.00000739,0.00000508,0.
 00000238,-0.00003124,0.00000264,-0.00003490,0.00006221,0.00005408,0.00
 009150,0.00000537,-0.00000064,-0.00001497,-0.00010909,-0.00007253,-0.0
 0020323,-0.00000639,-0.00001149,-0.00000874,-0.00003422,-0.00000265,-0
 .00002800,0.00000723,-0.00000585,0.00000313,-0.00001720,0.00002313,0.0
 0003009,0.00016624,0.00003195,0.00004652,0.00147286,-0.00966568,-0.005
 97605,-0.02046972,-0.02468522,-0.01552123,0.00492125,0.00830297,0.0004
 9956,-0.00241542,0.00094350,0.00287591,-0.00024926,-0.00009745,-0.0007
 6024,0.00046274,0.00013400,-0.00161049,0.01852506,0.02617186,0.0190016
 1,-0.00004048,0.00000378,0.00001037,-0.00005677,0.00001492,-0.00018423
 ,0.00017769,0.00135642,0.00007637,0.00006737,-0.00002523,0.00006674,-0
 .00002870,-0.00002553,0.00009240,-0.00049137,0.00007598,-0.00004090,-0
 .00000407,-0.00004409,-0.00005905,-0.00302571,-0.00447561,-0.00218497,
 0.00000641,-0.00004324,-0.00016522,-0.00000029,0.00001405,0.00001595,0
 .00006759,-0.00000550,-0.00000175,-0.00005763,-0.00003174,-0.00001579,
 -0.00002944,0.00001158,0.00002852,0.00008294,-0.00000688,0.00003008,0.
 00001193,0.00001393,0.00000011,0.00000093,-0.00000866,0.00000729,-0.00
 002913,0.00000783,0.00000402,-0.00007951,-0.00002108,-0.00002181,-0.00
 002656,0.00002042,0.00000166,-0.00068155,-0.00102571,0.00000050,0.0011
 0323,-0.00396552,-0.00099030,0.01438228,-0.00268079,0.00445735,-0.2802
 2077,0.18105648,-0.07363739,-0.01956666,0.02335037,-0.00565047,-0.0001
 0097,0.00004119,0.00009624,0.00080791,-0.00042075,-0.00007352,0.286299
 88,0.00007904,0.00002140,-0.00003302,0.00010471,0.00017164,-0.00008617
 ,-0.00007377,0.00078913,0.00008457,-0.00011799,-0.00017865,0.00001675,
 -0.00000189,0.00000486,0.00000381,-0.00059020,0.00006388,-0.00004937,0
 .00000552,-0.00002450,-0.00004321,-0.00353840,-0.00118818,-0.00110761,
 0.00013849,-0.00000938,-0.00014366,0.00000590,-0.00001807,-0.00001376,
 -0.00008844,-0.00004247,0.00006395,-0.00000271,-0.00001938,0.00001788,
 -0.00005493,-0.00000410,0.00001351,-0.00003914,0.00003976,0.00000299,-
 0.00001113,0.00001297,0.00000812,0.00000470,-0.00000311,-0.00000399,0.
 00001109,0.00001973,-0.00001050,-0.00001891,0.00005478,-0.00001369,0.0
 0001304,-0.00001816,-0.00000915,-0.00094924,-0.00029130,-0.00028138,-0
 .00350462,-0.00571451,-0.00112697,0.03134695,-0.01632083,0.00890057,0.
 17664196,-0.22201113,0.04851464,-0.00870108,0.01988311,-0.00229119,0.0
 0007767,0.00004894,0.00002103,0.00135538,-0.00049804,0.00034290,-0.192
 55433,0.22383480,0.00001818,0.00002278,0.00003731,0.00009625,-0.000054
 24,0.00005258,-0.00015317,0.00040311,0.00031187,-0.00000972,-0.0000242
 9,-0.00007012,-0.00000845,0.00001453,0.00003233,-0.00003111,0.00000350
 ,-0.00019342,-0.00003437,-0.00001566,-0.00002634,-0.00221170,-0.001291
 07,0.00383649,-0.00001649,-0.00000114,0.00001833,-0.00000360,-0.000022
 80,0.00000801,0.00001481,0.00000778,-0.00005181,0.00000020,-0.00000829
 ,0.00000056,-0.00000643,0.00000264,-0.00000240,0.00001970,-0.00000769,
 -0.00001618,0.00000578,-0.00000184,0.00000078,-0.00000260,0.00000381,-
 0.00000328,-0.00000322,-0.00000202,0.00001575,-0.00003170,-0.00000523,
 0.00003913,0.00000700,-0.00000114,0.00001295,0.00002917,-0.00024375,-0
 .00076292,-0.00100269,-0.00137576,0.00397280,0.00488834,-0.00122280,0.
 00034646,-0.07372647,0.05015554,-0.03809411,-0.00618452,0.00678130,-0.
 00087795,0.00008174,0.00003577,-0.00042723,-0.00002342,-0.00015740,0.0
 0097963,0.07549842,-0.05301827,0.03802246,0.00077000,-0.00010955,-0.00
 029902,0.00043766,0.00150798,-0.00111699,0.00210025,-0.00158963,0.0014
 8380,-0.00156421,-0.00131167,0.00026806,0.00011556,0.00008836,-0.00030
 363,-0.00254251,0.00064883,0.00001375,-0.00081682,-0.00024764,-0.00014
 561,-0.00117233,-0.00177066,0.00013432,0.00157554,-0.00017225,-0.00075
 678,0.00002517,-0.00011511,-0.00019629,-0.00116779,-0.00014934,0.00072
 531,0.00016749,-0.00022971,0.00011632,-0.00037175,-0.00008329,0.000054
 40,-0.00064689,0.00072739,0.00016224,-0.00015595,0.00006207,0.00007238
 ,0.00005851,0.00001851,-0.00005876,0.00030918,0.00003277,-0.00014501,0
 .00023975,0.00048358,-0.00007976,0.00010162,-0.00034296,-0.00017567,0.
 00394623,0.00872948,0.00001493,-0.08197685,0.00350181,-0.02922577,-0.5
 7482102,-0.18350409,-0.14504606,-0.02177605,-0.04516093,-0.01304557,0.
 00536960,0.00485448,-0.00063051,-0.00132318,-0.00141169,-0.00050548,-0
 .00139008,-0.00210766,0.00056223,-0.00325001,-0.00207032,0.00017989,0.
 67964735,0.00015338,-0.00004461,-0.00014572,0.00031666,0.00020563,0.00
 007227,0.00062832,0.00047610,0.00023044,-0.00034444,-0.00010079,-0.000
 01865,0.00004168,0.00001686,-0.00019691,-0.00105990,0.00057006,-0.0000
 2349,0.00009579,0.00006236,0.00016319,-0.00364847,0.00763947,-0.000883
 17,0.00041263,-0.00005004,-0.00024151,0.00001056,-0.00005783,-0.000035
 46,-0.00032419,0.00002634,0.00017440,-0.00010602,-0.00023809,-0.000099
 35,-0.00010723,-0.00000293,0.00002990,0.00005728,0.00035899,0.00010652
 ,-0.00000938,0.00004209,0.00003587,0.00001885,0.00002447,-0.00001451,0
 .00011575,-0.00003030,-0.00003834,0.00021208,0.00008825,0.00002016,-0.
 00000780,-0.00015569,-0.00006035,-0.00697974,-0.01069088,-0.00234676,0
 .03064878,0.03033134,0.00908087,-0.18254759,-0.17466118,-0.05413116,-0
 .07564056,-0.03758437,-0.02276301,0.02361589,-0.00131756,0.00656584,0.
 00089745,0.00037361,0.00027025,-0.00485784,0.00222367,-0.00133109,-0.0
 0008659,0.00428302,0.00013907,0.22524378,0.18379179,0.00019991,-0.0000
 6965,-0.00013018,0.00019179,0.00045920,-0.00035798,0.00073923,-0.00050
 986,-0.00005373,-0.00043177,-0.00035385,0.00013724,0.00004858,0.000003
 90,-0.00005642,-0.00075166,0.00019624,0.00002537,-0.00032568,0.0000160
 3,-0.00002859,-0.00008387,-0.00037678,-0.00106157,0.00052333,-0.000042
 07,-0.00025765,0.00000323,-0.00001149,-0.00005921,-0.00033520,-0.00004
 010,0.00025834,0.00001093,-0.00009177,-0.00000334,-0.00011145,-0.00002
 028,0.00002312,-0.00014947,0.00024821,0.00011940,-0.00004134,0.0000263
 4,0.00002394,0.00002872,-0.00000047,-0.00000491,0.00008797,0.00000514,
 -0.00005557,0.00006892,0.00014064,-0.00005764,-0.00001444,-0.00010375,
 -0.00008028,-0.00039596,0.00217825,0.00491293,-0.02889207,0.00124441,0
 .01258496,-0.14483674,-0.05438021,-0.12410888,-0.01361558,-0.01385665,
 0.01679721,-0.00013846,0.00122511,0.00725297,-0.00031012,-0.00040521,-
 0.00038256,0.00058726,-0.00052306,-0.00353694,0.00011907,-0.00050654,-
 0.00363811,0.18804882,0.06728770,0.09337294,-0.00009097,-0.00034710,-0
 .00121164,0.00060303,0.00063280,0.00181890,0.00146160,-0.00187602,0.00
 004435,-0.00054208,0.00005612,-0.00015858,-0.00062022,0.00045714,-0.00
 130601,-0.00038370,0.00130491,0.00054782,0.00055089,0.00074280,0.00120
 924,0.01744115,0.02956291,-0.00125125,0.00039605,0.00051698,0.00015896
 ,0.00001820,-0.00005441,0.00002066,-0.00073397,0.00012089,0.00044375,-
 0.00017752,-0.00032606,-0.00018890,-0.00007838,-0.00003799,0.00000403,
 -0.00000677,0.00044494,0.00014258,-0.00003973,0.00006854,0.00005280,0.
 00002470,0.00009095,-0.00002394,0.00031188,-0.00004846,-0.00009128,0.0
 0091036,0.00043001,0.00010365,-0.00001148,-0.00018452,-0.00008610,-0.0
 1187373,0.00009529,-0.00442468,0.00883635,-0.00490551,0.00231245,-0.00
 741924,0.01936273,-0.00381352,-0.00714244,-0.07599708,-0.00796980,-0.1
 0526522,-0.04387528,-0.00867139,0.00054113,0.00146551,0.00103611,0.000
 46419,-0.00030444,0.00025537,0.00468146,0.00253266,0.00261021,-0.00188
 846,-0.00674913,-0.00022396,0.10003291,-0.00104839,-0.00098231,-0.0008
 8428,0.00005811,-0.00190421,0.00270503,-0.00591489,-0.00401468,-0.0031
 1754,0.00068347,0.00276203,-0.00051403,0.00061570,-0.00028674,-0.00152
 264,0.00178845,0.00164346,0.00031852,0.00185365,0.00133666,0.00183420,
 0.01338577,-0.06937387,0.00282726,-0.00140214,0.00082129,0.00095067,-0
 .00000143,0.00025802,0.00049277,0.00030283,0.00096054,-0.00031558,-0.0
 0076925,-0.00067428,-0.00077867,0.00040853,0.00007952,-0.00002420,0.00
 141820,0.00013802,0.00028380,0.00021242,0.00006216,0.00002632,-0.00003
 945,0.00014551,0.00005386,0.00035448,-0.00039647,-0.00002938,0.0017372
 5,-0.00039184,0.00033355,-0.00021520,0.00002604,0.00005276,0.01485597,
 0.01142715,0.00436766,-0.00825134,-0.00631440,-0.00257810,0.00262868,0
 .01189436,0.00094305,-0.04951492,-0.05827801,-0.01442560,-0.04231814,-
 0.65992180,-0.01206927,-0.00161014,-0.00128308,-0.00027149,0.00002920,
 0.00138845,0.00010822,-0.00054570,-0.00288620,-0.00011642,-0.00552256,
 -0.00557978,-0.00173944,0.07682084,0.77934449,0.00009655,-0.00000094,0
 .00042067,-0.00003413,0.00002289,-0.00190438,0.00142931,-0.00064872,-0
 .00311158,0.00023329,0.00006072,0.00088397,0.00008364,-0.00011757,0.00
 082735,-0.00078060,0.00065268,0.00059796,0.00056689,0.00052836,0.00063
 910,-0.00183444,0.00842889,0.02256131,0.00074803,0.00004509,-0.0003786
 5,0.00002116,0.00003392,-0.00004075,-0.00003943,-0.00011179,0.00015328
 ,-0.00010560,-0.00005058,0.00013674,-0.00005424,-0.00002720,0.00000061
 ,0.00001585,0.00002823,0.00007696,-0.00002640,0.00007026,0.00001771,0.
 00002496,-0.00007363,0.00000242,-0.00006509,0.00004332,-0.00006403,0.0
 0000987,0.00010108,-0.00063026,-0.00002453,0.00000512,-0.00002875,-0.0
 0449771,0.00012053,0.00205512,0.00241129,-0.00133746,0.00088695,-0.004
 14886,0.00527407,0.00614567,-0.00737860,-0.02167291,0.01612179,-0.0088
 8748,-0.01383548,-0.07815829,0.00093793,0.00055442,-0.00238636,0.00022
 342,-0.00008303,-0.00024680,0.00252030,0.00074775,-0.00352356,-0.00010
 554,-0.00184699,-0.00163485,0.01866018,0.02308895,0.04058063\\0.000009
 71,0.00000270,0.00000446,0.00001369,0.00001014,-0.00002357,-0.00004060
 ,0.00001501,0.00001424,0.00000741,0.00000364,-0.00000139,0.00000657,-0
 .00000618,0.00000426,0.00000084,-0.00003041,-0.00003060,0.00000769,-0.
 00000326,-0.00000039,0.00000771,-0.00001819,0.00002513,0.00000856,0.00
 000357,0.00000657,-0.00000852,0.00000057,-0.00000021,-0.00000166,-0.00
 000156,0.00001152,-0.00000678,-0.00000320,-0.00000556,-0.00000171,0.00
 000698,-0.00000034,0.00000859,-0.00001158,0.00001257,-0.00000031,-0.00
 000568,0.00000255,-0.00000647,0.00000249,0.00000009,-0.00000557,0.0000
 0295,-0.00000553,-0.00000748,0.00000093,0.00000078,-0.00000667,0.00001
 116,-0.00000251,0.00005863,-0.00000374,0.00001009,-0.00004813,-0.00002
 910,0.00000081,0.00005633,0.00001478,-0.00002507,-0.00005568,-0.000016
 39,0.00002368,0.00002015,0.00008210,-0.00001114,0.00001137,0.00001567,
 -0.00000247,0.00000355,0.00000351,0.00000158,0.00001468,0.00001093,-0.
 00000221,-0.00004319,-0.00000218,-0.00000281,-0.00000269,-0.00005568,-
 0.00000455\\\@
 The archive entry for this job was punched.


 A MAN BEGINS CUTTING HIS WISDOM TEETH THE 1ST
 TIME HE BITES OFF MORE THAN HE CAN CHEW.
 Job cpu time:       0 days 10 hours 39 minutes 27.7 seconds.
 Elapsed time:       0 days  0 hours 16 minutes  7.0 seconds.
 File lengths (MBytes):  RWF=    632 Int=      0 D2E=      0 Chk=     21 Scr=      1
 Normal termination of Gaussian 16 at Sat Oct 26 07:17:43 2024.
