 Entering Gaussian System, Link 0=g16
 Input=PseudoUridineAnNsllgPBE0aVDZ.gjf
 Output=PseudoUridineAnNsllgPBE0aVDZ.log
 Initial command:
 /sw/contrib/chem-src/g16/c01/g16/l1.exe "/scr/Gau-61963.inp" -scrdir="/scr/"
 Entering Link 1 = /sw/contrib/chem-src/g16/c01/g16/l1.exe PID=     61964.
  
 Copyright (c) 1988-2019, Gaussian, Inc.  All Rights Reserved.
  
 This is part of the Gaussian(R) 16 program.  It is based on
 the Gaussian(R) 09 system (copyright 2009, Gaussian, Inc.),
 the Gaussian(R) 03 system (copyright 2003, Gaussian, Inc.),
 the Gaussian(R) 98 system (copyright 1998, Gaussian, Inc.),
 the Gaussian(R) 94 system (copyright 1995, Gaussian, Inc.),
 the Gaussian 92(TM) system (copyright 1992, Gaussian, Inc.),
 the Gaussian 90(TM) system (copyright 1990, Gaussian, Inc.),
 the Gaussian 88(TM) system (copyright 1988, Gaussian, Inc.),
 the Gaussian 86(TM) system (copyright 1986, Carnegie Mellon
 University), and the Gaussian 82(TM) system (copyright 1983,
 Carnegie Mellon University). Gaussian is a federally registered
 trademark of Gaussian, Inc.
  
 This software contains proprietary and confidential information,
 including trade secrets, belonging to Gaussian, Inc.
  
 This software is provided under written license and may be
 used, copied, transmitted, or stored only in accord with that
 written license.
  
 The following legend is applicable only to US Government
 contracts under FAR:
  
                    RESTRICTED RIGHTS LEGEND
  
 Use, reproduction and disclosure by the US Government is
 subject to restrictions as set forth in subparagraphs (a)
 and (c) of the Commercial Computer Software - Restricted
 Rights clause in FAR 52.227-19.
  
 Gaussian, Inc.
 340 Quinnipiac St., Bldg. 40, Wallingford CT 06492
  
  
 ---------------------------------------------------------------
 Warning -- This program may not be used in any manner that
 competes with the business of Gaussian, Inc. or will provide
 assistance to any competitor of Gaussian, Inc.  The licensee
 of this program is prohibited from giving any competitor of
 Gaussian, Inc. access to this program.  By using this program,
 the user acknowledges that Gaussian, Inc. is engaged in the
 business of creating and licensing software in the field of
 computational chemistry and represents and warrants to the
 licensee that it is not a competitor of Gaussian, Inc. and that
 it will not use this program in any manner prohibited above.
 ---------------------------------------------------------------
  

 Cite this work as:
 Gaussian 16, Revision C.01,
 M. J. Frisch, G. W. Trucks, H. B. Schlegel, G. E. Scuseria, 
 M. A. Robb, J. R. Cheeseman, G. Scalmani, V. Barone, 
 G. A. Petersson, H. Nakatsuji, X. Li, M. Caricato, A. V. Marenich, 
 J. Bloino, B. G. Janesko, R. Gomperts, B. Mennucci, H. P. Hratchian, 
 J. V. Ortiz, A. F. Izmaylov, J. L. Sonnenberg, D. Williams-Young, 
 F. Ding, F. Lipparini, F. Egidi, J. Goings, B. Peng, A. Petrone, 
 T. Henderson, D. Ranasinghe, V. G. Zakrzewski, J. Gao, N. Rega, 
 G. Zheng, W. Liang, M. Hada, M. Ehara, K. Toyota, R. Fukuda, 
 J. Hasegawa, M. Ishida, T. Nakajima, Y. Honda, O. Kitao, H. Nakai, 
 T. Vreven, K. Throssell, J. A. Montgomery, Jr., J. E. Peralta, 
 F. Ogliaro, M. J. Bearpark, J. J. Heyd, E. N. Brothers, K. N. Kudin, 
 V. N. Staroverov, T. A. Keith, R. Kobayashi, J. Normand, 
 K. Raghavachari, A. P. Rendell, J. C. Burant, S. S. Iyengar, 
 J. Tomasi, M. Cossi, J. M. Millam, M. Klene, C. Adamo, R. Cammi, 
 J. W. Ochterski, R. L. Martin, K. Morokuma, O. Farkas, 
 J. B. Foresman, and D. J. Fox, Gaussian, Inc., Wallingford CT, 2019.
 
 ******************************************
 Gaussian 16:  EM64L-G16RevC.01  3-Jul-2019
                27-Oct-2024 
 ******************************************
 %nprocshared=40
 Will use up to   40 processors via shared memory.
 %mem=50gb
 ------------------------------------------------------
 # PBE1PBE/aug-cc-pVDZ opt freq EmpiricalDispersion=GD3
 ------------------------------------------------------
 1/18=20,19=15,26=3,38=1/1,3;
 2/9=110,12=2,17=6,18=5,40=1/2;
 3/5=16,7=10,11=2,25=1,30=1,71=1,74=-13,124=31/1,2,3;
 4//1;
 5/5=2,38=5/2;
 6/7=2,8=2,9=2,10=2,28=1/1;
 7//1,2,3,16;
 1/18=20,19=15,26=3/3(2);
 2/9=110/2;
 99//99;
 2/9=110/2;
 3/5=16,7=10,11=2,25=1,30=1,71=1,74=-13,124=31/1,2,3;
 4/5=5,16=3,69=1/1;
 5/5=2,38=5/2;
 7//1,2,3,16;
 1/18=20,19=15,26=3/3(-5);
 2/9=110/2;
 6/7=2,8=2,9=2,10=2,19=2,28=1/1;
 99/9=1/99;
 ----
 blah
 ----
 Symbolic Z-matrix:
 Charge = -1 Multiplicity = 1
 C                    -2.09251  -0.19569   0.79799 
 C                    -1.2542   -1.37695   0.31304 
 C                    -0.4886   -0.7508   -0.86133 
 O                    -2.17762  -2.36744  -0.10764 
 H                    -0.57935  -1.77267   1.08303 
 O                    -1.28614   0.32765  -1.34181 
 H                    -0.37388  -1.50161  -1.65796 
 C                     0.86913  -0.25316  -0.45744 
 C                    -2.4343    0.50433  -0.51935 
 H                    -1.45066   0.45841   1.40442 
 O                    -3.20254  -0.54138   1.57925 
 C                    -2.75077   1.98211  -0.4112 
 H                    -3.30588  -0.00349  -0.97164 
 O                    -1.73412   2.72884   0.24445 
 H                    -3.72385   2.0987    0.09105 
 H                    -2.83961   2.39891  -1.4229 
 H                    -3.5502   -1.36507   1.21196 
 H                    -1.69241  -3.17416  -0.30371 
 H                    -1.90259   2.71108   1.19008 
 C                     1.16983   1.05997  -0.34174 
 N                     2.4202    1.4804    0.02445 
 C                     3.47189   0.62658   0.29971 
 N                     3.13471  -0.70645   0.17805 
 C                     1.89603  -1.24246  -0.17575 
 H                     0.42273   1.83151  -0.52608 
 H                     2.63527   2.46391   0.10062 
 O                     4.57823   1.01655   0.61886 
 O                     1.73224  -2.45428  -0.22531 
 

 GradGradGradGradGradGradGradGradGradGradGradGradGradGradGradGradGradGrad
 Berny optimization.
 Initialization pass.
                           ----------------------------
                           !    Initial Parameters    !
                           ! (Angstroms and Degrees)  !
 --------------------------                            --------------------------
 ! Name  Definition              Value          Derivative Info.                !
 --------------------------------------------------------------------------------
 ! R1    R(1,2)                  1.5275         estimate D2E/DX2                !
 ! R2    R(1,9)                  1.5304         estimate D2E/DX2                !
 ! R3    R(1,10)                 1.0989         estimate D2E/DX2                !
 ! R4    R(1,11)                 1.4007         estimate D2E/DX2                !
 ! R5    R(2,3)                  1.5354         estimate D2E/DX2                !
 ! R6    R(2,4)                  1.418          estimate D2E/DX2                !
 ! R7    R(2,5)                  1.0977         estimate D2E/DX2                !
 ! R8    R(3,6)                  1.4248         estimate D2E/DX2                !
 ! R9    R(3,7)                  1.1007         estimate D2E/DX2                !
 ! R10   R(3,8)                  1.5014         estimate D2E/DX2                !
 ! R11   R(4,18)                 0.9616         estimate D2E/DX2                !
 ! R12   R(6,9)                  1.4234         estimate D2E/DX2                !
 ! R13   R(8,20)                 1.3521         estimate D2E/DX2                !
 ! R14   R(8,24)                 1.4535         estimate D2E/DX2                !
 ! R15   R(9,12)                 1.5151         estimate D2E/DX2                !
 ! R16   R(9,13)                 1.1055         estimate D2E/DX2                !
 ! R17   R(11,17)                0.9666         estimate D2E/DX2                !
 ! R18   R(12,14)                1.4216         estimate D2E/DX2                !
 ! R19   R(12,15)                1.1012         estimate D2E/DX2                !
 ! R20   R(12,16)                1.0978         estimate D2E/DX2                !
 ! R21   R(14,19)                0.9607         estimate D2E/DX2                !
 ! R22   R(20,21)                1.369          estimate D2E/DX2                !
 ! R23   R(20,25)                1.0897         estimate D2E/DX2                !
 ! R24   R(21,22)                1.3823         estimate D2E/DX2                !
 ! R25   R(21,26)                1.0096         estimate D2E/DX2                !
 ! R26   R(22,23)                1.3804         estimate D2E/DX2                !
 ! R27   R(22,27)                1.2157         estimate D2E/DX2                !
 ! R28   R(23,24)                1.3953         estimate D2E/DX2                !
 ! R29   R(24,28)                1.2238         estimate D2E/DX2                !
 ! A1    A(2,1,9)              101.7132         estimate D2E/DX2                !
 ! A2    A(2,1,10)             108.358          estimate D2E/DX2                !
 ! A3    A(2,1,11)             114.9064         estimate D2E/DX2                !
 ! A4    A(9,1,10)             109.4624         estimate D2E/DX2                !
 ! A5    A(9,1,11)             114.5819         estimate D2E/DX2                !
 ! A6    A(10,1,11)            107.5763         estimate D2E/DX2                !
 ! A7    A(1,2,3)              101.6023         estimate D2E/DX2                !
 ! A8    A(1,2,4)              106.0792         estimate D2E/DX2                !
 ! A9    A(1,2,5)              113.1718         estimate D2E/DX2                !
 ! A10   A(3,2,4)              112.4993         estimate D2E/DX2                !
 ! A11   A(3,2,5)              112.148          estimate D2E/DX2                !
 ! A12   A(4,2,5)              110.8942         estimate D2E/DX2                !
 ! A13   A(2,3,6)              106.7087         estimate D2E/DX2                !
 ! A14   A(2,3,7)              109.1092         estimate D2E/DX2                !
 ! A15   A(2,3,8)              112.3546         estimate D2E/DX2                !
 ! A16   A(6,3,7)              109.305          estimate D2E/DX2                !
 ! A17   A(6,3,8)              110.2451         estimate D2E/DX2                !
 ! A18   A(7,3,8)              109.0589         estimate D2E/DX2                !
 ! A19   A(2,4,18)             108.5365         estimate D2E/DX2                !
 ! A20   A(3,6,9)              110.5261         estimate D2E/DX2                !
 ! A21   A(3,8,20)             123.0956         estimate D2E/DX2                !
 ! A22   A(3,8,24)             117.7387         estimate D2E/DX2                !
 ! A23   A(20,8,24)            119.1653         estimate D2E/DX2                !
 ! A24   A(1,9,6)              105.0967         estimate D2E/DX2                !
 ! A25   A(1,9,12)             115.552          estimate D2E/DX2                !
 ! A26   A(1,9,13)             108.5496         estimate D2E/DX2                !
 ! A27   A(6,9,12)             109.3176         estimate D2E/DX2                !
 ! A28   A(6,9,13)             110.0322         estimate D2E/DX2                !
 ! A29   A(12,9,13)            108.2133         estimate D2E/DX2                !
 ! A30   A(1,11,17)            106.4639         estimate D2E/DX2                !
 ! A31   A(9,12,14)            113.3193         estimate D2E/DX2                !
 ! A32   A(9,12,15)            108.6863         estimate D2E/DX2                !
 ! A33   A(9,12,16)            108.7492         estimate D2E/DX2                !
 ! A34   A(14,12,15)           111.4658         estimate D2E/DX2                !
 ! A35   A(14,12,16)           106.467          estimate D2E/DX2                !
 ! A36   A(15,12,16)           107.9754         estimate D2E/DX2                !
 ! A37   A(12,14,19)           108.5932         estimate D2E/DX2                !
 ! A38   A(8,20,21)            121.6186         estimate D2E/DX2                !
 ! A39   A(8,20,25)            121.3788         estimate D2E/DX2                !
 ! A40   A(21,20,25)           116.9996         estimate D2E/DX2                !
 ! A41   A(20,21,22)           123.9475         estimate D2E/DX2                !
 ! A42   A(20,21,26)           120.9232         estimate D2E/DX2                !
 ! A43   A(22,21,26)           115.1256         estimate D2E/DX2                !
 ! A44   A(21,22,23)           113.147          estimate D2E/DX2                !
 ! A45   A(21,22,27)           123.1279         estimate D2E/DX2                !
 ! A46   A(23,22,27)           123.7249         estimate D2E/DX2                !
 ! A47   A(22,23,24)           127.6025         estimate D2E/DX2                !
 ! A48   A(8,24,23)            114.5119         estimate D2E/DX2                !
 ! A49   A(8,24,28)            124.8592         estimate D2E/DX2                !
 ! A50   A(23,24,28)           120.628          estimate D2E/DX2                !
 ! D1    D(9,1,2,3)             36.1624         estimate D2E/DX2                !
 ! D2    D(9,1,2,4)            -81.5956         estimate D2E/DX2                !
 ! D3    D(9,1,2,5)            156.5943         estimate D2E/DX2                !
 ! D4    D(10,1,2,3)           -79.1352         estimate D2E/DX2                !
 ! D5    D(10,1,2,4)           163.1068         estimate D2E/DX2                !
 ! D6    D(10,1,2,5)            41.2967         estimate D2E/DX2                !
 ! D7    D(11,1,2,3)           160.5419         estimate D2E/DX2                !
 ! D8    D(11,1,2,4)            42.7839         estimate D2E/DX2                !
 ! D9    D(11,1,2,5)           -79.0263         estimate D2E/DX2                !
 ! D10   D(2,1,9,6)            -34.9361         estimate D2E/DX2                !
 ! D11   D(2,1,9,12)          -155.5162         estimate D2E/DX2                !
 ! D12   D(2,1,9,13)            82.7583         estimate D2E/DX2                !
 ! D13   D(10,1,9,6)            79.5461         estimate D2E/DX2                !
 ! D14   D(10,1,9,12)          -41.034          estimate D2E/DX2                !
 ! D15   D(10,1,9,13)         -162.7596         estimate D2E/DX2                !
 ! D16   D(11,1,9,6)          -159.5332         estimate D2E/DX2                !
 ! D17   D(11,1,9,12)           79.8867         estimate D2E/DX2                !
 ! D18   D(11,1,9,13)          -41.8389         estimate D2E/DX2                !
 ! D19   D(2,1,11,17)          -36.2325         estimate D2E/DX2                !
 ! D20   D(9,1,11,17)           81.0605         estimate D2E/DX2                !
 ! D21   D(10,1,11,17)        -156.9852         estimate D2E/DX2                !
 ! D22   D(1,2,3,6)            -25.993          estimate D2E/DX2                !
 ! D23   D(1,2,3,7)           -143.9819         estimate D2E/DX2                !
 ! D24   D(1,2,3,8)             94.9441         estimate D2E/DX2                !
 ! D25   D(4,2,3,6)             87.0286         estimate D2E/DX2                !
 ! D26   D(4,2,3,7)            -30.9603         estimate D2E/DX2                !
 ! D27   D(4,2,3,8)           -152.0343         estimate D2E/DX2                !
 ! D28   D(5,2,3,6)           -147.1422         estimate D2E/DX2                !
 ! D29   D(5,2,3,7)             94.8689         estimate D2E/DX2                !
 ! D30   D(5,2,3,8)            -26.2051         estimate D2E/DX2                !
 ! D31   D(1,2,4,18)          -172.0933         estimate D2E/DX2                !
 ! D32   D(3,2,4,18)            77.6676         estimate D2E/DX2                !
 ! D33   D(5,2,4,18)           -48.8381         estimate D2E/DX2                !
 ! D34   D(2,3,6,9)              4.3443         estimate D2E/DX2                !
 ! D35   D(7,3,6,9)            122.2045         estimate D2E/DX2                !
 ! D36   D(8,3,6,9)           -117.9295         estimate D2E/DX2                !
 ! D37   D(2,3,8,20)          -107.5658         estimate D2E/DX2                !
 ! D38   D(2,3,8,24)            72.1769         estimate D2E/DX2                !
 ! D39   D(6,3,8,20)            11.3167         estimate D2E/DX2                !
 ! D40   D(6,3,8,24)          -168.9406         estimate D2E/DX2                !
 ! D41   D(7,3,8,20)           131.3313         estimate D2E/DX2                !
 ! D42   D(7,3,8,24)           -48.926          estimate D2E/DX2                !
 ! D43   D(3,6,9,1)             19.4045         estimate D2E/DX2                !
 ! D44   D(3,6,9,12)           144.0128         estimate D2E/DX2                !
 ! D45   D(3,6,9,13)           -97.2796         estimate D2E/DX2                !
 ! D46   D(3,8,20,21)         -179.767          estimate D2E/DX2                !
 ! D47   D(3,8,20,25)            0.8927         estimate D2E/DX2                !
 ! D48   D(24,8,20,21)           0.4939         estimate D2E/DX2                !
 ! D49   D(24,8,20,25)        -178.8464         estimate D2E/DX2                !
 ! D50   D(3,8,24,23)          179.3023         estimate D2E/DX2                !
 ! D51   D(3,8,24,28)           -1.0528         estimate D2E/DX2                !
 ! D52   D(20,8,24,23)          -0.9446         estimate D2E/DX2                !
 ! D53   D(20,8,24,28)         178.7002         estimate D2E/DX2                !
 ! D54   D(1,9,12,14)           53.9838         estimate D2E/DX2                !
 ! D55   D(1,9,12,15)          -70.5203         estimate D2E/DX2                !
 ! D56   D(1,9,12,16)          172.1673         estimate D2E/DX2                !
 ! D57   D(6,9,12,14)          -64.2777         estimate D2E/DX2                !
 ! D58   D(6,9,12,15)          171.2182         estimate D2E/DX2                !
 ! D59   D(6,9,12,16)           53.9058         estimate D2E/DX2                !
 ! D60   D(13,9,12,14)         175.8895         estimate D2E/DX2                !
 ! D61   D(13,9,12,15)          51.3853         estimate D2E/DX2                !
 ! D62   D(13,9,12,16)         -65.927          estimate D2E/DX2                !
 ! D63   D(9,12,14,19)         -87.54           estimate D2E/DX2                !
 ! D64   D(15,12,14,19)         35.4433         estimate D2E/DX2                !
 ! D65   D(16,12,14,19)        152.9611         estimate D2E/DX2                !
 ! D66   D(8,20,21,22)           0.2506         estimate D2E/DX2                !
 ! D67   D(8,20,21,26)         179.5171         estimate D2E/DX2                !
 ! D68   D(25,20,21,22)        179.6185         estimate D2E/DX2                !
 ! D69   D(25,20,21,26)         -1.115          estimate D2E/DX2                !
 ! D70   D(20,21,22,23)         -0.4417         estimate D2E/DX2                !
 ! D71   D(20,21,22,27)        179.7108         estimate D2E/DX2                !
 ! D72   D(26,21,22,23)       -179.7467         estimate D2E/DX2                !
 ! D73   D(26,21,22,27)          0.4059         estimate D2E/DX2                !
 ! D74   D(21,22,23,24)         -0.1221         estimate D2E/DX2                !
 ! D75   D(27,22,23,24)        179.7244         estimate D2E/DX2                !
 ! D76   D(22,23,24,8)           0.7929         estimate D2E/DX2                !
 ! D77   D(22,23,24,28)       -178.8685         estimate D2E/DX2                !
 --------------------------------------------------------------------------------
 Trust Radius=3.00D-01 FncErr=1.00D-07 GrdErr=1.00D-06 EigMax=2.50D+02 EigMin=1.00D-04
 Number of steps in this run=    166 maximum allowed number of steps=    168.
 GradGradGradGradGradGradGradGradGradGradGradGradGradGradGradGradGradGrad

                          Input orientation:                          
 ---------------------------------------------------------------------
 Center     Atomic      Atomic             Coordinates (Angstroms)
 Number     Number       Type             X           Y           Z
 ---------------------------------------------------------------------
      1          6           0       -2.092511   -0.195694    0.797987
      2          6           0       -1.254201   -1.376946    0.313037
      3          6           0       -0.488602   -0.750795   -0.861334
      4          8           0       -2.177622   -2.367441   -0.107639
      5          1           0       -0.579354   -1.772669    1.083028
      6          8           0       -1.286140    0.327650   -1.341811
      7          1           0       -0.373882   -1.501610   -1.657958
      8          6           0        0.869129   -0.253155   -0.457443
      9          6           0       -2.434300    0.504333   -0.519346
     10          1           0       -1.450655    0.458413    1.404415
     11          8           0       -3.202540   -0.541382    1.579245
     12          6           0       -2.750774    1.982106   -0.411197
     13          1           0       -3.305883   -0.003487   -0.971637
     14          8           0       -1.734122    2.728841    0.244450
     15          1           0       -3.723846    2.098703    0.091051
     16          1           0       -2.839608    2.398907   -1.422900
     17          1           0       -3.550197   -1.365071    1.211959
     18          1           0       -1.692414   -3.174163   -0.303713
     19          1           0       -1.902589    2.711081    1.190075
     20          6           0        1.169825    1.059967   -0.341743
     21          7           0        2.420198    1.480404    0.024449
     22          6           0        3.471891    0.626576    0.299705
     23          7           0        3.134708   -0.706451    0.178050
     24          6           0        1.896027   -1.242460   -0.175752
     25          1           0        0.422731    1.831507   -0.526080
     26          1           0        2.635266    2.463911    0.100619
     27          8           0        4.578227    1.016546    0.618858
     28          8           0        1.732242   -2.454277   -0.225313
 ---------------------------------------------------------------------
                    Distance matrix (angstroms):
                    1          2          3          4          5
     1  C    0.000000
     2  C    1.527513   0.000000
     3  C    2.373606   1.535368   0.000000
     4  O    2.354546   1.418011   2.456499   0.000000
     5  H    2.204029   1.097680   2.198410   2.079880   0.000000
     6  O    2.345817   2.375961   1.424770   3.095390   3.284925
     7  H    3.269674   2.162250   1.100679   2.531132   2.762009
     8  C    3.217253   2.522910   1.501402   3.724951   2.603858
     9  C    1.530433   2.371646   2.340522   2.912468   3.345619
    10  H    1.098904   2.144351   2.742508   3.286372   2.416647
    11  O    1.400724   2.469307   3.655918   2.688964   2.939967
    12  C    2.576480   3.747996   3.576142   4.397637   4.587604
    13  H    2.154248   2.783195   2.916798   2.758214   3.845207
    14  O    2.997958   4.134310   3.857712   5.127646   4.722319
    15  H    2.902632   4.269492   4.415142   4.730405   5.085211
    16  H    3.496062   4.447927   3.970291   4.988608   5.365675
    17  H    1.914070   2.465725   3.748232   2.151754   3.001444
    18  H    3.200796   1.949974   2.762755   0.961599   2.264098
    19  H    2.939242   4.231024   4.265234   5.248913   4.676155
    20  C    3.676752   3.499026   2.509823   4.796596   3.621247
    21  N    4.875675   4.663576   3.771469   5.996941   4.549768
    22  C    5.646856   5.133247   4.350939   6.406798   4.773108
    23  N    5.288574   4.441881   3.769703   5.573272   3.968635
    24  C    4.237018   3.190758   2.529469   4.226682   2.827218
    25  H    3.491295   3.716233   2.758842   4.956621   4.072283
    26  H    5.469159   5.470398   4.584565   6.822699   5.408098
    27  O    6.782356   6.311858   5.566616   7.590827   5.881821
    28  O    4.558188   3.220140   2.870283   3.912598   2.742229
                    6          7          8          9         10
     6  O    0.000000
     7  H    2.068419   0.000000
     8  C    2.400963   2.131889   0.000000
     9  C    1.423354   3.092825   3.389729   0.000000
    10  H    2.754255   3.791999   3.058471   2.161139   0.000000
    11  O    3.600052   4.404864   4.561761   2.467346   2.024662
    12  C    2.397586   4.397761   4.254671   1.515145   2.703405
    13  H    2.079914   3.363337   4.213960   1.105489   3.049729
    14  O    2.912496   4.833852   4.020183   2.453991   2.565291
    15  H    3.336485   5.219535   5.189172   2.139516   3.095622
    16  H    2.590356   4.620508   4.660501   2.137778   3.699786
    17  H    3.809593   4.282995   4.853216   2.781603   2.787510
    18  H    3.674969   2.523874   3.888113   3.758753   4.021412
    19  H    3.531459   5.309897   4.379889   2.841579   2.307531
    20  C    2.751034   3.267588   1.352070   3.651026   3.205909
    21  N    4.114906   4.419252   2.375555   4.981423   4.234652
    22  C    5.042102   4.811610   2.849837   5.963965   5.047784
    23  N    4.787822   4.038986   2.396284   5.741621   4.887375
    24  C    3.735121   2.723340   1.453476   4.681995   4.073104
    25  H    2.418107   3.609073   2.133026   3.150248   3.020227
    26  H    4.692722   5.279481   3.288331   5.470357   4.734623
    27  O    6.221704   6.004031   4.065461   7.122739   6.105410
    28  O    4.253976   2.719523   2.375665   5.118584   4.612007
                   11         12         13         14         15
    11  O    0.000000
    12  C    3.245604   0.000000
    13  H    2.609025   2.136544   0.000000
    14  O    3.825217   1.421643   3.378597   0.000000
    15  H    3.075147   1.101234   2.392321   2.092751   0.000000
    16  H    4.217807   1.097797   2.488483   2.027563   1.778777
    17  H    0.966555   3.804906   2.584897   4.581956   3.644766
    18  H    3.571771   5.264864   3.619750   5.928548   5.664421
    19  H    3.524180   1.953175   3.743142   0.960679   2.213558
    20  C    5.037071   4.028183   4.643238   3.400246   5.021384
    21  N    6.174155   5.213487   5.998510   4.343428   6.175436
    22  C    6.895606   6.408151   6.924703   5.614726   7.347743
    23  N    6.492404   6.497265   6.580057   5.959123   7.410548
    24  C    5.437546   5.660920   5.406325   5.396831   6.543510
    25  H    4.817218   3.179153   4.179508   2.459866   4.200755
    26  H    6.730386   5.431714   6.521889   4.379775   6.369598
    27  O    7.993111   7.463751   8.107363   6.551174   8.388925
    28  O    5.591750   6.309792   5.652086   6.253085   7.113270
                   16         17         18         19         20
    16  H    0.000000
    17  H    4.649188   0.000000
    18  H    5.798943   3.003570   0.000000
    19  H    2.793402   4.396602   6.075498   0.000000
    20  C    4.363166   5.529322   5.110941   3.809511   0.000000
    21  N    5.532091   6.719563   6.219828   4.643246   1.369049
    22  C    6.778167   7.355854   6.440480   5.832920   2.428743
    23  N    6.920892   6.796374   5.442684   6.170744   2.692802
    24  C    6.102554   5.621577   4.077347   5.650261   2.419936
    25  H    3.430610   5.387304   5.438751   3.020919   1.089680
    26  H    5.683272   7.359085   7.119001   4.673343   2.077080
    27  O    7.816903   8.490886   7.598297   6.722999   3.541447
    28  O    6.774173   5.581781   3.500379   6.472731   3.560868
                   21         22         23         24         25
    21  N    0.000000
    22  C    1.382334   0.000000
    23  N    2.305743   1.380382   0.000000
    24  C    2.780076   2.490522   1.395282   0.000000
    25  H    2.101483   3.380999   3.780456   3.426748   0.000000
    26  H    1.009625   2.028639   3.210395   3.789465   2.384952
    27  O    2.285952   1.215695   2.290585   3.595652   4.386706
    28  O    4.002172   3.576825   2.276952   1.223839   4.491461
                   26         27         28
    26  H    0.000000
    27  O    2.477607   0.000000
    28  O    5.011014   4.567151   0.000000
 Stoichiometry    C9H11N2O6(1-)
 Framework group  C1[X(C9H11N2O6)]
 Deg. of freedom    78
 Full point group                 C1      NOp   1
 Largest Abelian subgroup         C1      NOp   1
 Largest concise Abelian subgroup C1      NOp   1
                         Standard orientation:                         
 ---------------------------------------------------------------------
 Center     Atomic      Atomic             Coordinates (Angstroms)
 Number     Number       Type             X           Y           Z
 ---------------------------------------------------------------------
      1          6           0       -2.065973   -0.180520    0.796939
      2          6           0       -1.240412   -1.372613    0.316667
      3          6           0       -0.465046   -0.758260   -0.857526
      4          8           0       -2.174379   -2.353325   -0.103647
      5          1           0       -0.571879   -1.774283    1.089083
      6          8           0       -1.248946    0.328214   -1.342340
      7          1           0       -0.357344   -1.512291   -1.652090
      8          6           0        0.897505   -0.275457   -0.451861
      9          6           0       -2.396749    0.520230   -0.522818
     10          1           0       -1.417865    0.467552    1.403197
     11          8           0       -3.181634   -0.511382    1.576594
     12          6           0       -2.696247    2.001841   -0.418916
     13          1           0       -3.273199    0.021479   -0.975794
     14          8           0       -1.672399    2.738297    0.237159
     15          1           0       -3.668981    2.130962    0.080919
     16          1           0       -2.778041    2.417187   -1.431810
     17          1           0       -3.538052   -1.331863    1.210529
     18          1           0       -1.698164   -3.166107   -0.296718
     19          1           0       -1.843105    2.724794    1.182452
     20          6           0        1.213202    1.034357   -0.338660
     21          7           0        2.467586    1.441119    0.029257
     22          6           0        3.508680    0.575793    0.308867
     23          7           0        3.156280   -0.753515    0.189679
     24          6           0        1.912216   -1.275946   -0.165544
     25          1           0        0.475532    1.814080   -0.526487
     26          1           0        2.693913    2.422241    0.103533
     27          8           0        4.618784    0.953650    0.629503
     28          8           0        1.734456   -2.485894   -0.212550
 ---------------------------------------------------------------------
 Rotational constants (GHZ):           0.7825327           0.3267718           0.2582643
 Standard basis: Aug-CC-pVDZ (5D, 7F)
 There are   524 symmetry adapted cartesian basis functions of A   symmetry.
 There are   490 symmetry adapted basis functions of A   symmetry.
   490 basis functions,   852 primitive gaussians,   524 cartesian basis functions
    64 alpha electrons       64 beta electrons
       nuclear repulsion energy      1296.6856461304 Hartrees.
 NAtoms=   28 NActive=   28 NUniq=   28 SFac= 1.00D+00 NAtFMM=   60 NAOKFM=F Big=F
 Integral buffers will be    131072 words long.
 Raffenetti 2 integral format.
 Two-electron integral symmetry is turned on.
 Nuclear repulsion after empirical dispersion term =     1296.6659688811 Hartrees.
 One-electron integrals computed using PRISM.
 NBasis=   490 RedAO= T EigKep=  3.10D-06  NBF=   490
 NBsUse=   490 1.00D-06 EigRej= -1.00D+00 NBFU=   490
 ExpMin= 2.97D-02 ExpMax= 1.17D+04 ExpMxC= 4.01D+02 IAcc=3 IRadAn=         5 AccDes= 0.00D+00
 Harris functional with IExCor= 1009 and IRadAn=       5 diagonalized for initial guess.
 HarFok:  IExCor= 1009 AccDes= 0.00D+00 IRadAn=         5 IDoV= 1 UseB2=F ITyADJ=14
 ICtDFT=  3500011 ScaDFX=  1.000000  1.000000  1.000000  1.000000
 FoFCou: FMM=F IPFlag=           0 FMFlag=      100000 FMFlg1=           0
         NFxFlg=           0 DoJE=T BraDBF=F KetDBF=T FulRan=T
         wScrn=  0.000000 ICntrl=       500 IOpCl=  0 I1Cent=   200000004 NGrid=           0
         NMat0=    1 NMatS0=      1 NMatT0=    0 NMatD0=    1 NMtDS0=    0 NMtDT0=    0
 Petite list used in FoFCou.
 Requested convergence on RMS density matrix=1.00D-08 within 128 cycles.
 Requested convergence on MAX density matrix=1.00D-06.
 Requested convergence on             energy=1.00D-06.
 No special actions if energy rises.
 EnCoef did     2 forward-backward iterations
 SCF Done:  E(RPBE1PBE) =  -909.659140142     A.U. after   17 cycles
            NFock= 17  Conv=0.31D-08     -V/T= 2.0052

 **********************************************************************

            Population analysis using the SCF Density.

 **********************************************************************

 Orbital symmetries:
       Occupied  (A) (A) (A) (A) (A) (A) (A) (A) (A) (A) (A) (A)
                 (A) (A) (A) (A) (A) (A) (A) (A) (A) (A) (A) (A)
                 (A) (A) (A) (A) (A) (A) (A) (A) (A) (A) (A) (A)
                 (A) (A) (A) (A) (A) (A) (A) (A) (A) (A) (A) (A)
                 (A) (A) (A) (A) (A) (A) (A) (A) (A) (A) (A) (A)
                 (A) (A) (A) (A)
       Virtual   (A) (A) (A) (A) (A) (A) (A) (A) (A) (A) (A) (A)
                 (A) (A) (A) (A) (A) (A) (A) (A) (A) (A) (A) (A)
                 (A) (A) (A) (A) (A) (A) (A) (A) (A) (A) (A) (A)
                 (A) (A) (A) (A) (A) (A) (A) (A) (A) (A) (A) (A)
                 (A) (A) (A) (A) (A) (A) (A) (A) (A) (A) (A) (A)
                 (A) (A) (A) (A) (A) (A) (A) (A) (A) (A) (A) (A)
                 (A) (A) (A) (A) (A) (A) (A) (A) (A) (A) (A) (A)
                 (A) (A) (A) (A) (A) (A) (A) (A) (A) (A) (A) (A)
                 (A) (A) (A) (A) (A) (A) (A) (A) (A) (A) (A) (A)
                 (A) (A) (A) (A) (A) (A) (A) (A) (A) (A) (A) (A)
                 (A) (A) (A) (A) (A) (A) (A) (A) (A) (A) (A) (A)
                 (A) (A) (A) (A) (A) (A) (A) (A) (A) (A) (A) (A)
                 (A) (A) (A) (A) (A) (A) (A) (A) (A) (A) (A) (A)
                 (A) (A) (A) (A) (A) (A) (A) (A) (A) (A) (A) (A)
                 (A) (A) (A) (A) (A) (A) (A) (A) (A) (A) (A) (A)
                 (A) (A) (A) (A) (A) (A) (A) (A) (A) (A) (A) (A)
                 (A) (A) (A) (A) (A) (A) (A) (A) (A) (A) (A) (A)
                 (A) (A) (A) (A) (A) (A) (A) (A) (A) (A) (A) (A)
                 (A) (A) (A) (A) (A) (A) (A) (A) (A) (A) (A) (A)
                 (A) (A) (A) (A) (A) (A) (A) (A) (A) (A) (A) (A)
                 (A) (A) (A) (A) (A) (A) (A) (A) (A) (A) (A) (A)
                 (A) (A) (A) (A) (A) (A) (A) (A) (A) (A) (A) (A)
                 (A) (A) (A) (A) (A) (A) (A) (A) (A) (A) (A) (A)
                 (A) (A) (A) (A) (A) (A) (A) (A) (A) (A) (A) (A)
                 (A) (A) (A) (A) (A) (A) (A) (A) (A) (A) (A) (A)
                 (A) (A) (A) (A) (A) (A) (A) (A) (A) (A) (A) (A)
                 (A) (A) (A) (A) (A) (A) (A) (A) (A) (A) (A) (A)
                 (A) (A) (A) (A) (A) (A) (A) (A) (A) (A) (A) (A)
                 (A) (A) (A) (A) (A) (A) (A) (A) (A) (A) (A) (A)
                 (A) (A) (A) (A) (A) (A) (A) (A) (A) (A) (A) (A)
                 (A) (A) (A) (A) (A) (A) (A) (A) (A) (A) (A) (A)
                 (A) (A) (A) (A) (A) (A) (A) (A) (A) (A) (A) (A)
                 (A) (A) (A) (A) (A) (A) (A) (A) (A) (A) (A) (A)
                 (A) (A) (A) (A) (A) (A) (A) (A) (A) (A) (A) (A)
                 (A) (A) (A) (A) (A) (A) (A) (A) (A) (A) (A) (A)
                 (A) (A) (A) (A) (A) (A)
 The electronic state is 1-A.
 Alpha  occ. eigenvalues --  -19.15120 -19.14643 -19.14408 -19.12804 -19.01814
 Alpha  occ. eigenvalues --  -19.01806 -14.29880 -14.18683 -10.19894 -10.19195
 Alpha  occ. eigenvalues --  -10.18858 -10.18463 -10.18263 -10.17268 -10.15592
 Alpha  occ. eigenvalues --  -10.14704 -10.09363  -1.00100  -0.98192  -0.96852
 Alpha  occ. eigenvalues --   -0.96264  -0.91951  -0.89179  -0.83551  -0.71651
 Alpha  occ. eigenvalues --   -0.70831  -0.70210  -0.65467  -0.59941  -0.54355
 Alpha  occ. eigenvalues --   -0.52814  -0.49941  -0.48376  -0.46643  -0.45779
 Alpha  occ. eigenvalues --   -0.43958  -0.42929  -0.40146  -0.39255  -0.37924
 Alpha  occ. eigenvalues --   -0.37302  -0.34189  -0.33554  -0.33009  -0.32376
 Alpha  occ. eigenvalues --   -0.31273  -0.30695  -0.28749  -0.28104  -0.27793
 Alpha  occ. eigenvalues --   -0.27209  -0.26021  -0.25625  -0.23494  -0.22663
 Alpha  occ. eigenvalues --   -0.21002  -0.20096  -0.18914  -0.17161  -0.13121
 Alpha  occ. eigenvalues --   -0.10207  -0.09674  -0.08059  -0.07835
 Alpha virt. eigenvalues --    0.06640   0.07847   0.08319   0.09410   0.10610
 Alpha virt. eigenvalues --    0.10947   0.11507   0.12043   0.12272   0.13251
 Alpha virt. eigenvalues --    0.14148   0.14233   0.15365   0.15987   0.16068
 Alpha virt. eigenvalues --    0.16389   0.16630   0.16979   0.17248   0.17676
 Alpha virt. eigenvalues --    0.18162   0.18860   0.19006   0.19489   0.19665
 Alpha virt. eigenvalues --    0.20079   0.20268   0.20473   0.20736   0.21797
 Alpha virt. eigenvalues --    0.22094   0.22192   0.22502   0.22735   0.23303
 Alpha virt. eigenvalues --    0.23392   0.23700   0.24740   0.24974   0.25556
 Alpha virt. eigenvalues --    0.26097   0.26625   0.26917   0.27172   0.27573
 Alpha virt. eigenvalues --    0.27971   0.28596   0.28981   0.29373   0.29849
 Alpha virt. eigenvalues --    0.30456   0.30870   0.31503   0.31750   0.32262
 Alpha virt. eigenvalues --    0.32336   0.32712   0.32923   0.33480   0.33844
 Alpha virt. eigenvalues --    0.34302   0.34418   0.34734   0.35293   0.35615
 Alpha virt. eigenvalues --    0.36144   0.36496   0.36566   0.37018   0.37256
 Alpha virt. eigenvalues --    0.37805   0.38114   0.38376   0.38539   0.38800
 Alpha virt. eigenvalues --    0.39242   0.40015   0.40304   0.40470   0.40932
 Alpha virt. eigenvalues --    0.41269   0.41353   0.41797   0.42010   0.42656
 Alpha virt. eigenvalues --    0.43331   0.43410   0.43882   0.44226   0.44825
 Alpha virt. eigenvalues --    0.45116   0.45515   0.46000   0.46452   0.46622
 Alpha virt. eigenvalues --    0.47351   0.47868   0.48280   0.48926   0.48957
 Alpha virt. eigenvalues --    0.49564   0.49957   0.50585   0.51211   0.51494
 Alpha virt. eigenvalues --    0.52150   0.52582   0.52790   0.52923   0.54260
 Alpha virt. eigenvalues --    0.54728   0.55507   0.55777   0.56113   0.57116
 Alpha virt. eigenvalues --    0.57737   0.58336   0.58467   0.59095   0.59298
 Alpha virt. eigenvalues --    0.59655   0.60768   0.61215   0.61676   0.62337
 Alpha virt. eigenvalues --    0.62864   0.63032   0.64404   0.64661   0.64925
 Alpha virt. eigenvalues --    0.65858   0.66581   0.66996   0.67274   0.67633
 Alpha virt. eigenvalues --    0.68881   0.69429   0.70156   0.70612   0.71092
 Alpha virt. eigenvalues --    0.71691   0.72096   0.73004   0.73258   0.73782
 Alpha virt. eigenvalues --    0.74074   0.74869   0.75255   0.75564   0.76313
 Alpha virt. eigenvalues --    0.76563   0.77004   0.78120   0.78170   0.78250
 Alpha virt. eigenvalues --    0.79063   0.79367   0.79963   0.80705   0.80948
 Alpha virt. eigenvalues --    0.81174   0.81963   0.83028   0.83548   0.84194
 Alpha virt. eigenvalues --    0.85336   0.85544   0.86000   0.86150   0.87061
 Alpha virt. eigenvalues --    0.87439   0.88468   0.89036   0.89582   0.89725
 Alpha virt. eigenvalues --    0.90834   0.91537   0.91750   0.92800   0.93193
 Alpha virt. eigenvalues --    0.93683   0.94328   0.95155   0.95243   0.96520
 Alpha virt. eigenvalues --    0.96668   0.97348   0.98413   0.98886   1.00224
 Alpha virt. eigenvalues --    1.01038   1.01515   1.01642   1.03815   1.04302
 Alpha virt. eigenvalues --    1.04340   1.05068   1.06453   1.06795   1.08096
 Alpha virt. eigenvalues --    1.09040   1.09954   1.10536   1.12272   1.13168
 Alpha virt. eigenvalues --    1.14041   1.14569   1.15116   1.16583   1.16987
 Alpha virt. eigenvalues --    1.17797   1.18970   1.19655   1.20947   1.21199
 Alpha virt. eigenvalues --    1.21982   1.22777   1.23114   1.24283   1.24839
 Alpha virt. eigenvalues --    1.25757   1.26078   1.27346   1.27882   1.28133
 Alpha virt. eigenvalues --    1.29348   1.30082   1.31031   1.31295   1.32306
 Alpha virt. eigenvalues --    1.34118   1.34890   1.35635   1.36264   1.37454
 Alpha virt. eigenvalues --    1.37554   1.38414   1.40111   1.42423   1.42681
 Alpha virt. eigenvalues --    1.43510   1.44977   1.45956   1.46287   1.47508
 Alpha virt. eigenvalues --    1.49059   1.49939   1.50767   1.51610   1.52059
 Alpha virt. eigenvalues --    1.53218   1.54936   1.55337   1.57031   1.57674
 Alpha virt. eigenvalues --    1.58790   1.59843   1.60668   1.61337   1.62647
 Alpha virt. eigenvalues --    1.63249   1.64838   1.65079   1.66169   1.67140
 Alpha virt. eigenvalues --    1.69691   1.69961   1.70570   1.71892   1.72810
 Alpha virt. eigenvalues --    1.73572   1.74840   1.76264   1.76706   1.77417
 Alpha virt. eigenvalues --    1.78413   1.78717   1.79958   1.80574   1.80835
 Alpha virt. eigenvalues --    1.81623   1.84081   1.86202   1.86555   1.87802
 Alpha virt. eigenvalues --    1.88495   1.88959   1.90055   1.90852   1.91395
 Alpha virt. eigenvalues --    1.93026   1.93680   1.94669   1.96794   1.97377
 Alpha virt. eigenvalues --    1.97668   1.99433   2.00842   2.01600   2.02833
 Alpha virt. eigenvalues --    2.02968   2.03985   2.04457   2.05366   2.06609
 Alpha virt. eigenvalues --    2.07343   2.08451   2.10917   2.11279   2.12550
 Alpha virt. eigenvalues --    2.13430   2.14494   2.15343   2.16227   2.18370
 Alpha virt. eigenvalues --    2.18615   2.20148   2.20222   2.21985   2.22727
 Alpha virt. eigenvalues --    2.23804   2.24013   2.25218   2.25753   2.27425
 Alpha virt. eigenvalues --    2.28459   2.30673   2.31433   2.32366   2.32796
 Alpha virt. eigenvalues --    2.34094   2.34883   2.35559   2.36894   2.38429
 Alpha virt. eigenvalues --    2.39514   2.40579   2.40999   2.42545   2.44257
 Alpha virt. eigenvalues --    2.44697   2.45692   2.48345   2.49036   2.51283
 Alpha virt. eigenvalues --    2.53596   2.54313   2.55376   2.57514   2.57814
 Alpha virt. eigenvalues --    2.59608   2.59821   2.63023   2.64306   2.64826
 Alpha virt. eigenvalues --    2.65642   2.66415   2.67577   2.69916   2.71479
 Alpha virt. eigenvalues --    2.72447   2.73396   2.74437   2.77659   2.78063
 Alpha virt. eigenvalues --    2.80950   2.82838   2.84210   2.86251   2.87799
 Alpha virt. eigenvalues --    2.89613   2.90226   2.94280   2.95704   2.98994
 Alpha virt. eigenvalues --    3.04051   3.04661   3.05544   3.06695   3.09585
 Alpha virt. eigenvalues --    3.10585   3.13452   3.16210   3.20423   3.24823
 Alpha virt. eigenvalues --    3.30383   3.37010   3.41621   3.44551   3.45700
 Alpha virt. eigenvalues --    3.51219   3.55140   3.55531   3.57644   3.58538
 Alpha virt. eigenvalues --    3.60359   3.61039   3.61298   3.61877   3.62700
 Alpha virt. eigenvalues --    3.64266   3.64494   3.65746   3.67299   3.68173
 Alpha virt. eigenvalues --    3.70238   3.70848   3.71899   3.74647   3.76689
 Alpha virt. eigenvalues --    3.77971   3.80976   3.83044   3.83916   3.86485
 Alpha virt. eigenvalues --    3.88734   3.92112   3.96792   4.00393   4.07714
 Alpha virt. eigenvalues --    4.11427   4.15047   4.19757   4.26531   4.43445
 Alpha virt. eigenvalues --    4.69059
          Condensed to atoms (all electrons):
               1          2          3          4          5          6
     1  C    8.363166  -1.686065   1.508344   0.035857   0.321705   0.135131
     2  C   -1.686065   9.187854  -2.620988  -0.581279  -1.153126  -0.073292
     3  C    1.508344  -2.620988  13.765007   0.049849   0.535033  -0.116089
     4  O    0.035857  -0.581279   0.049849   8.745487  -0.059083   0.020954
     5  H    0.321705  -1.153126   0.535033  -0.059083   2.206310   0.000332
     6  O    0.135131  -0.073292  -0.116089   0.020954   0.000332   9.486570
     7  H   -0.119408   0.189416  -0.933613   0.012989   0.086915  -0.241262
     8  C   -0.248243   0.860392  -2.244645   0.031220  -0.319214   0.043137
     9  C   -1.935878   0.653442  -2.392718   0.145341   0.062104  -0.162097
    10  H   -0.489084   0.062334   0.056818   0.021681  -0.178214   0.024043
    11  O   -0.315553  -0.001926  -0.057257  -0.008847   0.025437  -0.016096
    12  C   -0.371085  -0.080674   0.214141   0.004564   0.024980  -0.149213
    13  H    0.389582  -0.148814   0.354210  -0.019360  -0.003764  -0.082950
    14  O   -0.025873   0.017921   0.001629  -0.001739  -0.002227   0.013498
    15  H    0.074570   0.056518  -0.010958  -0.003283   0.002219   0.093554
    16  H   -0.045484  -0.025982  -0.032807   0.000767  -0.000490  -0.092720
    17  H   -0.136119   0.011242   0.026079   0.020558  -0.007495   0.003165
    18  H   -0.026448   0.118117  -0.096482   0.341989  -0.101840   0.003786
    19  H   -0.069884   0.002773  -0.007781  -0.000191  -0.000122  -0.017140
    20  C   -0.069616  -0.272787  -1.564974   0.042986   0.024108   0.060259
    21  N    0.033939  -0.020226   0.280016  -0.001340   0.001004   0.023073
    22  C   -0.021317   0.031978  -0.258081   0.000969  -0.010175   0.000230
    23  N    0.001197   0.015918   0.027172  -0.001429   0.001928   0.002938
    24  C   -0.104153   0.202412  -1.557934  -0.003497  -0.019371  -0.083196
    25  H    0.009714   0.006849   0.276809   0.000972   0.022451  -0.088190
    26  H   -0.003303  -0.000773  -0.041968   0.000112  -0.001188  -0.001804
    27  O    0.000919  -0.001555   0.013335  -0.000006   0.000033   0.000412
    28  O   -0.007212   0.032701   0.039705  -0.004815  -0.013134   0.003142
               7          8          9         10         11         12
     1  C   -0.119408  -0.248243  -1.935878  -0.489084  -0.315553  -0.371085
     2  C    0.189416   0.860392   0.653442   0.062334  -0.001926  -0.080674
     3  C   -0.933613  -2.244645  -2.392718   0.056818  -0.057257   0.214141
     4  O    0.012989   0.031220   0.145341   0.021681  -0.008847   0.004564
     5  H    0.086915  -0.319214   0.062104  -0.178214   0.025437   0.024980
     6  O   -0.241262   0.043137  -0.162097   0.024043  -0.016096  -0.149213
     7  H    1.917860   0.239482   0.282233  -0.025783   0.007815   0.003566
     8  C    0.239482  12.640992   0.532181  -0.063391   0.024655  -0.115589
     9  C    0.282233   0.532181   9.251949  -0.321379   0.271910  -0.037549
    10  H   -0.025783  -0.063391  -0.321379   2.357981  -0.174471  -0.052443
    11  O    0.007815   0.024655   0.271910  -0.174471   8.545061   0.013945
    12  C    0.003566  -0.115589  -0.037549  -0.052443   0.013945   5.172206
    13  H    0.004609  -0.102530  -1.162657   0.118811  -0.039231  -0.033195
    14  O   -0.002426   0.055090  -0.078896  -0.006008   0.008813   0.151215
    15  H   -0.001502   0.026846   0.011370  -0.033690  -0.001476  -0.015013
    16  H    0.000185  -0.029285   0.258125   0.031222   0.000631   0.112250
    17  H   -0.002176  -0.020760  -0.012531   0.036453   0.350361  -0.004450
    18  H   -0.021568   0.043904  -0.033584   0.006407   0.000553  -0.003853
    19  H    0.001173  -0.011162   0.058965   0.015296   0.000880   0.022044
    20  C    0.022017  -3.650555   0.010078   0.110809   0.001342  -0.044868
    21  N   -0.009715   0.080808  -0.019237   0.000878  -0.001087  -0.006940
    22  C   -0.009932   0.508154   0.016334  -0.002196   0.000475  -0.010114
    23  N    0.012961   0.439353  -0.001057   0.007588  -0.000182  -0.000987
    24  C   -0.000217  -3.442415   0.026701  -0.038636   0.003877   0.011738
    25  H    0.032387   0.166076  -0.057397  -0.032041   0.000367   0.064107
    26  H   -0.001807  -0.004601   0.004915  -0.000926   0.000011  -0.000872
    27  O    0.000443   0.027523  -0.000075   0.000310  -0.000016   0.000202
    28  O    0.021302   0.040782   0.001244   0.005668  -0.000617  -0.001320
              13         14         15         16         17         18
     1  C    0.389582  -0.025873   0.074570  -0.045484  -0.136119  -0.026448
     2  C   -0.148814   0.017921   0.056518  -0.025982   0.011242   0.118117
     3  C    0.354210   0.001629  -0.010958  -0.032807   0.026079  -0.096482
     4  O   -0.019360  -0.001739  -0.003283   0.000767   0.020558   0.341989
     5  H   -0.003764  -0.002227   0.002219  -0.000490  -0.007495  -0.101840
     6  O   -0.082950   0.013498   0.093554  -0.092720   0.003165   0.003786
     7  H    0.004609  -0.002426  -0.001502   0.000185  -0.002176  -0.021568
     8  C   -0.102530   0.055090   0.026846  -0.029285  -0.020760   0.043904
     9  C   -1.162657  -0.078896   0.011370   0.258125  -0.012531  -0.033584
    10  H    0.118811  -0.006008  -0.033690   0.031222   0.036453   0.006407
    11  O   -0.039231   0.008813  -0.001476   0.000631   0.350361   0.000553
    12  C   -0.033195   0.151215  -0.015013   0.112250  -0.004450  -0.003853
    13  H    2.337209   0.023517  -0.118381  -0.013960   0.002918   0.002442
    14  O    0.023517   8.364988  -0.033582  -0.175393   0.000682   0.000181
    15  H   -0.118381  -0.033582   1.663837  -0.401080   0.003360   0.000395
    16  H   -0.013960  -0.175393  -0.401080   1.589906  -0.001694  -0.000785
    17  H    0.002918   0.000682   0.003360  -0.001694   0.645442  -0.001507
    18  H    0.002442   0.000181   0.000395  -0.000785  -0.001507   0.623644
    19  H    0.004198   0.316807  -0.077792   0.034268  -0.000206  -0.000151
    20  C    0.024005  -0.089601  -0.033480   0.055516  -0.004648   0.011824
    21  N   -0.002199   0.018687   0.002299  -0.004095   0.000286  -0.001044
    22  C   -0.000309   0.002042  -0.000370   0.000282  -0.000088   0.000259
    23  N    0.000518   0.000137   0.000007  -0.000148  -0.000218   0.001868
    24  C   -0.003986   0.001952   0.000997   0.000053   0.003710  -0.008925
    25  H    0.008768  -0.008599  -0.003668   0.007697   0.000447  -0.000466
    26  H    0.000052  -0.000252  -0.000055   0.000556   0.000019  -0.000067
    27  O    0.000008  -0.000021   0.000036  -0.000014  -0.000009  -0.000002
    28  O   -0.000404  -0.000085  -0.000007  -0.000151  -0.000098   0.005756
              19         20         21         22         23         24
     1  C   -0.069884  -0.069616   0.033939  -0.021317   0.001197  -0.104153
     2  C    0.002773  -0.272787  -0.020226   0.031978   0.015918   0.202412
     3  C   -0.007781  -1.564974   0.280016  -0.258081   0.027172  -1.557934
     4  O   -0.000191   0.042986  -0.001340   0.000969  -0.001429  -0.003497
     5  H   -0.000122   0.024108   0.001004  -0.010175   0.001928  -0.019371
     6  O   -0.017140   0.060259   0.023073   0.000230   0.002938  -0.083196
     7  H    0.001173   0.022017  -0.009715  -0.009932   0.012961  -0.000217
     8  C   -0.011162  -3.650555   0.080808   0.508154   0.439353  -3.442415
     9  C    0.058965   0.010078  -0.019237   0.016334  -0.001057   0.026701
    10  H    0.015296   0.110809   0.000878  -0.002196   0.007588  -0.038636
    11  O    0.000880   0.001342  -0.001087   0.000475  -0.000182   0.003877
    12  C    0.022044  -0.044868  -0.006940  -0.010114  -0.000987   0.011738
    13  H    0.004198   0.024005  -0.002199  -0.000309   0.000518  -0.003986
    14  O    0.316807  -0.089601   0.018687   0.002042   0.000137   0.001952
    15  H   -0.077792  -0.033480   0.002299  -0.000370   0.000007   0.000997
    16  H    0.034268   0.055516  -0.004095   0.000282  -0.000148   0.000053
    17  H   -0.000206  -0.004648   0.000286  -0.000088  -0.000218   0.003710
    18  H   -0.000151   0.011824  -0.001044   0.000259   0.001868  -0.008925
    19  H    0.539766   0.015348  -0.003428   0.000619  -0.000573   0.001956
    20  C    0.015348  14.441847  -0.921562  -0.752100   0.295335  -1.678767
    21  N   -0.003428  -0.921562   7.541677   0.077801  -0.018706   0.143351
    22  C    0.000619  -0.752100   0.077801   6.327190  -0.098619  -0.356407
    23  N   -0.000573   0.295335  -0.018706  -0.098619   8.235516  -0.927130
    24  C    0.001956  -1.678767   0.143351  -0.356407  -0.927130  13.346683
    25  H    0.005308  -1.184261   0.091972  -0.035643   0.005618   0.035681
    26  H    0.000093  -0.152074   0.370271  -0.217536   0.007461   0.019636
    27  O   -0.000092   0.075881  -0.128667   0.091014  -0.103493   0.023600
    28  O   -0.000142  -0.093114  -0.000431   0.058126  -0.148437  -0.010028
              25         26         27         28
     1  C    0.009714  -0.003303   0.000919  -0.007212
     2  C    0.006849  -0.000773  -0.001555   0.032701
     3  C    0.276809  -0.041968   0.013335   0.039705
     4  O    0.000972   0.000112  -0.000006  -0.004815
     5  H    0.022451  -0.001188   0.000033  -0.013134
     6  O   -0.088190  -0.001804   0.000412   0.003142
     7  H    0.032387  -0.001807   0.000443   0.021302
     8  C    0.166076  -0.004601   0.027523   0.040782
     9  C   -0.057397   0.004915  -0.000075   0.001244
    10  H   -0.032041  -0.000926   0.000310   0.005668
    11  O    0.000367   0.000011  -0.000016  -0.000617
    12  C    0.064107  -0.000872   0.000202  -0.001320
    13  H    0.008768   0.000052   0.000008  -0.000404
    14  O   -0.008599  -0.000252  -0.000021  -0.000085
    15  H   -0.003668  -0.000055   0.000036  -0.000007
    16  H    0.007697   0.000556  -0.000014  -0.000151
    17  H    0.000447   0.000019  -0.000009  -0.000098
    18  H   -0.000466  -0.000067  -0.000002   0.005756
    19  H    0.005308   0.000093  -0.000092  -0.000142
    20  C   -1.184261  -0.152074   0.075881  -0.093114
    21  N    0.091972   0.370271  -0.128667  -0.000431
    22  C   -0.035643  -0.217536   0.091014   0.058126
    23  N    0.005618   0.007461  -0.103493  -0.148437
    24  C    0.035681   0.019636   0.023600  -0.010028
    25  H    2.487590  -0.060842   0.000233  -0.005332
    26  H   -0.060842   1.219502  -0.006958   0.002255
    27  O    0.000233  -0.006958   8.718477  -0.006426
    28  O   -0.005332   0.002255  -0.006426   8.929267
 Mulliken charges:
               1
     1  C    0.800602
     2  C    1.217621
     3  C    0.788147
     4  O   -0.791426
     5  H   -0.445116
     6  O   -0.790176
     7  H   -0.465946
     8  C    0.491794
     9  C    0.628163
    10  H   -0.438041
    11  O   -0.639372
    12  C    1.133209
    13  H   -0.539106
    14  O   -0.552461
    15  H   -0.201670
    16  H   -0.267373
    17  H    0.087276
    18  H    0.135597
    19  H    0.169167
    20  C    1.321053
    21  N   -0.527385
    22  C    0.657415
    23  N   -0.754534
    24  C    0.412314
    25  H   -0.746607
    26  H   -0.129859
    27  O   -0.705094
    28  O   -0.848192
 Sum of Mulliken charges =  -1.00000
 Mulliken charges with hydrogens summed into heavy atoms:
               1
     1  C    0.362561
     2  C    0.772506
     3  C    0.322201
     4  O   -0.655829
     6  O   -0.790176
     8  C    0.491794
     9  C    0.089057
    11  O   -0.552096
    12  C    0.664167
    14  O   -0.383294
    20  C    0.574446
    21  N   -0.657245
    22  C    0.657415
    23  N   -0.754534
    24  C    0.412314
    27  O   -0.705094
    28  O   -0.848192
 Electronic spatial extent (au):  <R**2>=           4203.7262
 Charge=             -1.0000 electrons
 Dipole moment (field-independent basis, Debye):
    X=            -14.1733    Y=              3.8643    Z=             -0.6681  Tot=             14.7058
 Quadrupole moment (field-independent basis, Debye-Ang):
   XX=           -171.5434   YY=           -112.1083   ZZ=           -105.4883
   XY=              8.5341   XZ=             -5.4431   YZ=              1.8438
 Traceless Quadrupole moment (field-independent basis, Debye-Ang):
   XX=            -41.8301   YY=             17.6051   ZZ=             24.2250
   XY=              8.5341   XZ=             -5.4431   YZ=              1.8438
 Octapole moment (field-independent basis, Debye-Ang**2):
  XXX=           -307.7457  YYY=             13.7710  ZZZ=              1.4925  XYY=            -48.4033
  XXY=              9.3141  XXZ=            -50.0092  XZZ=             -3.7245  YZZ=              5.1662
  YYZ=              7.3724  XYZ=            -10.0684
 Hexadecapole moment (field-independent basis, Debye-Ang**3):
 XXXX=          -5029.0547 YYYY=          -1443.8400 ZZZZ=           -417.9411 XXXY=            -93.9008
 XXXZ=           -143.6836 YYYX=            167.7414 YYYZ=             21.5623 ZZZX=              4.7265
 ZZZY=             17.8725 XXYY=           -929.9865 XXZZ=           -737.8637 YYZZ=           -275.1430
 XXYZ=            -30.4417 YYXZ=            -22.9483 ZZXY=            -15.9853
 N-N= 1.296665968881D+03 E-N=-4.743293154619D+03  KE= 9.049252421557D+02
 Calling FoFJK, ICntrl=      2127 FMM=F ISym2X=0 I1Cent= 0 IOpClX= 0 NMat=1 NMatS=1 NMatT=0.
 ***** Axes restored to original set *****
 -------------------------------------------------------------------
 Center     Atomic                   Forces (Hartrees/Bohr)
 Number     Number              X              Y              Z
 -------------------------------------------------------------------
      1        6           0.003898022    0.000259788   -0.002110801
      2        6           0.004400748    0.004769544   -0.000711371
      3        6           0.009439634    0.001149732    0.004675166
      4        8          -0.006920586   -0.004862861   -0.000044596
      5        1           0.000727480    0.000342759   -0.001716867
      6        8          -0.014083462    0.005034358   -0.000368723
      7        1          -0.000583618   -0.000826267    0.000118873
      8        6          -0.012598250   -0.003332429   -0.003134367
      9        6           0.006787944   -0.000556478   -0.003448235
     10        1           0.000291513   -0.000749987   -0.000742532
     11        8          -0.005929408   -0.000681686    0.003113478
     12        6           0.001498347   -0.000593197    0.000826236
     13        1          -0.002014166   -0.000514644    0.000044641
     14        8          -0.003614529    0.002811957   -0.000150346
     15        1          -0.001004436    0.000261139    0.000513581
     16        1           0.000300563    0.000147480   -0.000487515
     17        1           0.001775393    0.000014988   -0.000667894
     18        1           0.002184217    0.001809934    0.000085528
     19        1           0.001150475   -0.001582862   -0.000479690
     20        6           0.002090374    0.004012588    0.000932576
     21        7          -0.009399692    0.022613632   -0.001960157
     22        6          -0.036744401   -0.071875717   -0.011779229
     23        7           0.003268359   -0.005675783    0.001062054
     24        6           0.054011757    0.051333238    0.015773803
     25        1           0.001523170    0.000030641   -0.000124014
     26        1          -0.003756704    0.002042489   -0.001032547
     27        8           0.022222659    0.024587785    0.006669293
     28        8          -0.018921403   -0.029970141   -0.004856346
 -------------------------------------------------------------------
 Cartesian Forces:  Max     0.071875717 RMS     0.013961933

 GradGradGradGradGradGradGradGradGradGradGradGradGradGradGradGradGradGrad
 Berny optimization.
 FormGI is forming the generalized inverse of G from B-inverse, IUseBI=4.
 Internal  Forces:  Max     0.032404397 RMS     0.006947268
 Search for a local minimum.
 Step number   1 out of a maximum of  166
 All quantities printed in internal units (Hartrees-Bohrs-Radians)
 Mixed Optimization -- RFO/linear search
 Second derivative matrix not updated -- first step.
 ITU=  0
     Eigenvalues ---    0.00547   0.00566   0.00747   0.00868   0.01405
     Eigenvalues ---    0.01454   0.01484   0.01533   0.01682   0.01710
     Eigenvalues ---    0.01934   0.01940   0.02026   0.02280   0.02465
     Eigenvalues ---    0.03085   0.03705   0.04382   0.04867   0.04895
     Eigenvalues ---    0.05013   0.05477   0.05675   0.05953   0.06062
     Eigenvalues ---    0.06146   0.07108   0.07922   0.08135   0.09793
     Eigenvalues ---    0.11671   0.13195   0.14023   0.15975   0.15999
     Eigenvalues ---    0.15999   0.16000   0.16000   0.16000   0.16636
     Eigenvalues ---    0.18806   0.19893   0.22086   0.22446   0.24450
     Eigenvalues ---    0.24999   0.25000   0.25000   0.25000   0.26366
     Eigenvalues ---    0.28548   0.28653   0.30839   0.32231   0.33082
     Eigenvalues ---    0.33546   0.33607   0.33804   0.33927   0.33940
     Eigenvalues ---    0.34850   0.36777   0.39425   0.40268   0.42214
     Eigenvalues ---    0.42761   0.44124   0.45501   0.46035   0.46742
     Eigenvalues ---    0.48127   0.50312   0.53520   0.54087   0.55131
     Eigenvalues ---    0.55328   0.93702   0.97316
 RFO step:  Lambda=-2.10281766D-02 EMin= 5.47392016D-03
 Linear search not attempted -- first point.
 Iteration  1 RMS(Cart)=  0.10096937 RMS(Int)=  0.00278174
 Iteration  2 RMS(Cart)=  0.00420867 RMS(Int)=  0.00010763
 Iteration  3 RMS(Cart)=  0.00000969 RMS(Int)=  0.00010745
 Iteration  4 RMS(Cart)=  0.00000000 RMS(Int)=  0.00010745
 Variable       Old X    -DE/DX   Delta X   Delta X   Delta X     New X
                                 (Linear)    (Quad)   (Total)
    R1        2.88658  -0.00144   0.00000  -0.00461  -0.00458   2.88200
    R2        2.89210   0.00089   0.00000   0.00001   0.00002   2.89212
    R3        2.07663  -0.00069   0.00000  -0.00191  -0.00191   2.07472
    R4        2.64699   0.00482   0.00000   0.01013   0.01013   2.65711
    R5        2.90142  -0.00341   0.00000  -0.00988  -0.00990   2.89152
    R6        2.67965   0.00520   0.00000   0.01160   0.01160   2.69125
    R7        2.07431  -0.00088   0.00000  -0.00244  -0.00244   2.07187
    R8        2.69242   0.01081   0.00000   0.02607   0.02604   2.71847
    R9        2.07998   0.00042   0.00000   0.00117   0.00117   2.08115
   R10        2.83724  -0.00012   0.00000  -0.00034  -0.00034   2.83690
   R11        1.81716  -0.00043   0.00000  -0.00076  -0.00076   1.81640
   R12        2.68975  -0.00381   0.00000  -0.00867  -0.00867   2.68108
   R13        2.55504  -0.00508   0.00000  -0.00796  -0.00802   2.54702
   R14        2.74667   0.01504   0.00000   0.03689   0.03686   2.78353
   R15        2.86321   0.00138   0.00000   0.00420   0.00420   2.86741
   R16        2.08907   0.00181   0.00000   0.00513   0.00513   2.09420
   R17        1.82652  -0.00040   0.00000  -0.00071  -0.00071   1.82582
   R18        2.68651  -0.00141   0.00000  -0.00318  -0.00318   2.68334
   R19        2.08103   0.00115   0.00000   0.00322   0.00322   2.08426
   R20        2.07454   0.00048   0.00000   0.00134   0.00134   2.07587
   R21        1.81542  -0.00065   0.00000  -0.00112  -0.00112   1.81430
   R22        2.58713  -0.01184   0.00000  -0.02058  -0.02061   2.56652
   R23        2.05920  -0.00100   0.00000  -0.00271  -0.00271   2.05649
   R24        2.61223   0.02280   0.00000   0.04566   0.04569   2.65792
   R25        1.90791   0.00111   0.00000   0.00231   0.00231   1.91022
   R26        2.60854  -0.01928   0.00000  -0.03883  -0.03878   2.56977
   R27        2.29733   0.02986   0.00000   0.03004   0.03004   2.32737
   R28        2.63670  -0.02217   0.00000  -0.04754  -0.04750   2.58920
   R29        2.31272   0.03240   0.00000   0.03382   0.03382   2.34654
    A1        1.77523   0.00038   0.00000  -0.00474  -0.00472   1.77051
    A2        1.89120   0.00050   0.00000   0.00453   0.00451   1.89572
    A3        2.00549  -0.00102   0.00000  -0.00608  -0.00612   1.99937
    A4        1.91048   0.00045   0.00000   0.00367   0.00367   1.91414
    A5        1.99983  -0.00078   0.00000  -0.00391  -0.00398   1.99585
    A6        1.87756   0.00055   0.00000   0.00675   0.00678   1.88434
    A7        1.77329   0.00206   0.00000   0.00805   0.00802   1.78132
    A8        1.85143  -0.00260   0.00000  -0.00620  -0.00618   1.84525
    A9        1.97522   0.00164   0.00000   0.01149   0.01152   1.98674
   A10        1.96348   0.00145   0.00000   0.00750   0.00751   1.97100
   A11        1.95735  -0.00254   0.00000  -0.01511  -0.01513   1.94222
   A12        1.93547   0.00019   0.00000  -0.00379  -0.00379   1.93168
   A13        1.86242  -0.00316   0.00000  -0.00948  -0.00945   1.85297
   A14        1.90432   0.00076   0.00000  -0.01504  -0.01546   1.88886
   A15        1.96096  -0.00434   0.00000  -0.01976  -0.02009   1.94087
   A16        1.90773  -0.00074   0.00000  -0.00431  -0.00452   1.90321
   A17        1.92414   0.00872   0.00000   0.06303   0.06316   1.98730
   A18        1.90344  -0.00123   0.00000  -0.01453  -0.01516   1.88827
   A19        1.89432  -0.00493   0.00000  -0.02726  -0.02726   1.86706
   A20        1.92904   0.00016   0.00000  -0.00200  -0.00205   1.92699
   A21        2.14842   0.00331   0.00000   0.01116   0.01119   2.15962
   A22        2.05493  -0.00347   0.00000  -0.01386  -0.01383   2.04110
   A23        2.07983   0.00016   0.00000   0.00266   0.00257   2.08239
   A24        1.83428  -0.00020   0.00000   0.00026   0.00018   1.83446
   A25        2.01676   0.00011   0.00000   0.00292   0.00282   2.01958
   A26        1.89455  -0.00009   0.00000  -0.00613  -0.00619   1.88836
   A27        1.90795   0.00141   0.00000   0.01689   0.01688   1.92483
   A28        1.92042   0.00017   0.00000   0.00185   0.00191   1.92233
   A29        1.88868  -0.00134   0.00000  -0.01517  -0.01518   1.87350
   A30        1.85815  -0.00318   0.00000  -0.01757  -0.01757   1.84057
   A31        1.97779   0.00377   0.00000   0.01614   0.01613   1.99393
   A32        1.89693  -0.00145   0.00000  -0.00773  -0.00770   1.88923
   A33        1.89803  -0.00031   0.00000   0.00122   0.00119   1.89922
   A34        1.94545  -0.00125   0.00000  -0.00624  -0.00621   1.93924
   A35        1.85820  -0.00125   0.00000  -0.00316  -0.00322   1.85498
   A36        1.88453   0.00042   0.00000  -0.00055  -0.00056   1.88396
   A37        1.89531  -0.00005   0.00000  -0.00026  -0.00026   1.89505
   A38        2.12264  -0.01025   0.00000  -0.03530  -0.03539   2.08725
   A39        2.11846   0.00618   0.00000   0.02352   0.02357   2.14203
   A40        2.04203   0.00406   0.00000   0.01182   0.01187   2.05389
   A41        2.16329  -0.00482   0.00000  -0.01365  -0.01366   2.14964
   A42        2.11051  -0.00165   0.00000  -0.01561  -0.01561   2.09490
   A43        2.00932   0.00647   0.00000   0.02925   0.02926   2.03858
   A44        1.97479   0.02091   0.00000   0.07768   0.07776   2.05255
   A45        2.14899  -0.02866   0.00000  -0.10601  -0.10605   2.04294
   A46        2.15941   0.00775   0.00000   0.02833   0.02829   2.18770
   A47        2.22708  -0.02437   0.00000  -0.09564  -0.09552   2.13156
   A48        1.99861   0.01837   0.00000   0.06425   0.06424   2.06285
   A49        2.17920  -0.02670   0.00000  -0.09679  -0.09681   2.08239
   A50        2.10536   0.00833   0.00000   0.03247   0.03244   2.13780
    D1        0.63115   0.00180   0.00000   0.00941   0.00938   0.64053
    D2       -1.42411   0.00030   0.00000  -0.00003  -0.00004  -1.42416
    D3        2.73309   0.00084   0.00000   0.00197   0.00197   2.73506
    D4       -1.38117   0.00092   0.00000   0.00575   0.00573  -1.37544
    D5        2.84675  -0.00058   0.00000  -0.00369  -0.00369   2.84306
    D6        0.72076  -0.00003   0.00000  -0.00169  -0.00168   0.71909
    D7        2.80198   0.00052   0.00000  -0.00224  -0.00224   2.79975
    D8        0.74672  -0.00098   0.00000  -0.01167  -0.01166   0.73506
    D9       -1.37927  -0.00043   0.00000  -0.00967  -0.00964  -1.38891
   D10       -0.60975  -0.00082   0.00000  -0.01303  -0.01300  -0.62275
   D11       -2.71427  -0.00252   0.00000  -0.03621  -0.03618  -2.75045
   D12        1.44440  -0.00077   0.00000  -0.01370  -0.01367   1.43074
   D13        1.38834   0.00010   0.00000  -0.00878  -0.00877   1.37958
   D14       -0.71618  -0.00160   0.00000  -0.03196  -0.03195  -0.74813
   D15       -2.84069   0.00015   0.00000  -0.00944  -0.00943  -2.85012
   D16       -2.78438   0.00062   0.00000   0.00002   0.00002  -2.78436
   D17        1.39429  -0.00108   0.00000  -0.02316  -0.02317   1.37112
   D18       -0.73023   0.00066   0.00000  -0.00065  -0.00065  -0.73088
   D19       -0.63238   0.00078   0.00000   0.01673   0.01668  -0.61570
   D20        1.41477  -0.00007   0.00000   0.00284   0.00288   1.41765
   D21       -2.73991   0.00040   0.00000   0.00994   0.00995  -2.72996
   D22       -0.45366  -0.00059   0.00000   0.00096   0.00093  -0.45274
   D23       -2.51296   0.00164   0.00000   0.01916   0.01913  -2.49383
   D24        1.65709   0.00550   0.00000   0.06076   0.06053   1.71762
   D25        1.51894  -0.00191   0.00000   0.00112   0.00118   1.52012
   D26       -0.54036   0.00032   0.00000   0.01932   0.01938  -0.52098
   D27       -2.65350   0.00418   0.00000   0.06092   0.06079  -2.59271
   D28       -2.56812  -0.00254   0.00000  -0.01014  -0.01006  -2.57817
   D29        1.65577  -0.00031   0.00000   0.00806   0.00814   1.66392
   D30       -0.45736   0.00356   0.00000   0.04966   0.04955  -0.40781
   D31       -3.00360   0.00000   0.00000  -0.01078  -0.01080  -3.01440
   D32        1.35555  -0.00166   0.00000  -0.02030  -0.02029   1.33526
   D33       -0.85238   0.00045   0.00000  -0.00296  -0.00295  -0.85533
   D34        0.07582  -0.00007   0.00000  -0.01109  -0.01104   0.06478
   D35        2.13287  -0.00132   0.00000  -0.03640  -0.03663   2.09624
   D36       -2.05826   0.00206   0.00000  -0.01817  -0.01823  -2.07649
   D37       -1.87738  -0.00120   0.00000  -0.04228  -0.04213  -1.91951
   D38        1.25972  -0.00153   0.00000  -0.05161  -0.05139   1.20833
   D39        0.19751  -0.00213   0.00000  -0.02461  -0.02470   0.17281
   D40       -2.94857  -0.00246   0.00000  -0.03394  -0.03396  -2.98253
   D41        2.29216   0.00151   0.00000  -0.00041  -0.00057   2.29159
   D42       -0.85392   0.00118   0.00000  -0.00974  -0.00983  -0.86375
   D43        0.33867   0.00022   0.00000   0.01517   0.01511   0.35379
   D44        2.51350   0.00104   0.00000   0.02846   0.02846   2.54196
   D45       -1.69785   0.00036   0.00000   0.02130   0.02133  -1.67652
   D46       -3.13753  -0.00040   0.00000  -0.00718  -0.00708   3.13858
   D47        0.01558  -0.00057   0.00000  -0.01206  -0.01210   0.00348
   D48        0.00862  -0.00005   0.00000   0.00231   0.00242   0.01104
   D49       -3.12146  -0.00022   0.00000  -0.00257  -0.00259  -3.12405
   D50        3.12942   0.00015   0.00000   0.00768   0.00760   3.13701
   D51       -0.01838  -0.00018   0.00000  -0.00439  -0.00415  -0.02252
   D52       -0.01649  -0.00015   0.00000  -0.00124  -0.00121  -0.01769
   D53        3.11891  -0.00049   0.00000  -0.01331  -0.01295   3.10596
   D54        0.94220   0.00041   0.00000   0.00676   0.00676   0.94896
   D55       -1.23081   0.00047   0.00000   0.00928   0.00932  -1.22149
   D56        3.00489   0.00096   0.00000   0.01356   0.01360   3.01849
   D57       -1.12186  -0.00043   0.00000  -0.00784  -0.00793  -1.12978
   D58        2.98832  -0.00037   0.00000  -0.00531  -0.00537   2.98295
   D59        0.94083   0.00011   0.00000  -0.00103  -0.00109   0.93975
   D60        3.06985  -0.00066   0.00000  -0.01089  -0.01087   3.05898
   D61        0.89684  -0.00060   0.00000  -0.00836  -0.00831   0.88853
   D62       -1.15064  -0.00011   0.00000  -0.00408  -0.00403  -1.15467
   D63       -1.52786   0.00144   0.00000   0.03512   0.03512  -1.49274
   D64        0.61860   0.00138   0.00000   0.03219   0.03218   0.65078
   D65        2.66967   0.00046   0.00000   0.02629   0.02630   2.69597
   D66        0.00437  -0.00014   0.00000  -0.00195  -0.00207   0.00230
   D67        3.13316  -0.00012   0.00000  -0.00285  -0.00296   3.13021
   D68        3.13493   0.00004   0.00000   0.00282   0.00279   3.13772
   D69       -0.01946   0.00006   0.00000   0.00193   0.00190  -0.01756
   D70       -0.00771  -0.00004   0.00000  -0.00128  -0.00143  -0.00914
   D71        3.13655  -0.00006   0.00000  -0.00139  -0.00140   3.13514
   D72       -3.13717  -0.00001   0.00000  -0.00015  -0.00029  -3.13746
   D73        0.00708  -0.00002   0.00000  -0.00027  -0.00026   0.00682
   D74       -0.00213   0.00018   0.00000   0.00377   0.00390   0.00177
   D75        3.13678   0.00013   0.00000   0.00365   0.00364   3.14043
   D76        0.01384  -0.00015   0.00000  -0.00276  -0.00280   0.01104
   D77       -3.12184   0.00031   0.00000   0.00926   0.00984  -3.11200
         Item               Value     Threshold  Converged?
 Maximum Force            0.032404     0.000450     NO 
 RMS     Force            0.006947     0.000300     NO 
 Maximum Displacement     0.405519     0.001800     NO 
 RMS     Displacement     0.101531     0.001200     NO 
 Predicted change in Energy=-1.148715D-02
 GradGradGradGradGradGradGradGradGradGradGradGradGradGradGradGradGradGrad

                          Input orientation:                          
 ---------------------------------------------------------------------
 Center     Atomic      Atomic             Coordinates (Angstroms)
 Number     Number       Type             X           Y           Z
 ---------------------------------------------------------------------
      1          6           0       -2.081373   -0.163493    0.800187
      2          6           0       -1.201264   -1.308886    0.310918
      3          6           0       -0.464844   -0.665952   -0.866203
      4          8           0       -2.097715   -2.339664   -0.091666
      5          1           0       -0.497793   -1.680450    1.065328
      6          8           0       -1.317864    0.389160   -1.344244
      7          1           0       -0.352545   -1.423654   -1.657486
      8          6           0        0.905093   -0.203502   -0.462363
      9          6           0       -2.466200    0.508884   -0.519690
     10          1           0       -1.465438    0.521127    1.397925
     11          8           0       -3.175384   -0.562662    1.588142
     12          6           0       -2.892183    1.961726   -0.418750
     13          1           0       -3.312980   -0.053791   -0.960687
     14          8           0       -1.948714    2.802311    0.228994
     15          1           0       -3.871517    2.000073    0.087127
     16          1           0       -3.018981    2.365049   -1.432635
     17          1           0       -3.466357   -1.405733    1.216563
     18          1           0       -1.563628   -3.112663   -0.294458
     19          1           0       -2.097811    2.756376    1.176317
     20          6           0        1.254840    1.093406   -0.351260
     21          7           0        2.519165    1.417241    0.024460
     22          6           0        3.507283    0.457314    0.308071
     23          7           0        3.159953   -0.853493    0.206238
     24          6           0        1.899615   -1.247066   -0.159743
     25          1           0        0.560690    1.908716   -0.545439
     26          1           0        2.791435    2.387768    0.100330
     27          8           0        4.618983    0.876714    0.632170
     28          8           0        1.566536   -2.441512   -0.225082
 ---------------------------------------------------------------------
                    Distance matrix (angstroms):
                    1          2          3          4          5
     1  C    0.000000
     2  C    1.525091   0.000000
     3  C    2.375392   1.530128   0.000000
     4  O    2.351891   1.424149   2.463227   0.000000
     5  H    2.208888   1.096388   2.181996   2.081574   0.000000
     6  O    2.342426   2.374135   1.438550   3.102193   3.280525
     7  H    3.258375   2.146651   1.101296   2.517237   2.738751
     8  C    3.242625   2.501315   1.501224   3.703709   2.546234
     9  C    1.530444   2.365219   2.346430   2.903999   3.343665
    10  H    1.097893   2.144835   2.745290   3.286758   2.427735
    11  O    1.406083   2.466840   3.658073   2.672238   2.948267
    12  C    2.580654   3.753468   3.605118   4.386356   4.604458
    13  H    2.151643   2.766151   2.914712   2.730802   3.830931
    14  O    3.023219   4.179394   3.928126   5.154118   4.785371
    15  H    2.897255   4.257881   4.429666   4.691658   5.087744
    16  H    3.501160   4.454421   4.003926   4.978077   5.381660
    17  H    1.906492   2.441356   3.727501   2.111130   2.985082
    18  H    3.188090   1.936853   2.742374   0.961198   2.244161
    19  H    2.944041   4.251949   4.307064   5.251420   4.717818
    20  C    3.746457   3.498847   2.513527   4.805516   3.573894
    21  N    4.925995   4.621192   3.746636   5.953436   4.447598
    22  C    5.644524   5.028905   4.291671   6.276853   4.602620
    23  N    5.319810   4.386178   3.784767   5.471794   3.847207
    24  C    4.236020   3.137004   2.535242   4.144521   2.726938
    25  H    3.617355   3.767067   2.789897   5.032073   4.073950
    26  H    5.544636   5.445296   4.567576   6.803621   5.319835
    27  O    6.782701   6.225377   5.519985   7.482182   5.736559
    28  O    4.421288   3.038232   2.773113   3.668093   2.550653
                    6          7          8          9         10
     6  O    0.000000
     7  H    2.077560   0.000000
     8  C    2.463839   2.121024   0.000000
     9  C    1.418766   3.081691   3.446215   0.000000
    10  H    2.749306   3.788963   3.099222   2.163082   0.000000
    11  O    3.599338   4.386778   4.580815   2.468625   2.033396
    12  C    2.409976   4.409651   4.371432   1.517366   2.722358
    13  H    2.079378   3.335600   4.250045   1.108205   3.050736
    14  O    2.948957   4.895441   4.202036   2.467413   2.608401
    15  H    3.341408   5.210446   5.289016   2.137005   3.113630
    16  H    2.608783   4.638395   4.789284   2.141117   3.718281
    17  H    3.794126   4.237487   4.834638   2.771398   2.783767
    18  H    3.664043   2.485421   3.819161   3.739113   4.009767
    19  H    3.544751   5.343131   4.523670   2.839608   2.333527
    20  C    2.846188   3.259679   1.347827   3.770434   3.284366
    21  N    4.201559   4.375654   2.338597   5.096575   4.308885
    22  C    5.100670   4.722259   2.793142   6.030783   5.091150
    23  N    4.898880   4.016989   2.440063   5.834093   4.970306
    24  C    3.799007   2.710470   1.472983   4.719456   4.108092
    25  H    2.544819   3.629785   2.141724   3.335004   3.131655
    26  H    4.792449   5.244185   3.254166   5.617593   4.825875
    27  O    6.276151   5.937197   4.019683   7.187621   6.142719
    28  O    4.193446   2.602055   2.345740   5.005456   4.539190
                   11         12         13         14         15
    11  O    0.000000
    12  C    3.237337   0.000000
    13  H    2.602769   2.129102   0.000000
    14  O    3.830803   1.419961   3.381403   0.000000
    15  H    3.050452   1.102941   2.372390   2.088274   0.000000
    16  H    4.209637   1.098503   2.481926   2.024273   1.780365
    17  H    0.966180   3.787308   2.567428   4.581066   3.610996
    18  H    3.555903   5.246897   3.586194   5.950564   5.622458
    19  H    3.513799   1.951086   3.733694   0.960084   2.214581
    20  C    5.111822   4.237491   4.748941   3.676929   5.224344
    21  N    6.228404   5.456701   6.094947   4.682115   6.417511
    22  C    6.880187   6.613977   6.956074   5.939122   7.541593
    23  N    6.490820   6.704060   6.625715   6.282030   7.589374
    24  C    5.411019   5.772760   5.407085   5.599840   6.626525
    25  H    4.961666   3.455603   4.362246   2.774052   4.478052
    26  H    6.820671   5.723152   6.659644   4.759980   6.674235
    27  O    7.983599   7.661547   8.143652   6.856028   8.581818
    28  O    5.413286   6.269464   5.481971   6.329364   7.028341
                   16         17         18         19         20
    16  H    0.000000
    17  H    4.630031   0.000000
    18  H    5.780901   2.969372   0.000000
    19  H    2.794338   4.381517   6.074056   0.000000
    20  C    4.588245   5.567177   5.063398   4.042181   0.000000
    21  N    5.804527   6.724341   6.106630   4.943332   1.358143
    22  C    7.018663   7.275160   6.230724   6.120181   2.431631
[...]
 010730,-0.00003529,-0.00013096,-0.00014671,-0.02559585,0.02640692,-0.0
 4926677,0.03560211,-0.16231736,0.09809052,-0.00031129,-0.00003926,-0.0
 0042194,0.00034980,-0.00042211,0.00146812,-0.00353968,0.00095541,-0.00
 104422,0.00303603,0.00015976,-0.00095341,-0.00020817,-0.00005281,0.000
 07383,0.00390240,-0.00139186,0.00003153,0.00111997,0.00014407,0.000279
 99,0.00345629,0.00412975,-0.00133272,-0.00212376,-0.00006642,0.0002682
 3,0.00049506,-0.00007180,-0.00009946,0.00140110,0.00041959,0.00023783,
 0.00003493,0.00041827,-0.00013732,0.00042406,0.00002772,0.00020565,0.0
 0042960,-0.00075079,-0.00019871,0.00021756,-0.00009637,-0.00013684,-0.
 00008738,-0.00013502,0.00012995,-0.00090070,-0.00023484,-0.00016764,-0
 .00423804,-0.00048459,0.00108896,-0.00048577,0.00072160,0.00036125,-0.
 03129826,0.01976042,-0.00774953,-0.13700276,0.03302340,-0.01646278,0.8
 9901937,-0.00018135,-0.00006829,0.00093950,-0.00190409,0.00462485,-0.0
 0241502,0.00013109,-0.00429718,0.00177767,0.00685271,-0.00429450,-0.00
 046945,0.00010269,-0.00031021,-0.00021676,0.00073221,-0.00093092,0.000
 69314,-0.00243000,-0.00032342,-0.00083354,0.00070500,-0.03270107,0.010
 19781,0.00079401,-0.00030586,0.00007042,-0.00031701,0.00006465,-0.0000
 8972,-0.00000053,-0.00106223,0.00021037,0.00014583,0.00013140,0.000082
 33,-0.00001877,-0.00005990,-0.00000717,-0.00016813,-0.00024908,-0.0000
 0098,-0.00004870,-0.00001547,0.00000303,0.00002820,-0.00006388,0.00001
 986,-0.00072887,0.00037821,-0.00051564,-0.01051582,0.00133318,0.001962
 12,0.00013175,0.00019880,-0.00011121,0.06672948,0.03126342,-0.00226677
 ,-0.01071548,-0.17266868,0.02669110,0.14601406,0.56039716,0.00006316,0
 .00003388,-0.00034969,0.00060018,-0.00146404,0.00099818,-0.00029895,0.
 00122639,-0.00102344,-0.00258487,0.00138067,-0.00014727,-0.00002430,0.
 00005552,0.00001024,0.00016131,0.00010262,-0.00004631,0.00052446,-0.00
 000037,0.00017980,0.00037363,0.00896731,-0.00444095,-0.00040099,0.0000
 6371,0.00005924,0.00013926,-0.00003293,0.00002965,0.00003466,0.0003510
 1,-0.00010698,-0.00001185,0.00001750,0.00002631,0.00004430,0.00001715,
 0.00000136,0.00005655,-0.00002643,-0.00010466,0.00002482,-0.00000297,-
 0.00001969,-0.00001762,0.00001554,-0.00000849,0.00018789,-0.00011809,0
 .00020631,0.00375483,-0.00028556,0.00023671,-0.00007083,0.00001944,0.0
 0012638,-0.02165708,-0.00560999,-0.00162556,-0.00226435,0.02950922,-0.
 07014878,0.02150376,-0.07249414,0.24407606,0.00031407,0.00024244,-0.00
 045423,0.00112085,-0.00449694,0.00075142,0.00374645,0.00489718,-0.0013
 3275,-0.01061224,0.00422064,0.00206598,0.00004252,0.00053926,0.0002059
 2,-0.00431642,0.00161822,-0.00053117,0.00085182,-0.00007482,0.00040463
 ,-0.03466783,0.02411986,-0.01243687,0.00096869,0.00037221,-0.00033573,
 -0.00012233,0.00000173,0.00015961,-0.00107564,0.00063581,-0.00039296,-
 0.00022292,-0.00044680,-0.00003417,-0.00031648,0.00004596,-0.00014094,
 -0.00012144,0.00073330,0.00023590,-0.00011731,0.00010646,0.00011853,0.
 00004696,0.00015193,-0.00009018,0.00140989,-0.00014272,0.00068327,0.01
 543665,-0.00112566,-0.00415777,0.00014680,-0.00064640,-0.00026434,-0.0
 3111339,-0.01282491,0.00051857,0.04314756,-0.00463524,0.00472850,-0.14
 112280,-0.07774507,0.01251732,0.61886151,0.00008188,-0.00018201,-0.000
 55708,0.00036357,-0.00467585,0.00169855,-0.00021121,-0.00434607,0.0010
 0978,-0.00978083,0.00484838,0.00152060,0.00005915,0.00050383,0.0000379
 5,0.00251931,0.00074974,-0.00033602,0.00078057,0.00025142,0.00057107,0
 .02308669,0.02592925,0.00121227,-0.00042113,-0.00053955,0.00033583,0.0
 0011600,0.00002381,0.00005012,-0.00046169,0.00100783,-0.00030065,0.000
 18263,-0.00004965,-0.00006198,0.00013295,0.00007021,-0.00004771,0.0000
 5124,0.00031444,-0.00001092,0.00004748,-0.00007617,-0.00003062,-0.0000
 1400,0.00010340,-0.00001847,0.00099760,-0.00028198,0.00059859,0.013608
 22,-0.00177455,-0.00364615,-0.00008676,-0.00023363,0.00007472,-0.02750
 429,-0.00950922,-0.00047359,0.01452753,-0.05893848,0.02176110,-0.06268
 600,-0.26784682,0.04332579,0.17422295,0.45577839,-0.00000079,0.0000438
 8,0.00012918,-0.00043818,0.00031601,-0.00027431,0.00058759,0.00246016,
 0.00191169,0.00097108,-0.00059758,-0.00025508,-0.00006464,-0.00003424,
 -0.00005749,-0.00116446,-0.00005579,-0.00002526,0.00012266,-0.00020499
 ,-0.00017868,-0.01220994,0.00145910,0.01895609,0.00016657,0.00007720,-
 0.00034312,-0.00005233,0.00000607,0.00000219,0.00006468,-0.00019609,0.
 00007852,-0.00005121,-0.00003278,-0.00006751,-0.00011973,0.00001135,0.
 00002125,0.00000265,0.00000170,0.00011631,-0.00001020,0.00001576,0.000
 02481,0.00001233,-0.00002748,0.00001637,-0.00017030,0.00008006,-0.0001
 1377,-0.00121491,0.00082752,0.00102289,0.00004016,-0.00000993,-0.00011
 308,0.00470389,0.00141555,-0.00068064,-0.00225643,0.01902435,0.0129874
 2,0.00887013,0.04348354,-0.08110294,0.00272547,-0.08836878,0.08570823,
 -0.00032227,0.00052367,0.00010144,-0.00208714,0.00585128,-0.00119188,-
 0.01873985,0.02394914,-0.00723151,0.00720142,-0.00249581,-0.00027860,-
 0.00017837,-0.00034149,0.00013539,-0.00348178,-0.00311186,0.00051167,-
 0.00122334,-0.00015000,-0.00132300,-0.15002723,0.03230095,-0.01766091,
 -0.00090744,0.00109339,-0.00086514,0.00015228,-0.00006725,-0.00008653,
 0.00129836,-0.00081211,0.00052303,-0.00038905,0.00015211,-0.00009472,-
 0.00007482,-0.00001459,0.00016891,0.00027497,-0.00061908,-0.00005474,0
 .00009181,0.00007687,-0.00001566,-0.00003433,-0.00016141,0.00007712,-0
 .00155795,0.00015084,-0.00068127,-0.01341898,-0.00798176,0.00313365,-0
 .00026824,0.00054405,0.00018372,0.06383954,0.01298516,0.00293999,-0.04
 642582,0.02198351,-0.01077410,-0.04018081,-0.07039166,0.01778547,-0.34
 119680,-0.01120783,-0.02156005,0.68249645,-0.00014841,0.00068414,0.001
 68255,-0.00348639,0.01529198,-0.00433219,0.00901188,0.01548902,-0.0005
 5039,0.03183474,-0.01463328,-0.00466634,-0.00005556,-0.00146847,-0.000
 68622,-0.00904628,-0.00328703,0.00073617,-0.00321380,-0.00160155,-0.00
 212465,0.05630143,-0.14298289,0.02388925,0.00210200,0.00139233,-0.0011
 1665,-0.00048724,-0.00011316,-0.00005975,0.00109932,-0.00349672,0.0008
 9657,-0.00040044,-0.00000549,0.00041103,-0.00069918,-0.00015119,0.0000
 3344,-0.00050882,-0.00060414,0.00004462,-0.00028336,0.00024348,0.00011
 150,0.00007626,-0.00028538,-0.00003908,-0.00305340,0.00098505,-0.00191
 888,-0.04247254,0.00134039,0.01147232,0.00099294,0.00017007,-0.0003917
 7,-0.01239908,-0.04428593,0.01266608,0.02362698,0.00111349,0.00128289,
 -0.04976045,-0.00820463,-0.00695042,0.01233372,-0.10251451,0.01159029,
 0.12219951,0.70668603,0.00013624,-0.00035803,-0.00019621,0.00046480,-0
 .00307208,0.00179701,-0.00486228,-0.00073339,-0.00081808,-0.00524789,0
 .00320537,0.00122644,0.00010266,0.00018301,0.00003392,0.00197209,0.000
 29542,0.00040816,0.00112038,0.00067253,0.00097259,-0.02409230,0.019349
 60,-0.09276488,-0.00061929,0.00021585,0.00095994,0.00008442,0.00002167
 ,-0.00002309,-0.00026909,0.00072105,-0.00035881,-0.00011612,-0.0000260
 1,-0.00002234,0.00037293,0.00005119,-0.00006198,0.00017044,0.00008196,
 -0.00012344,0.00004496,-0.00000800,-0.00002585,-0.00002086,0.00009438,
 -0.00000880,0.00066887,-0.00022789,0.00042963,0.00752804,0.00098581,-0
 .00426842,-0.00035333,0.00006450,0.00021061,0.00954717,0.01464920,0.00
 268785,-0.01052092,0.00012002,-0.00737484,0.01209518,-0.00969577,-0.01
 608694,-0.02758318,0.01023411,-0.06652134,0.00478181,-0.13361112,0.255
 19124,-0.00004344,-0.00015865,0.00009043,-0.00008560,0.00005719,0.0000
 4903,0.00015454,0.00003603,0.00065031,-0.00022551,0.00027896,-0.000121
 00,0.00001945,0.00000280,-0.00001170,-0.00209332,-0.00130223,-0.000309
 75,0.00014277,0.00027064,-0.00003511,0.01313835,-0.00959724,0.00333408
 ,-0.00070223,0.00009319,0.00024513,-0.00002135,0.00003501,-0.00004581,
 0.00000892,0.00017321,-0.00002604,-0.00003609,0.00000982,0.00001605,0.
 00019698,0.00001683,0.00002731,0.00010978,-0.00006994,-0.00018837,0.00
 004115,-0.00001308,-0.00004592,-0.00004402,0.00004708,-0.00001292,0.00
 004374,-0.00002765,0.00001863,0.00035313,-0.00002165,-0.00010733,-0.00
 009753,0.00009651,0.00043655,-0.12222180,0.11046002,-0.04230899,-0.017
 80720,0.03115747,-0.01088862,-0.00101971,-0.00771349,0.00094683,0.0010
 2302,0.00094802,0.00019291,-0.00229941,-0.00206793,-0.00110836,0.13341
 290,0.00014116,-0.00013731,-0.00012885,0.00029974,-0.00032019,0.000160
 02,0.00242162,-0.00129265,-0.00088184,-0.00059124,0.00045138,0.0000096
 1,0.00003823,0.00001322,0.00004098,0.00066718,0.00094348,-0.00052223,-
 0.00039240,-0.00002858,0.00001098,0.01591526,-0.01445474,0.00877627,-0
 .00063203,0.00055078,0.00000865,0.00003826,0.00004421,-0.00006360,-0.0
 0002842,0.00020508,-0.00001972,-0.00003726,0.00005295,0.00002798,0.000
 14554,0.00002001,0.00000207,-0.00000600,-0.00010344,-0.00008174,0.0000
 3039,-0.00002372,-0.00000689,0.00000555,0.00000736,0.00000835,0.000099
 12,-0.00003726,0.00003906,0.00093330,-0.00002171,-0.00028678,-0.000129
 03,0.00015219,0.00016097,0.11444688,-0.25095422,0.07512814,-0.00413691
 ,0.00660090,-0.00169893,-0.00137775,0.00167106,0.00053540,0.00018061,0
 .00007436,-0.00067424,-0.00598353,-0.00038407,0.00233911,-0.12319572,0
 .25917625,0.00013855,0.00008069,-0.00028888,0.00085580,0.00026636,0.00
 056775,0.00018334,-0.00097879,-0.00494355,0.00010496,-0.00015593,-0.00
 009922,0.00004322,-0.00000209,-0.00006316,-0.00041853,-0.00061705,-0.0
 0051117,-0.00083128,-0.00018104,0.00001763,-0.00403906,0.00581397,0.00
 699675,-0.00000262,-0.00009474,-0.00021564,0.00011170,-0.00001578,0.00
 000840,0.00000484,-0.00004609,0.00001276,0.00026508,0.00007972,0.00037
 572,-0.00009228,-0.00004900,-0.00000799,-0.00035158,-0.00020006,-0.000
 20904,-0.00005853,-0.00002668,-0.00005204,-0.00000728,0.00002380,-0.00
 006388,-0.00001425,0.00000777,-0.00000881,-0.00018707,0.00006789,0.000
 14302,0.00061992,0.00016737,-0.00014343,-0.04445252,0.07525167,-0.0658
 8245,-0.00084871,0.00269127,0.00176845,0.00011456,-0.00019856,0.004002
 77,-0.00001208,-0.00066994,-0.00210427,0.00045487,0.00225598,0.0100026
 1,0.04869105,-0.08271828,0.05463971,-0.00001118,-0.00003460,0.00007762
 ,-0.00014283,0.00008979,-0.00027141,0.00033318,-0.00147227,0.00020589,
 0.00018527,-0.00008821,0.00002693,0.00000980,0.00000466,0.00003194,0.0
 0015616,0.00020689,0.00002758,-0.00033600,-0.00000273,-0.00002350,-0.0
 0523316,0.00290140,-0.00186921,0.00003081,0.00000420,-0.00001274,-0.00
 003675,0.00000638,-0.00000677,-0.00001212,0.00000729,0.00001205,-0.000
 04189,-0.00005322,-0.00003132,-0.00000478,0.00000168,0.00000314,0.0000
 5043,0.00008758,0.00002965,0.00001110,0.00001142,0.00000369,-0.0000092
 1,0.00001207,-0.00000481,-0.00000404,0.00001354,-0.00001897,-0.0002831
 8,0.00004755,0.00004534,-0.00005018,-0.00009743,0.00000405,-0.01012569
 ,-0.03030650,0.00836593,-0.15457090,-0.16044298,0.02971458,0.02018113,
 0.01483109,-0.00225584,-0.00228707,0.00525196,-0.00181455,-0.00090865,
 -0.00049955,0.00010481,0.00038609,0.00059518,0.00004784,0.15481847,0.0
 0000101,0.00003165,-0.00000156,-0.00006971,-0.00016407,0.00018267,0.00
 003458,0.00071156,0.00049145,0.00002167,0.00011958,-0.00004576,-0.0000
 2621,-0.00000392,-0.00000890,0.00019426,-0.00017994,-0.00005382,0.0003
 5627,0.00006388,0.00010081,0.00124691,0.00429118,-0.00008832,-0.000164
 33,0.00001925,0.00002108,0.00004371,-0.00000828,-0.00001326,0.00010927
 ,0.00001034,-0.00002009,0.00002954,0.00006828,0.00002070,0.00002492,0.
 00000186,0.00000892,-0.00001549,-0.00013252,-0.00004118,0.00000667,-0.
 00001181,-0.00001128,-0.00000079,-0.00001650,0.00001239,-0.00005794,-0
 .00002039,0.00000903,-0.00002858,-0.00004291,0.00000593,0.00000636,0.0
 0013092,0.00002227,0.00191021,0.00398261,-0.00313712,-0.16151300,-0.35
 719431,0.08056585,-0.02163965,-0.01960586,0.00329297,0.00363218,-0.004
 19476,0.00218745,0.00446647,-0.00130569,0.00071045,0.00008193,0.000704
 82,-0.00077876,0.17184193,0.36801072,-0.00006056,0.00000981,0.00024525
 ,-0.00068772,0.00024745,-0.00021272,-0.00024617,0.00046076,0.00264495,
 0.00018689,-0.00015449,-0.00007602,0.00000234,-0.00002509,-0.00005860,
 0.00000569,-0.00003075,-0.00024522,0.00052577,0.00000082,0.00006646,-0
 .00151525,0.00036561,0.00345596,-0.00002540,-0.00000179,0.00005495,-0.
 00006237,0.00002119,-0.00002991,-0.00002051,-0.00006379,-0.00008254,0.
 00004748,0.00000387,0.00009920,-0.00001326,-0.00000222,-0.00001845,-0.
 00007388,-0.00004137,-0.00010859,-0.00000767,-0.00000369,-0.00000941,-
 0.00000707,0.00002287,-0.00002079,0.00000845,0.00001274,0.00001714,-0.
 00019663,0.00003937,0.00001501,0.00005227,0.00004434,0.00006895,-0.001
 36090,-0.00749783,-0.00647877,0.03089648,0.08282554,-0.02499543,0.0077
 4869,0.00544652,-0.00222447,-0.00124947,0.00244625,0.00293194,-0.00123
 710,0.00006832,-0.00047927,0.00032105,-0.00069967,-0.00168147,-0.03330
 086,-0.08106505,0.03060049,0.00021756,0.00004054,0.00031488,-0.0003554
 6,0.00010955,-0.00123956,0.00237511,-0.00100868,0.00094008,-0.00305003
 ,0.00016609,0.00101518,0.00018610,0.00011677,-0.00004877,-0.00293478,0
 .00082747,0.00003971,-0.00102019,-0.00003042,-0.00017313,-0.00363678,0
 .00483957,-0.00068818,0.00175962,-0.00013698,-0.00020183,-0.00039746,0
 .00005400,0.00008651,-0.00115473,-0.00032666,-0.00020090,0.00001806,-0
 .00033736,0.00010053,-0.00035933,-0.00001655,-0.00016484,-0.00035453,0
 .00063491,0.00018161,-0.00017233,0.00006749,0.00010683,0.00006988,0.00
 011161,-0.00010262,0.00075357,0.00019086,0.00015769,0.00425536,0.00011
 569,-0.00136207,0.00042357,-0.00061534,-0.00033820,-0.00198495,0.00585
 994,-0.00208659,-0.08009918,0.02776821,-0.01486884,-0.57513216,-0.0798
 6680,-0.02158700,-0.05771470,-0.04749196,0.00663389,0.02298215,0.00184
 591,0.00037306,-0.00275194,-0.00007669,-0.00046511,-0.00263602,0.00020
 429,-0.00022269,0.70956968,0.00007165,-0.00000808,-0.00019075,0.000440
 34,-0.00110825,0.00037015,0.00037857,0.00084749,-0.00041023,-0.0022005
 2,0.00112126,0.00032771,0.00000520,0.00010734,0.00005726,-0.00059796,0
 .00045181,-0.00018591,0.00039211,0.00010394,0.00017304,-0.00090649,0.0
 0768302,-0.00285017,0.00001357,0.00007609,-0.00004560,0.00001767,-0.00
 000366,0.00003191,-0.00016475,0.00024299,-0.00007054,-0.00005681,-0.00
 010399,-0.00002682,-0.00004035,0.00001411,-0.00001980,0.00001986,0.000
 19228,0.00004533,-0.00000625,0.00001633,0.00001590,0.00000052,0.000037
 04,-0.00002040,0.00028893,-0.00007215,0.00014748,0.00319936,-0.0003723
 8,-0.00083694,0.00000109,-0.00016923,-0.00001653,-0.01202190,-0.007869
 68,0.00177649,0.05782357,0.01038064,0.00830817,-0.07743508,-0.10646627
 ,-0.00065730,-0.07039263,-0.01499009,0.00248428,0.01647593,-0.00347367
 ,0.00506187,0.00153164,-0.00003248,0.00012341,-0.00330989,0.00385791,-
 0.00224163,0.09478031,0.11422890,-0.00000656,-0.00000599,0.00005222,-0
 .00002729,0.00036601,-0.00032211,0.00009366,-0.00054690,-0.00037286,0.
 00052565,-0.00036347,0.00011911,0.00000641,0.00001105,0.00003282,-0.00
 010836,-0.00003273,0.00006364,-0.00024267,0.00002703,-0.00004338,0.000
 15415,-0.00222398,-0.00114544,0.00017106,-0.00001831,-0.00003133,-0.00
 004359,0.00000931,0.00000437,-0.00002718,-0.00007536,0.00006102,-0.000
 01845,-0.00002027,-0.00004813,-0.00001452,-0.00000506,0.00000043,0.000
 00335,0.00004396,0.00009321,-0.00001020,0.00000424,0.00001072,0.000009
 71,-0.00000934,0.00001046,-0.00002905,0.00002885,-0.00006192,-0.000758
 32,0.00005381,-0.00009148,0.00002615,-0.00003606,-0.00008428,0.0026251
 9,0.00336220,0.00386326,-0.02304727,0.00538043,0.01806984,-0.02196587,
 -0.00122980,-0.08350376,0.01197269,0.00547972,0.01704680,-0.00322143,0
 .00360429,0.00882685,-0.00052060,0.00004605,-0.00005112,0.00095720,-0.
 00194896,-0.00289407,0.03200683,-0.01190045,0.04200100,-0.00001071,0.0
 0026035,-0.00176568,0.00184731,-0.01711651,0.00426511,-0.00073793,-0.0
 0355384,-0.00006157,-0.05694776,0.01471823,0.01531076,0.00011121,0.001
 83208,0.00047274,0.00145233,0.00298998,-0.00096416,0.00173926,0.000832
 50,0.00112288,0.01722329,0.00507745,-0.00307414,-0.00067302,-0.0005567
 0,0.00065879,0.00018858,0.00001408,0.00018677,-0.00195824,0.00288735,-
 0.00131023,0.00006676,-0.00034168,-0.00024660,0.00016309,0.00015583,-0
 .00022250,0.00012662,0.00094750,0.00013958,0.00003911,-0.00004536,0.00
 003742,0.00000222,0.00032249,-0.00005619,0.00370247,-0.00054338,0.0026
 4654,0.01809183,0.00768323,-0.01097113,-0.00038464,-0.00062715,0.00001
 759,-0.00773583,0.00202460,-0.00185499,0.00722230,-0.01063816,0.003351
 22,0.00358397,0.02554765,-0.00754476,-0.06210944,-0.07711205,0.0160337
 0,-0.15461470,-0.13284228,0.03522578,0.00041834,0.00062897,0.00014518,
 0.00053122,-0.00069647,0.00049241,-0.00885611,-0.00830768,0.00148932,0
 .23751846,-0.00008043,0.00017168,-0.00145505,0.00002568,-0.00813864,0.
 00306856,-0.00694649,-0.00214889,-0.00208326,-0.01793499,0.01735513,0.
 00234323,0.00002347,0.00122716,0.00048838,0.00259257,0.00239453,-0.000
 92153,0.00181420,0.00092710,0.00111474,-0.01294436,-0.06526874,0.02346
 656,-0.00178556,-0.00035128,0.00049386,0.00030965,0.00006610,0.0001093
 1,-0.00051246,0.00231530,-0.00028678,0.00002113,-0.00015743,-0.0003272
 7,0.00035629,0.00012958,-0.00003740,0.00040124,0.00054872,0.00004637,0
 .00016113,-0.00008960,-0.00003490,-0.00004949,0.00021630,0.00000101,0.
 00197462,-0.00080819,0.00105215,0.03094493,-0.01835838,-0.00757700,-0.
 00066610,-0.00024712,0.00025658,0.01349516,0.00219545,0.00183838,-0.00
 503042,-0.00621533,0.00069407,0.01087073,0.01941155,-0.00127188,-0.055
 52325,-0.01950172,0.00471764,-0.13941449,-0.41459819,0.08867519,-0.001
 12875,-0.00287767,-0.00009711,0.00039281,0.00087638,-0.00018808,-0.007
 82578,-0.00469121,-0.00000030,0.18645896,0.49561740,-0.00006934,-0.000
 23015,0.00077066,0.00038429,0.00734510,-0.00317993,0.00203741,-0.00160
 117,-0.00230550,0.02503802,-0.00717715,0.00264699,-0.00026238,-0.00041
 530,0.00007873,-0.00155696,0.00018705,0.00126378,0.00028032,0.00003074
 ,0.00024074,0.00368462,0.02656795,0.01494678,0.00130439,0.00030526,-0.
 00049930,-0.00016220,0.00000259,-0.00002499,0.00091385,-0.00148978,0.0
 0099819,-0.00011068,0.00003992,0.00009325,-0.00016436,-0.00016273,0.00
 009870,-0.00013583,-0.00025353,0.00014514,-0.00006905,0.00006608,0.000
 03440,0.00002279,-0.00016136,0.00002143,-0.00169138,0.00026251,-0.0015
 6667,-0.01887966,-0.00062517,-0.00676395,0.00026122,0.00010736,-0.0002
 4626,-0.00541367,0.00058871,0.00189724,0.00205565,0.00124247,-0.000558
 49,-0.00380724,-0.00103287,0.01098694,0.01192804,0.00416548,0.01088380
 ,0.03547960,0.08570218,-0.09361256,0.00071113,0.00048913,-0.00220946,-
 0.00004827,-0.00041791,-0.00058455,0.00179354,0.00055008,-0.00160587,-
 0.05352385,-0.11408547,0.06805077\\-0.00000750,-0.00001249,-0.00000547
 ,-0.00000363,0.00002206,-0.00000230,-0.00000046,-0.00001133,-0.0000053
 8,-0.00004041,-0.00000517,0.00002225,-0.00000285,-0.00000103,-0.000000
 04,0.00001828,-0.00000390,-0.00000403,-0.00000202,-0.00000145,-0.00000
 187,-0.00000241,0.00000901,0.00000710,-0.00001764,0.00000284,-0.000004
 72,-0.00000241,0.00000312,0.00000127,0.00000809,0.00000933,0.00001533,
 0.00001467,0.00000896,-0.00000202,0.00000691,-0.00000340,0.00000500,-0
 .00002268,0.00001047,0.00000797,0.00000264,0.00000113,0.00000212,-0.00
 000301,0.00000244,-0.00000370,-0.00000380,-0.00000788,0.00000113,0.000
 04627,-0.00001682,-0.00000996,0.00000483,-0.00000979,-0.00001235,-0.00
 000328,0.00000244,0.00000311,-0.00000520,-0.00000199,-0.00001516,-0.00
 001017,0.00001166,-0.00000384,-0.00000396,-0.00000849,-0.00000050,0.00
 000547,0.00000601,0.00000892,0.00000193,-0.00000087,-0.00000413,0.0000
 0083,-0.00000082,-0.00000115,0.00002505,0.00000259,0.00000555,-0.00000
 354,-0.00000665,-0.00000314\\\@
 The archive entry for this job was punched.


 ARTHROPOD AXIOM: A COMPUTER SYSTEM IS LIKE A SPIDER'S WEB.
 YOU CANNOT PULL ON ONE END WITHOUT MAKING THE OTHER END MOVE.
     -- GREG WETTSTEIN
 Job cpu time:       0 days  9 hours 24 minutes  9.0 seconds.
 Elapsed time:       0 days  0 hours 14 minutes 13.3 seconds.
 File lengths (MBytes):  RWF=    600 Int=      0 D2E=      0 Chk=     20 Scr=      1
 Normal termination of Gaussian 16 at Sun Oct 27 05:03:04 2024.
