 Entering Gaussian System, Link 0=g16
 Input=PseudoUridineAnNsrrgPBE0aVDZ.gjf
 Output=PseudoUridineAnNsrrgPBE0aVDZ.log
 Initial command:
 /sw/contrib/chem-src/g16/c01/g16/l1.exe "/scr/Gau-39404.inp" -scrdir="/scr/"
 Entering Link 1 = /sw/contrib/chem-src/g16/c01/g16/l1.exe PID=     39405.
  
 Copyright (c) 1988-2019, Gaussian, Inc.  All Rights Reserved.
  
 This is part of the Gaussian(R) 16 program.  It is based on
 the Gaussian(R) 09 system (copyright 2009, Gaussian, Inc.),
 the Gaussian(R) 03 system (copyright 2003, Gaussian, Inc.),
 the Gaussian(R) 98 system (copyright 1998, Gaussian, Inc.),
 the Gaussian(R) 94 system (copyright 1995, Gaussian, Inc.),
 the Gaussian 92(TM) system (copyright 1992, Gaussian, Inc.),
 the Gaussian 90(TM) system (copyright 1990, Gaussian, Inc.),
 the Gaussian 88(TM) system (copyright 1988, Gaussian, Inc.),
 the Gaussian 86(TM) system (copyright 1986, Carnegie Mellon
 University), and the Gaussian 82(TM) system (copyright 1983,
 Carnegie Mellon University). Gaussian is a federally registered
 trademark of Gaussian, Inc.
  
 This software contains proprietary and confidential information,
 including trade secrets, belonging to Gaussian, Inc.
  
 This software is provided under written license and may be
 used, copied, transmitted, or stored only in accord with that
 written license.
  
 The following legend is applicable only to US Government
 contracts under FAR:
  
                    RESTRICTED RIGHTS LEGEND
  
 Use, reproduction and disclosure by the US Government is
 subject to restrictions as set forth in subparagraphs (a)
 and (c) of the Commercial Computer Software - Restricted
 Rights clause in FAR 52.227-19.
  
 Gaussian, Inc.
 340 Quinnipiac St., Bldg. 40, Wallingford CT 06492
  
  
 ---------------------------------------------------------------
 Warning -- This program may not be used in any manner that
 competes with the business of Gaussian, Inc. or will provide
 assistance to any competitor of Gaussian, Inc.  The licensee
 of this program is prohibited from giving any competitor of
 Gaussian, Inc. access to this program.  By using this program,
 the user acknowledges that Gaussian, Inc. is engaged in the
 business of creating and licensing software in the field of
 computational chemistry and represents and warrants to the
 licensee that it is not a competitor of Gaussian, Inc. and that
 it will not use this program in any manner prohibited above.
 ---------------------------------------------------------------
  

 Cite this work as:
 Gaussian 16, Revision C.01,
 M. J. Frisch, G. W. Trucks, H. B. Schlegel, G. E. Scuseria, 
 M. A. Robb, J. R. Cheeseman, G. Scalmani, V. Barone, 
 G. A. Petersson, H. Nakatsuji, X. Li, M. Caricato, A. V. Marenich, 
 J. Bloino, B. G. Janesko, R. Gomperts, B. Mennucci, H. P. Hratchian, 
 J. V. Ortiz, A. F. Izmaylov, J. L. Sonnenberg, D. Williams-Young, 
 F. Ding, F. Lipparini, F. Egidi, J. Goings, B. Peng, A. Petrone, 
 T. Henderson, D. Ranasinghe, V. G. Zakrzewski, J. Gao, N. Rega, 
 G. Zheng, W. Liang, M. Hada, M. Ehara, K. Toyota, R. Fukuda, 
 J. Hasegawa, M. Ishida, T. Nakajima, Y. Honda, O. Kitao, H. Nakai, 
 T. Vreven, K. Throssell, J. A. Montgomery, Jr., J. E. Peralta, 
 F. Ogliaro, M. J. Bearpark, J. J. Heyd, E. N. Brothers, K. N. Kudin, 
 V. N. Staroverov, T. A. Keith, R. Kobayashi, J. Normand, 
 K. Raghavachari, A. P. Rendell, J. C. Burant, S. S. Iyengar, 
 J. Tomasi, M. Cossi, J. M. Millam, M. Klene, C. Adamo, R. Cammi, 
 J. W. Ochterski, R. L. Martin, K. Morokuma, O. Farkas, 
 J. B. Foresman, and D. J. Fox, Gaussian, Inc., Wallingford CT, 2019.
 
 ******************************************
 Gaussian 16:  EM64L-G16RevC.01  3-Jul-2019
                28-Oct-2024 
 ******************************************
 %nprocshared=40
 Will use up to   40 processors via shared memory.
 %mem=50gb
 ------------------------------------------------------
 # PBE1PBE/aug-cc-pVDZ opt freq EmpiricalDispersion=GD3
 ------------------------------------------------------
 1/18=20,19=15,26=3,38=1/1,3;
 2/9=110,12=2,17=6,18=5,40=1/2;
 3/5=16,7=10,11=2,25=1,30=1,71=1,74=-13,124=31/1,2,3;
 4//1;
 5/5=2,38=5/2;
 6/7=2,8=2,9=2,10=2,28=1/1;
 7//1,2,3,16;
 1/18=20,19=15,26=3/3(2);
 2/9=110/2;
 99//99;
 2/9=110/2;
 3/5=16,7=10,11=2,25=1,30=1,71=1,74=-13,124=31/1,2,3;
 4/5=5,16=3,69=1/1;
 5/5=2,38=5/2;
 7//1,2,3,16;
 1/18=20,19=15,26=3/3(-5);
 2/9=110/2;
 6/7=2,8=2,9=2,10=2,19=2,28=1/1;
 99/9=1/99;
 ----
 blah
 ----
 Symbolic Z-matrix:
 Charge =  0 Multiplicity = 2
 C                    -2.03682  -0.20947   0.77464 
 C                    -1.35153  -1.38024   0.0789 
 C                    -0.51638  -0.65607  -0.97219 
 O                    -2.33155  -2.17483  -0.57807 
 H                    -0.71283  -1.99303   0.72665 
 O                    -1.28162   0.52829  -1.31374 
 H                    -0.46856  -1.29328  -1.86735 
 C                     0.86655  -0.27389  -0.51857 
 C                    -2.35486   0.70817  -0.39925 
 H                    -1.3347    0.2868    1.45944 
 O                    -3.23961  -0.56607   1.45083 
 C                    -2.46345   2.17794  -0.04889 
 H                    -3.30591   0.37777  -0.85555 
 O                    -1.32507   2.66852   0.62929 
 H                    -3.3277    2.3233    0.61556 
 H                    -2.64415   2.74812  -0.97788 
 H                    -2.99679  -0.90129   2.31825 
 H                    -3.0958   -2.19319   0.01101 
 H                    -0.55448   2.24794   0.22405 
 C                     1.36188   0.97119  -0.70858 
 N                     2.63102   1.26987  -0.32347 
 C                     3.47808   0.32961   0.31697 
 N                     3.02658  -0.9285    0.45469 
 C                     1.78944  -1.30093   0.0331 
 H                     0.79675   1.76111  -1.2069 
 H                     3.01043   2.19847  -0.42208 
 O                     4.58124   0.75875   0.686 
 O                     1.39575  -2.48343   0.09063 
 

 GradGradGradGradGradGradGradGradGradGradGradGradGradGradGradGradGradGrad
 Berny optimization.
 Initialization pass.
                           ----------------------------
                           !    Initial Parameters    !
                           ! (Angstroms and Degrees)  !
 --------------------------                            --------------------------
 ! Name  Definition              Value          Derivative Info.                !
 --------------------------------------------------------------------------------
 ! R1    R(1,2)                  1.5246         estimate D2E/DX2                !
 ! R2    R(1,9)                  1.5236         estimate D2E/DX2                !
 ! R3    R(1,10)                 1.0992         estimate D2E/DX2                !
 ! R4    R(1,11)                 1.4252         estimate D2E/DX2                !
 ! R5    R(2,3)                  1.5253         estimate D2E/DX2                !
 ! R6    R(2,4)                  1.4225         estimate D2E/DX2                !
 ! R7    R(2,5)                  1.0968         estimate D2E/DX2                !
 ! R8    R(3,6)                  1.4508         estimate D2E/DX2                !
 ! R9    R(3,7)                  1.0998         estimate D2E/DX2                !
 ! R10   R(3,8)                  1.5048         estimate D2E/DX2                !
 ! R11   R(4,18)                 0.9651         estimate D2E/DX2                !
 ! R12   R(6,9)                  1.4214         estimate D2E/DX2                !
 ! R13   R(8,20)                 1.3534         estimate D2E/DX2                !
 ! R14   R(8,24)                 1.4869         estimate D2E/DX2                !
 ! R15   R(9,12)                 1.5148         estimate D2E/DX2                !
 ! R16   R(9,13)                 1.1054         estimate D2E/DX2                !
 ! R17   R(11,17)                0.9611         estimate D2E/DX2                !
 ! R18   R(12,14)                1.413          estimate D2E/DX2                !
 ! R19   R(12,15)                1.0998         estimate D2E/DX2                !
 ! R20   R(12,16)                1.1049         estimate D2E/DX2                !
 ! R21   R(14,19)                0.9669         estimate D2E/DX2                !
 ! R22   R(20,21)                1.3595         estimate D2E/DX2                !
 ! R23   R(20,25)                1.0916         estimate D2E/DX2                !
 ! R24   R(21,22)                1.4184         estimate D2E/DX2                !
 ! R25   R(21,26)                1.008          estimate D2E/DX2                !
 ! R26   R(22,23)                1.3437         estimate D2E/DX2                !
 ! R27   R(22,27)                1.2399         estimate D2E/DX2                !
 ! R28   R(23,24)                1.359          estimate D2E/DX2                !
 ! R29   R(24,28)                1.2476         estimate D2E/DX2                !
 ! A1    A(2,1,9)              101.8145         estimate D2E/DX2                !
 ! A2    A(2,1,10)             110.1145         estimate D2E/DX2                !
 ! A3    A(2,1,11)             113.8113         estimate D2E/DX2                !
 ! A4    A(9,1,10)             109.9642         estimate D2E/DX2                !
 ! A5    A(9,1,11)             109.8831         estimate D2E/DX2                !
 ! A6    A(10,1,11)            110.8832         estimate D2E/DX2                !
 ! A7    A(1,2,3)              101.3024         estimate D2E/DX2                !
 ! A8    A(1,2,4)              109.2718         estimate D2E/DX2                !
 ! A9    A(1,2,5)              114.9149         estimate D2E/DX2                !
 ! A10   A(3,2,4)              108.9145         estimate D2E/DX2                !
 ! A11   A(3,2,5)              110.6933         estimate D2E/DX2                !
 ! A12   A(4,2,5)              111.2146         estimate D2E/DX2                !
 ! A13   A(2,3,6)              105.1289         estimate D2E/DX2                !
 ! A14   A(2,3,7)              108.0352         estimate D2E/DX2                !
 ! A15   A(2,3,8)              114.5845         estimate D2E/DX2                !
 ! A16   A(6,3,7)              107.7152         estimate D2E/DX2                !
 ! A17   A(6,3,8)              110.3875         estimate D2E/DX2                !
 ! A18   A(7,3,8)              110.6427         estimate D2E/DX2                !
 ! A19   A(2,4,18)             105.9197         estimate D2E/DX2                !
 ! A20   A(3,6,9)              110.4928         estimate D2E/DX2                !
 ! A21   A(3,8,20)             121.8495         estimate D2E/DX2                !
 ! A22   A(3,8,24)             120.4538         estimate D2E/DX2                !
 ! A23   A(20,8,24)            117.4107         estimate D2E/DX2                !
 ! A24   A(1,9,6)              105.1806         estimate D2E/DX2                !
 ! A25   A(1,9,12)             114.907          estimate D2E/DX2                !
 ! A26   A(1,9,13)             108.5197         estimate D2E/DX2                !
 ! A27   A(6,9,12)             109.0081         estimate D2E/DX2                !
 ! A28   A(6,9,13)             110.2561         estimate D2E/DX2                !
 ! A29   A(12,9,13)            108.8933         estimate D2E/DX2                !
 ! A30   A(1,11,17)            107.5939         estimate D2E/DX2                !
 ! A31   A(9,12,14)            112.9619         estimate D2E/DX2                !
 ! A32   A(9,12,15)            108.9231         estimate D2E/DX2                !
 ! A33   A(9,12,16)            108.5397         estimate D2E/DX2                !
 ! A34   A(14,12,15)           107.292          estimate D2E/DX2                !
 ! A35   A(14,12,16)           110.8635         estimate D2E/DX2                !
 ! A36   A(15,12,16)           108.1348         estimate D2E/DX2                !
 ! A37   A(12,14,19)           106.8522         estimate D2E/DX2                !
 ! A38   A(8,20,21)            120.2655         estimate D2E/DX2                !
 ! A39   A(8,20,25)            122.7052         estimate D2E/DX2                !
 ! A40   A(21,20,25)           116.9763         estimate D2E/DX2                !
 ! A41   A(20,21,22)           122.669          estimate D2E/DX2                !
 ! A42   A(20,21,26)           121.7408         estimate D2E/DX2                !
 ! A43   A(22,21,26)           115.4744         estimate D2E/DX2                !
 ! A44   A(21,22,23)           117.7933         estimate D2E/DX2                !
 ! A45   A(21,22,27)           115.8682         estimate D2E/DX2                !
 ! A46   A(23,22,27)           126.3346         estimate D2E/DX2                !
 ! A47   A(22,23,24)           122.0491         estimate D2E/DX2                !
 ! A48   A(8,24,23)            119.395          estimate D2E/DX2                !
 ! A49   A(8,24,28)            118.4188         estimate D2E/DX2                !
 ! A50   A(23,24,28)           122.1862         estimate D2E/DX2                !
 ! D1    D(9,1,2,3)             39.3043         estimate D2E/DX2                !
 ! D2    D(9,1,2,4)            -75.5347         estimate D2E/DX2                !
 ! D3    D(9,1,2,5)            158.656          estimate D2E/DX2                !
 ! D4    D(10,1,2,3)           -77.3167         estimate D2E/DX2                !
 ! D5    D(10,1,2,4)           167.8442         estimate D2E/DX2                !
 ! D6    D(10,1,2,5)            42.0349         estimate D2E/DX2                !
 ! D7    D(11,1,2,3)           157.4749         estimate D2E/DX2                !
 ! D8    D(11,1,2,4)            42.6358         estimate D2E/DX2                !
 ! D9    D(11,1,2,5)           -83.1734         estimate D2E/DX2                !
 ! D10   D(2,1,9,6)            -33.9339         estimate D2E/DX2                !
 ! D11   D(2,1,9,12)          -153.8063         estimate D2E/DX2                !
 ! D12   D(2,1,9,13)            84.0496         estimate D2E/DX2                !
 ! D13   D(10,1,9,6)            82.7963         estimate D2E/DX2                !
 ! D14   D(10,1,9,12)          -37.0762         estimate D2E/DX2                !
 ! D15   D(10,1,9,13)         -159.2202         estimate D2E/DX2                !
 ! D16   D(11,1,9,6)          -154.8818         estimate D2E/DX2                !
 ! D17   D(11,1,9,12)           85.2457         estimate D2E/DX2                !
 ! D18   D(11,1,9,13)          -36.8984         estimate D2E/DX2                !
 ! D19   D(2,1,11,17)           83.9727         estimate D2E/DX2                !
 ! D20   D(9,1,11,17)         -162.6006         estimate D2E/DX2                !
 ! D21   D(10,1,11,17)         -40.8253         estimate D2E/DX2                !
 ! D22   D(1,2,3,6)            -31.4361         estimate D2E/DX2                !
 ! D23   D(1,2,3,7)           -146.2409         estimate D2E/DX2                !
 ! D24   D(1,2,3,8)             89.9326         estimate D2E/DX2                !
 ! D25   D(4,2,3,6)             83.6686         estimate D2E/DX2                !
 ! D26   D(4,2,3,7)            -31.1362         estimate D2E/DX2                !
 ! D27   D(4,2,3,8)           -154.9627         estimate D2E/DX2                !
 ! D28   D(5,2,3,6)           -153.7614         estimate D2E/DX2                !
 ! D29   D(5,2,3,7)             91.4338         estimate D2E/DX2                !
 ! D30   D(5,2,3,8)            -32.3926         estimate D2E/DX2                !
 ! D31   D(1,2,4,18)           -38.5008         estimate D2E/DX2                !
 ! D32   D(3,2,4,18)          -148.3338         estimate D2E/DX2                !
 ! D33   D(5,2,4,18)            89.4104         estimate D2E/DX2                !
 ! D34   D(2,3,6,9)             10.8758         estimate D2E/DX2                !
 ! D35   D(7,3,6,9)            125.9028         estimate D2E/DX2                !
 ! D36   D(8,3,6,9)           -113.1975         estimate D2E/DX2                !
 ! D37   D(2,3,8,20)          -131.7502         estimate D2E/DX2                !
 ! D38   D(2,3,8,24)            54.5531         estimate D2E/DX2                !
 ! D39   D(6,3,8,20)           -13.3112         estimate D2E/DX2                !
 ! D40   D(6,3,8,24)           172.9921         estimate D2E/DX2                !
 ! D41   D(7,3,8,20)           105.8259         estimate D2E/DX2                !
 ! D42   D(7,3,8,24)           -67.8708         estimate D2E/DX2                !
 ! D43   D(3,6,9,1)             14.6005         estimate D2E/DX2                !
 ! D44   D(3,6,9,12)           138.3118         estimate D2E/DX2                !
 ! D45   D(3,6,9,13)          -102.2037         estimate D2E/DX2                !
 ! D46   D(3,8,20,21)         -177.9358         estimate D2E/DX2                !
 ! D47   D(3,8,20,25)           -0.6643         estimate D2E/DX2                !
 ! D48   D(24,8,20,21)          -4.0559         estimate D2E/DX2                !
 ! D49   D(24,8,20,25)         173.2156         estimate D2E/DX2                !
 ! D50   D(3,8,24,23)         -179.0335         estimate D2E/DX2                !
 ! D51   D(3,8,24,28)            1.0469         estimate D2E/DX2                !
 ! D52   D(20,8,24,23)           6.9969         estimate D2E/DX2                !
 ! D53   D(20,8,24,28)        -172.9227         estimate D2E/DX2                !
 ! D54   D(1,9,12,14)           53.8054         estimate D2E/DX2                !
 ! D55   D(1,9,12,15)          -65.3066         estimate D2E/DX2                !
 ! D56   D(1,9,12,16)          177.176          estimate D2E/DX2                !
 ! D57   D(6,9,12,14)          -63.9256         estimate D2E/DX2                !
 ! D58   D(6,9,12,15)          176.9624         estimate D2E/DX2                !
 ! D59   D(6,9,12,16)           59.445          estimate D2E/DX2                !
 ! D60   D(13,9,12,14)         175.7473         estimate D2E/DX2                !
 ! D61   D(13,9,12,15)          56.6354         estimate D2E/DX2                !
 ! D62   D(13,9,12,16)         -60.8821         estimate D2E/DX2                !
 ! D63   D(9,12,14,19)          38.5485         estimate D2E/DX2                !
 ! D64   D(15,12,14,19)        158.6            estimate D2E/DX2                !
 ! D65   D(16,12,14,19)        -83.527          estimate D2E/DX2                !
 ! D66   D(8,20,21,22)          -1.7191         estimate D2E/DX2                !
 ! D67   D(8,20,21,26)        -177.6276         estimate D2E/DX2                !
 ! D68   D(25,20,21,22)       -179.1429         estimate D2E/DX2                !
 ! D69   D(25,20,21,26)          4.9485         estimate D2E/DX2                !
 ! D70   D(20,21,22,23)          4.85           estimate D2E/DX2                !
 ! D71   D(20,21,22,27)       -175.8175         estimate D2E/DX2                !
 ! D72   D(26,21,22,23)       -179.0039         estimate D2E/DX2                !
 ! D73   D(26,21,22,27)          0.3286         estimate D2E/DX2                !
 ! D74   D(21,22,23,24)         -1.6877         estimate D2E/DX2                !
 ! D75   D(27,22,23,24)        179.0579         estimate D2E/DX2                !
 ! D76   D(22,23,24,8)          -4.0453         estimate D2E/DX2                !
 ! D77   D(22,23,24,28)        175.8712         estimate D2E/DX2                !
 --------------------------------------------------------------------------------
 Trust Radius=3.00D-01 FncErr=1.00D-07 GrdErr=1.00D-06 EigMax=2.50D+02 EigMin=1.00D-04
 Number of steps in this run=    166 maximum allowed number of steps=    168.
 GradGradGradGradGradGradGradGradGradGradGradGradGradGradGradGradGradGrad

                          Input orientation:                          
 ---------------------------------------------------------------------
 Center     Atomic      Atomic             Coordinates (Angstroms)
 Number     Number       Type             X           Y           Z
 ---------------------------------------------------------------------
      1          6           0       -2.036822   -0.209471    0.774639
      2          6           0       -1.351534   -1.380241    0.078897
      3          6           0       -0.516383   -0.656074   -0.972194
      4          8           0       -2.331550   -2.174832   -0.578074
      5          1           0       -0.712834   -1.993027    0.726651
      6          8           0       -1.281616    0.528290   -1.313739
      7          1           0       -0.468555   -1.293276   -1.867351
      8          6           0        0.866548   -0.273891   -0.518573
      9          6           0       -2.354864    0.708173   -0.399246
     10          1           0       -1.334703    0.286795    1.459443
     11          8           0       -3.239606   -0.566073    1.450833
     12          6           0       -2.463454    2.177941   -0.048894
     13          1           0       -3.305912    0.377769   -0.855547
     14          8           0       -1.325074    2.668524    0.629285
     15          1           0       -3.327695    2.323301    0.615556
     16          1           0       -2.644152    2.748119   -0.977878
     17          1           0       -2.996792   -0.901294    2.318253
     18          1           0       -3.095802   -2.193185    0.011006
     19          1           0       -0.554481    2.247941    0.224048
     20          6           0        1.361882    0.971193   -0.708584
     21          7           0        2.631023    1.269868   -0.323470
     22          6           0        3.478083    0.329608    0.316971
     23          7           0        3.026581   -0.928498    0.454694
     24          6           0        1.789441   -1.300925    0.033096
     25          1           0        0.796754    1.761110   -1.206903
     26          1           0        3.010426    2.198471   -0.422078
     27          8           0        4.581240    0.758746    0.686004
     28          8           0        1.395748   -2.483428    0.090634
 ---------------------------------------------------------------------
                    Distance matrix (angstroms):
                    1          2          3          4          5
     1  C    0.000000
     2  C    1.524591   0.000000
     3  C    2.358520   1.525348   0.000000
     4  O    2.404026   1.422469   2.399331   0.000000
     5  H    2.221783   1.096827   2.170740   2.087008   0.000000
     6  O    2.340075   2.363644   1.450845   2.991727   3.292984
     7  H    3.257945   2.138947   1.099827   2.431075   2.697808
     8  C    3.179010   2.549680   1.504770   3.720880   2.645838
     9  C    1.523557   2.365748   2.359969   2.888640   3.355650
    10  H    1.099185   2.164532   2.733406   3.347355   2.474125
    11  O    1.425164   2.471820   3.646245   2.743927   2.990855
    12  C    2.561241   3.730061   3.560226   4.386806   4.589457
    13  H    2.147777   2.789871   2.977232   2.746296   3.853320
    14  O    2.968260   4.086089   3.777786   5.092034   4.702592
    15  H    2.847208   4.231954   4.393302   4.759229   5.047824
    16  H    3.491061   4.453200   4.014469   4.949041   5.395727
    17  H    1.944969   2.819748   4.127905   3.233134   2.990241
    18  H    2.374804   1.925606   3.159556   0.965108   2.496147
    19  H    2.922218   3.717535   3.140979   4.833456   4.273581
    20  C    3.891671   3.675867   2.499073   4.853447   3.892422
    21  N    5.018273   4.800598   3.746500   6.046314   4.788592
    22  C    5.560058   5.128885   4.311528   6.389457   4.808977
    23  N    5.124199   4.417373   3.829206   5.597278   3.897487
    24  C    4.047400   3.142310   2.596780   4.256737   2.687267
    25  H    3.979805   4.017027   2.760832   5.066888   4.484532
    26  H    5.718831   5.664349   4.570496   6.905565   5.722840
    27  O    6.689099   6.335744   5.544105   7.615145   5.966668
    28  O    4.173881   2.960527   2.850451   3.799362   2.256353
                    6          7          8          9         10
     6  O    0.000000
     7  H    2.070183   0.000000
     8  C    2.427013   2.154263   0.000000
     9  C    1.421449   3.117578   3.369894   0.000000
    10  H    2.784183   3.783437   3.012046   2.161715   0.000000
    11  O    3.560086   4.383822   4.563379   2.414387   2.087130
    12  C    2.391218   4.397244   4.161850   1.514845   2.669381
    13  H    2.080954   3.444813   4.236465   1.105382   3.041894
    14  O    2.890992   4.760533   3.844293   2.441581   2.522278
    15  H    3.336268   5.236329   5.061949   2.141229   2.971787
    16  H    2.626204   4.675175   4.654946   2.140066   3.703148
    17  H    4.263438   4.905600   4.833902   3.222927   2.216224
    18  H    3.528831   3.352684   4.434452   3.022445   3.368938
    19  H    2.418825   4.113581   2.988385   2.449645   2.445617
    20  C    2.747810   3.133857   1.353401   3.738859   3.527083
    21  N    4.103573   4.308208   2.352579   5.017999   4.457824
    22  C    5.035218   4.793847   2.807572   5.888934   4.946714
    23  N    4.879564   4.211999   2.457947   5.689276   4.637592
    24  C    3.819867   2.951322   1.486899   4.625868   3.783596
    25  H    2.418859   3.371420   2.149395   3.419603   3.718348
    26  H    4.691075   5.136577   3.273851   5.568469   5.106346
    27  O    6.198803   6.019206   4.039342   7.020674   5.984925
    28  O    4.267433   2.953945   2.352284   4.949080   4.123486
                   11         12         13         14         15
    11  O    0.000000
    12  C    3.221988   0.000000
    13  H    2.492915   2.145004   0.000000
    14  O    3.847466   1.412978   3.372833   0.000000
    15  H    3.008975   1.099789   2.439203   2.032205   0.000000
    16  H    4.151755   1.104883   2.464031   2.080691   1.785142
    17  H    0.961119   3.920398   3.435777   4.288456   3.661514
    18  H    2.177447   4.417035   2.721188   5.210946   4.562664
    19  H    4.078428   1.929657   3.497634   0.966913   2.801727
    20  C    5.310363   4.065049   4.707659   3.448269   5.057042
    21  N    6.401806   5.182054   6.027117   4.302869   6.123546
    22  C    6.871334   6.233142   6.884744   5.351484   7.098069
    23  N    6.355214   6.328037   6.597237   5.648535   7.139811
    24  C    5.276486   5.495120   5.437860   5.080568   6.297567
    25  H    5.363911   3.484780   4.343841   2.949091   4.544062
    26  H    7.086141   5.486625   6.587790   4.485853   6.423710
    27  O    7.969049   7.223704   8.045414   6.207658   8.062509
    28  O    5.197393   6.053203   5.584560   5.851122   6.759519
                   16         17         18         19         20
    16  H    0.000000
    17  H    4.930218   0.000000
    18  H    5.059483   2.646162   0.000000
    19  H    2.462017   4.502028   5.121260   0.000000
    20  C    4.390705   5.627254   5.513805   2.484418   0.000000
    21  N    5.517332   6.585207   6.700831   3.376957   1.359499
    22  C    6.708770   6.887979   7.047983   4.466566   2.437560
    23  N    6.908472   6.305126   6.267365   4.792386   2.780875
    24  C    6.088807   5.318804   4.966107   4.257333   2.428048
    25  H    3.586987   5.822895   5.680822   2.027427   1.091632
    26  H    5.708352   7.294150   7.533938   3.623326   2.075089
    27  O    7.676744   7.927581   8.252666   5.367191   3.514865
    28  O    6.695640   5.172992   4.501622   5.119282   3.546026
                   21         22         23         24         25
    21  N    0.000000
    22  C    1.418367   0.000000
    23  N    2.365337   1.343746   0.000000
    24  C    2.728438   2.364473   1.359030   0.000000
    25  H    2.094353   3.400135   3.868724   3.449505   0.000000
    26  H    1.007955   2.063382   3.247603   3.734134   2.389054
    27  O    2.254691   1.239879   2.305919   3.530251   4.348582
    28  O    3.972986   3.507210   2.282534   1.247645   4.478672
                   26         27         28
    26  H    0.000000
    27  O    2.401689   0.000000
    28  O    4.978980   4.584050   0.000000
 Stoichiometry    C9H11N2O6(2)
 Framework group  C1[X(C9H11N2O6)]
 Deg. of freedom    78
 Full point group                 C1      NOp   1
 Largest Abelian subgroup         C1      NOp   1
 Largest concise Abelian subgroup C1      NOp   1
                         Standard orientation:                         
 ---------------------------------------------------------------------
 Center     Atomic      Atomic             Coordinates (Angstroms)
 Number     Number       Type             X           Y           Z
 ---------------------------------------------------------------------
      1          6           0       -2.036822   -0.209471    0.774639
      2          6           0       -1.351534   -1.380241    0.078897
      3          6           0       -0.516383   -0.656074   -0.972194
      4          8           0       -2.331550   -2.174832   -0.578074
      5          1           0       -0.712834   -1.993027    0.726651
      6          8           0       -1.281616    0.528290   -1.313739
      7          1           0       -0.468555   -1.293276   -1.867351
      8          6           0        0.866548   -0.273891   -0.518573
      9          6           0       -2.354864    0.708173   -0.399246
     10          1           0       -1.334703    0.286795    1.459443
     11          8           0       -3.239606   -0.566073    1.450833
     12          6           0       -2.463454    2.177941   -0.048894
     13          1           0       -3.305912    0.377769   -0.855547
     14          8           0       -1.325074    2.668524    0.629285
     15          1           0       -3.327695    2.323301    0.615556
     16          1           0       -2.644152    2.748119   -0.977878
     17          1           0       -2.996792   -0.901294    2.318253
     18          1           0       -3.095802   -2.193185    0.011006
     19          1           0       -0.554481    2.247941    0.224048
     20          6           0        1.361882    0.971193   -0.708584
     21          7           0        2.631023    1.269868   -0.323470
     22          6           0        3.478083    0.329608    0.316971
     23          7           0        3.026581   -0.928498    0.454694
     24          6           0        1.789441   -1.300925    0.033096
     25          1           0        0.796754    1.761110   -1.206903
     26          1           0        3.010426    2.198471   -0.422078
     27          8           0        4.581240    0.758746    0.686004
     28          8           0        1.395748   -2.483428    0.090634
 ---------------------------------------------------------------------
 Rotational constants (GHZ):           0.7947223           0.3321871           0.2667306
 Standard basis: Aug-CC-pVDZ (5D, 7F)
 There are   524 symmetry adapted cartesian basis functions of A   symmetry.
 There are   490 symmetry adapted basis functions of A   symmetry.
   490 basis functions,   852 primitive gaussians,   524 cartesian basis functions
    64 alpha electrons       63 beta electrons
       nuclear repulsion energy      1303.2964953892 Hartrees.
 NAtoms=   28 NActive=   28 NUniq=   28 SFac= 1.00D+00 NAtFMM=   60 NAOKFM=F Big=F
 Integral buffers will be    131072 words long.
 Raffenetti 2 integral format.
 Two-electron integral symmetry is turned on.
 Nuclear repulsion after empirical dispersion term =     1303.2764648556 Hartrees.
 One-electron integrals computed using PRISM.
 NBasis=   490 RedAO= T EigKep=  2.77D-06  NBF=   490
 NBsUse=   490 1.00D-06 EigRej= -1.00D+00 NBFU=   490
 ExpMin= 2.97D-02 ExpMax= 1.17D+04 ExpMxC= 4.01D+02 IAcc=3 IRadAn=         5 AccDes= 0.00D+00
 Harris functional with IExCor= 1009 and IRadAn=       5 diagonalized for initial guess.
 HarFok:  IExCor= 1009 AccDes= 0.00D+00 IRadAn=         5 IDoV= 1 UseB2=F ITyADJ=14
 ICtDFT=  3500011 ScaDFX=  1.000000  1.000000  1.000000  1.000000
 FoFCou: FMM=F IPFlag=           0 FMFlag=      100000 FMFlg1=           0
         NFxFlg=           0 DoJE=T BraDBF=F KetDBF=T FulRan=T
         wScrn=  0.000000 ICntrl=       500 IOpCl=  0 I1Cent=   200000004 NGrid=           0
         NMat0=    1 NMatS0=      1 NMatT0=    0 NMatD0=    1 NMtDS0=    0 NMtDT0=    0
 Petite list used in FoFCou.
 Initial guess <Sx>= 0.0000 <Sy>= 0.0000 <Sz>= 0.5000 <S**2>= 0.7500 S= 0.5000
 Requested convergence on RMS density matrix=1.00D-08 within 128 cycles.
 Requested convergence on MAX density matrix=1.00D-06.
 Requested convergence on             energy=1.00D-06.
 No special actions if energy rises.
 Restarting incremental Fock formation.
 SCF Done:  E(UPBE1PBE) =  -909.511172775     A.U. after   32 cycles
            NFock= 32  Conv=0.95D-08     -V/T= 2.0054
 <Sx>= 0.0000 <Sy>= 0.0000 <Sz>= 0.5000 <S**2>= 0.7766 S= 0.5132
 <L.S>= 0.000000000000E+00
 Annihilation of the first spin contaminant:
 S**2 before annihilation     0.7766,   after     0.7504

 **********************************************************************

            Population analysis using the SCF Density.

 **********************************************************************

 Orbital symmetries:
 Alpha Orbitals:
       Occupied  (A) (A) (A) (A) (A) (A) (A) (A) (A) (A) (A) (A)
                 (A) (A) (A) (A) (A) (A) (A) (A) (A) (A) (A) (A)
                 (A) (A) (A) (A) (A) (A) (A) (A) (A) (A) (A) (A)
                 (A) (A) (A) (A) (A) (A) (A) (A) (A) (A) (A) (A)
                 (A) (A) (A) (A) (A) (A) (A) (A) (A) (A) (A) (A)
                 (A) (A) (A) (A)
       Virtual   (A) (A) (A) (A) (A) (A) (A) (A) (A) (A) (A) (A)
                 (A) (A) (A) (A) (A) (A) (A) (A) (A) (A) (A) (A)
                 (A) (A) (A) (A) (A) (A) (A) (A) (A) (A) (A) (A)
                 (A) (A) (A) (A) (A) (A) (A) (A) (A) (A) (A) (A)
                 (A) (A) (A) (A) (A) (A) (A) (A) (A) (A) (A) (A)
                 (A) (A) (A) (A) (A) (A) (A) (A) (A) (A) (A) (A)
                 (A) (A) (A) (A) (A) (A) (A) (A) (A) (A) (A) (A)
                 (A) (A) (A) (A) (A) (A) (A) (A) (A) (A) (A) (A)
                 (A) (A) (A) (A) (A) (A) (A) (A) (A) (A) (A) (A)
                 (A) (A) (A) (A) (A) (A) (A) (A) (A) (A) (A) (A)
                 (A) (A) (A) (A) (A) (A) (A) (A) (A) (A) (A) (A)
                 (A) (A) (A) (A) (A) (A) (A) (A) (A) (A) (A) (A)
                 (A) (A) (A) (A) (A) (A) (A) (A) (A) (A) (A) (A)
                 (A) (A) (A) (A) (A) (A) (A) (A) (A) (A) (A) (A)
                 (A) (A) (A) (A) (A) (A) (A) (A) (A) (A) (A) (A)
                 (A) (A) (A) (A) (A) (A) (A) (A) (A) (A) (A) (A)
                 (A) (A) (A) (A) (A) (A) (A) (A) (A) (A) (A) (A)
                 (A) (A) (A) (A) (A) (A) (A) (A) (A) (A) (A) (A)
                 (A) (A) (A) (A) (A) (A) (A) (A) (A) (A) (A) (A)
                 (A) (A) (A) (A) (A) (A) (A) (A) (A) (A) (A) (A)
                 (A) (A) (A) (A) (A) (A) (A) (A) (A) (A) (A) (A)
                 (A) (A) (A) (A) (A) (A) (A) (A) (A) (A) (A) (A)
                 (A) (A) (A) (A) (A) (A) (A) (A) (A) (A) (A) (A)
                 (A) (A) (A) (A) (A) (A) (A) (A) (A) (A) (A) (A)
                 (A) (A) (A) (A) (A) (A) (A) (A) (A) (A) (A) (A)
                 (A) (A) (A) (A) (A) (A) (A) (A) (A) (A) (A) (A)
                 (A) (A) (A) (A) (A) (A) (A) (A) (A) (A) (A) (A)
                 (A) (A) (A) (A) (A) (A) (A) (A) (A) (A) (A) (A)
                 (A) (A) (A) (A) (A) (A) (A) (A) (A) (A) (A) (A)
                 (A) (A) (A) (A) (A) (A) (A) (A) (A) (A) (A) (A)
                 (A) (A) (A) (A) (A) (A) (A) (A) (A) (A) (A) (A)
                 (A) (A) (A) (A) (A) (A) (A) (A) (A) (A) (A) (A)
                 (A) (A) (A) (A) (A) (A) (A) (A) (A) (A) (A) (A)
                 (A) (A) (A) (A) (A) (A) (A) (A) (A) (A) (A) (A)
                 (A) (A) (A) (A) (A) (A) (A) (A) (A) (A) (A) (A)
                 (A) (A) (A) (A) (A) (A)
 Beta  Orbitals:
       Occupied  (A) (A) (A) (A) (A) (A) (A) (A) (A) (A) (A) (A)
                 (A) (A) (A) (A) (A) (A) (A) (A) (A) (A) (A) (A)
                 (A) (A) (A) (A) (A) (A) (A) (A) (A) (A) (A) (A)
                 (A) (A) (A) (A) (A) (A) (A) (A) (A) (A) (A) (A)
                 (A) (A) (A) (A) (A) (A) (A) (A) (A) (A) (A) (A)
                 (A) (A) (A)
       Virtual   (A) (A) (A) (A) (A) (A) (A) (A) (A) (A) (A) (A)
                 (A) (A) (A) (A) (A) (A) (A) (A) (A) (A) (A) (A)
                 (A) (A) (A) (A) (A) (A) (A) (A) (A) (A) (A) (A)
                 (A) (A) (A) (A) (A) (A) (A) (A) (A) (A) (A) (A)
                 (A) (A) (A) (A) (A) (A) (A) (A) (A) (A) (A) (A)
                 (A) (A) (A) (A) (A) (A) (A) (A) (A) (A) (A) (A)
                 (A) (A) (A) (A) (A) (A) (A) (A) (A) (A) (A) (A)
                 (A) (A) (A) (A) (A) (A) (A) (A) (A) (A) (A) (A)
                 (A) (A) (A) (A) (A) (A) (A) (A) (A) (A) (A) (A)
                 (A) (A) (A) (A) (A) (A) (A) (A) (A) (A) (A) (A)
                 (A) (A) (A) (A) (A) (A) (A) (A) (A) (A) (A) (A)
                 (A) (A) (A) (A) (A) (A) (A) (A) (A) (A) (A) (A)
                 (A) (A) (A) (A) (A) (A) (A) (A) (A) (A) (A) (A)
                 (A) (A) (A) (A) (A) (A) (A) (A) (A) (A) (A) (A)
                 (A) (A) (A) (A) (A) (A) (A) (A) (A) (A) (A) (A)
                 (A) (A) (A) (A) (A) (A) (A) (A) (A) (A) (A) (A)
                 (A) (A) (A) (A) (A) (A) (A) (A) (A) (A) (A) (A)
                 (A) (A) (A) (A) (A) (A) (A) (A) (A) (A) (A) (A)
                 (A) (A) (A) (A) (A) (A) (A) (A) (A) (A) (A) (A)
                 (A) (A) (A) (A) (A) (A) (A) (A) (A) (A) (A) (A)
                 (A) (A) (A) (A) (A) (A) (A) (A) (A) (A) (A) (A)
                 (A) (A) (A) (A) (A) (A) (A) (A) (A) (A) (A) (A)
                 (A) (A) (A) (A) (A) (A) (A) (A) (A) (A) (A) (A)
                 (A) (A) (A) (A) (A) (A) (A) (A) (A) (A) (A) (A)
                 (A) (A) (A) (A) (A) (A) (A) (A) (A) (A) (A) (A)
                 (A) (A) (A) (A) (A) (A) (A) (A) (A) (A) (A) (A)
                 (A) (A) (A) (A) (A) (A) (A) (A) (A) (A) (A) (A)
                 (A) (A) (A) (A) (A) (A) (A) (A) (A) (A) (A) (A)
                 (A) (A) (A) (A) (A) (A) (A) (A) (A) (A) (A) (A)
                 (A) (A) (A) (A) (A) (A) (A) (A) (A) (A) (A) (A)
                 (A) (A) (A) (A) (A) (A) (A) (A) (A) (A) (A) (A)
                 (A) (A) (A) (A) (A) (A) (A) (A) (A) (A) (A) (A)
                 (A) (A) (A) (A) (A) (A) (A) (A) (A) (A) (A) (A)
                 (A) (A) (A) (A) (A) (A) (A) (A) (A) (A) (A) (A)
                 (A) (A) (A) (A) (A) (A) (A) (A) (A) (A) (A) (A)
                 (A) (A) (A) (A) (A) (A) (A)
 The electronic state is 2-A.
 Alpha  occ. eigenvalues --  -19.28809 -19.26932 -19.26518 -19.24814 -19.23834
 Alpha  occ. eigenvalues --  -19.20028 -14.51314 -14.43584 -10.40727 -10.35556
 Alpha  occ. eigenvalues --  -10.35450 -10.32730 -10.31198 -10.31164 -10.30550
 Alpha  occ. eigenvalues --  -10.30329 -10.29576  -1.15713  -1.12157  -1.09543
 Alpha  occ. eigenvalues --   -1.07798  -1.07484  -1.06337  -1.04693  -0.96113
 Alpha  occ. eigenvalues --   -0.88265  -0.82406  -0.80767  -0.73898  -0.70471
 Alpha  occ. eigenvalues --   -0.69710  -0.65954  -0.63511  -0.62093  -0.60270
 Alpha  occ. eigenvalues --   -0.58089  -0.56142  -0.54576  -0.53708  -0.53232
 Alpha  occ. eigenvalues --   -0.51907  -0.50957  -0.50572  -0.50081  -0.47944
 Alpha  occ. eigenvalues --   -0.46845  -0.44679  -0.44258  -0.44078  -0.42762
 Alpha  occ. eigenvalues --   -0.42156  -0.41096  -0.38369  -0.38021  -0.37084
 Alpha  occ. eigenvalues --   -0.36414  -0.33787  -0.32736  -0.32293  -0.31723
 Alpha  occ. eigenvalues --   -0.30810  -0.30123  -0.29009  -0.27862
 Alpha virt. eigenvalues --   -0.07320  -0.03155  -0.02674  -0.01788   0.00001
 Alpha virt. eigenvalues --    0.00837   0.01178   0.01830   0.02513   0.03299
 Alpha virt. eigenvalues --    0.04059   0.04569   0.04900   0.05352   0.05521
 Alpha virt. eigenvalues --    0.06046   0.06359   0.06836   0.07302   0.08021
 Alpha virt. eigenvalues --    0.08184   0.08707   0.08957   0.09446   0.09691
 Alpha virt. eigenvalues --    0.09801   0.10434   0.10661   0.10779   0.11242
 Alpha virt. eigenvalues --    0.11308   0.11713   0.12068   0.12172   0.12532
 Alpha virt. eigenvalues --    0.12958   0.13123   0.13556   0.14248   0.14415
 Alpha virt. eigenvalues --    0.15003   0.15291   0.15764   0.16135   0.16482
 Alpha virt. eigenvalues --    0.16835   0.17296   0.17472   0.18020   0.18252
 Alpha virt. eigenvalues --    0.18677   0.19067   0.19627   0.20007   0.20221
 Alpha virt. eigenvalues --    0.20395   0.21270   0.21407   0.21862   0.22065
 Alpha virt. eigenvalues --    0.22293   0.22642   0.22935   0.23482   0.23844
 Alpha virt. eigenvalues --    0.24326   0.24591   0.24676   0.25243   0.25663
 Alpha virt. eigenvalues --    0.25786   0.26107   0.26364   0.26597   0.27139
 Alpha virt. eigenvalues --    0.27412   0.27526   0.28194   0.28602   0.28905
 Alpha virt. eigenvalues --    0.29360   0.29643   0.29736   0.30161   0.30598
 Alpha virt. eigenvalues --    0.31194   0.31728   0.31943   0.32070   0.32380
 Alpha virt. eigenvalues --    0.32831   0.33705   0.34004   0.34496   0.35152
 Alpha virt. eigenvalues --    0.35535   0.35670   0.36324   0.36629   0.37150
 Alpha virt. eigenvalues --    0.37252   0.37925   0.38333   0.39303   0.39789
 Alpha virt. eigenvalues --    0.39965   0.40525   0.41046   0.41519   0.41969
 Alpha virt. eigenvalues --    0.42497   0.42763   0.43430   0.43960   0.44176
 Alpha virt. eigenvalues --    0.44585   0.44790   0.45928   0.46122   0.46993
 Alpha virt. eigenvalues --    0.47485   0.47718   0.48785   0.49606   0.49720
 Alpha virt. eigenvalues --    0.50271   0.51110   0.51536   0.52149   0.52714
 Alpha virt. eigenvalues --    0.53278   0.53603   0.54039   0.54514   0.55022
 Alpha virt. eigenvalues --    0.55736   0.56281   0.56734   0.57179   0.57409
 Alpha virt. eigenvalues --    0.57787   0.58487   0.58746   0.59609   0.59913
 Alpha virt. eigenvalues --    0.60585   0.61364   0.61744   0.62248   0.62893
 Alpha virt. eigenvalues --    0.63586   0.64519   0.64723   0.65090   0.65596
 Alpha virt. eigenvalues --    0.66097   0.66314   0.66799   0.67596   0.67888
 Alpha virt. eigenvalues --    0.68525   0.69747   0.69957   0.70329   0.70743
 Alpha virt. eigenvalues --    0.71326   0.72387   0.72738   0.73488   0.73762
 Alpha virt. eigenvalues --    0.73847   0.74636   0.75116   0.75532   0.76527
 Alpha virt. eigenvalues --    0.76992   0.77464   0.77977   0.78977   0.79087
 Alpha virt. eigenvalues --    0.80065   0.80359   0.81793   0.82397   0.83856
 Alpha virt. eigenvalues --    0.84246   0.84676   0.85595   0.85692   0.86239
 Alpha virt. eigenvalues --    0.86905   0.88639   0.88870   0.90050   0.90656
 Alpha virt. eigenvalues --    0.91695   0.92656   0.93286   0.94033   0.94518
 Alpha virt. eigenvalues --    0.95325   0.96103   0.96232   0.97369   0.98406
 Alpha virt. eigenvalues --    0.99539   1.00319   1.01730   1.02719   1.03009
 Alpha virt. eigenvalues --    1.03602   1.04896   1.05581   1.07016   1.07156
 Alpha virt. eigenvalues --    1.09054   1.09353   1.09523   1.10479   1.11401
 Alpha virt. eigenvalues --    1.11861   1.12285   1.13039   1.13523   1.14345
 Alpha virt. eigenvalues --    1.15338   1.16470   1.17614   1.19261   1.20147
 Alpha virt. eigenvalues --    1.20754   1.21275   1.22738   1.23749   1.24280
 Alpha virt. eigenvalues --    1.25224   1.25711   1.26784   1.27688   1.28560
 Alpha virt. eigenvalues --    1.30893   1.31088   1.31889   1.32297   1.34231
 Alpha virt. eigenvalues --    1.35418   1.35556   1.36664   1.38097   1.39005
 Alpha virt. eigenvalues --    1.39425   1.40619   1.41217   1.42721   1.42961
 Alpha virt. eigenvalues --    1.44178   1.46352   1.46726   1.48393   1.48520
 Alpha virt. eigenvalues --    1.49311   1.49776   1.50314   1.51867   1.52074
 Alpha virt. eigenvalues --    1.53501   1.55608   1.56957   1.57287   1.57957
 Alpha virt. eigenvalues --    1.58887   1.59219   1.60243   1.61731   1.61848
 Alpha virt. eigenvalues --    1.63006   1.64007   1.65434   1.67414   1.67765
 Alpha virt. eigenvalues --    1.68872   1.69499   1.70987   1.71851   1.72980
 Alpha virt. eigenvalues --    1.73910   1.74957   1.75363   1.77193   1.78462
 Alpha virt. eigenvalues --    1.78929   1.79342   1.80051   1.80871   1.81716
 Alpha virt. eigenvalues --    1.82606   1.83471   1.83732   1.86188   1.87384
 Alpha virt. eigenvalues --    1.88285   1.89031   1.90342   1.91519   1.92525
 Alpha virt. eigenvalues --    1.93281   1.94297   1.94509   1.96753   1.97186
 Alpha virt. eigenvalues --    1.98231   1.99476   2.00359   2.00975   2.02123
 Alpha virt. eigenvalues --    2.02720   2.03814   2.04631   2.05285   2.06893
 Alpha virt. eigenvalues --    2.08039   2.09151   2.10376   2.11032   2.12384
 Alpha virt. eigenvalues --    2.13204   2.14042   2.16424   2.17271   2.18166
 Alpha virt. eigenvalues --    2.18903   2.21085   2.22232   2.22743   2.24119
 Alpha virt. eigenvalues --    2.25444   2.26814   2.27961   2.28549   2.30222
 Alpha virt. eigenvalues --    2.31632   2.32270   2.35008   2.35936   2.37365
 Alpha virt. eigenvalues --    2.38932   2.39799   2.40529   2.41946   2.42837
 Alpha virt. eigenvalues --    2.45399   2.46363   2.47137   2.47693   2.48424
 Alpha virt. eigenvalues --    2.50182   2.52887   2.53375   2.54488   2.56600
 Alpha virt. eigenvalues --    2.58488   2.58992   2.60550   2.63512   2.65605
 Alpha virt. eigenvalues --    2.67432   2.68705   2.69932   2.73313   2.74059
 Alpha virt. eigenvalues --    2.75958   2.76650   2.79877   2.81672   2.84063
 Alpha virt. eigenvalues --    2.85089   2.88079   2.89230   2.90768   2.91902
 Alpha virt. eigenvalues --    2.95273   2.97205   2.99864   3.01591   3.09003
 Alpha virt. eigenvalues --    3.17115   3.20971   3.23407   3.28743   3.29242
 Alpha virt. eigenvalues --    3.33327   3.34384   3.36501   3.36922   3.42550
 Alpha virt. eigenvalues --    3.43248   3.46196   3.48164   3.49014   3.49553
 Alpha virt. eigenvalues --    3.50225   3.51328   3.52402   3.55150   3.56153
 Alpha virt. eigenvalues --    3.58428   3.60010   3.60722   3.61868   3.62991
 Alpha virt. eigenvalues --    3.64720   3.67144   3.68878   3.69468   3.73510
 Alpha virt. eigenvalues --    3.75395   3.78475   3.79854   3.83823   3.95625
 Alpha virt. eigenvalues --    3.98665   4.01868   4.07239   4.17109   4.30613
 Alpha virt. eigenvalues --    4.64506
  Beta  occ. eigenvalues --  -19.27509 -19.26922 -19.26518 -19.24809 -19.23835
  Beta  occ. eigenvalues --  -19.20093 -14.51020 -14.42968 -10.40986 -10.35638
  Beta  occ. eigenvalues --  -10.35371 -10.32739 -10.31190 -10.30827 -10.30550
  Beta  occ. eigenvalues --  -10.30291 -10.29576  -1.13807  -1.12130  -1.09520
  Beta  occ. eigenvalues --   -1.07750  -1.07089  -1.06327  -1.03799  -0.94874
  Beta  occ. eigenvalues --   -0.87431  -0.82370  -0.80488  -0.73713  -0.70239
  Beta  occ. eigenvalues --   -0.69426  -0.65817  -0.63427  -0.61832  -0.60036
  Beta  occ. eigenvalues --   -0.58008  -0.56051  -0.54467  -0.52606  -0.51799
  Beta  occ. eigenvalues --   -0.51731  -0.50560  -0.50005  -0.49794  -0.47491
  Beta  occ. eigenvalues --   -0.46713  -0.44261  -0.44070  -0.42830  -0.41635
  Beta  occ. eigenvalues --   -0.41128  -0.39628  -0.38219  -0.37960  -0.37038
  Beta  occ. eigenvalues --   -0.35171  -0.32899  -0.32187  -0.31583  -0.30797
  Beta  occ. eigenvalues --   -0.30001  -0.27776  -0.27025
  Beta virt. eigenvalues --   -0.21913  -0.05843  -0.02753  -0.01786  -0.01592
  Beta virt. eigenvalues --    0.00022   0.00915   0.01262   0.01868   0.02581
  Beta virt. eigenvalues --    0.03308   0.04064   0.04602   0.04921   0.05386
  Beta virt. eigenvalues --    0.05550   0.06093   0.06391   0.06865   0.07352
  Beta virt. eigenvalues --    0.08037   0.08339   0.08956   0.09157   0.09508
  Beta virt. eigenvalues --    0.09753   0.10131   0.10481   0.10774   0.10905
  Beta virt. eigenvalues --    0.11322   0.11458   0.11731   0.12156   0.12269
  Beta virt. eigenvalues --    0.12577   0.13004   0.13173   0.13572   0.14296
  Beta virt. eigenvalues --    0.14450   0.15041   0.15313   0.15783   0.16158
  Beta virt. eigenvalues --    0.16566   0.16954   0.17377   0.17508   0.18102
  Beta virt. eigenvalues --    0.18376   0.18778   0.19186   0.19671   0.20081
  Beta virt. eigenvalues --    0.20287   0.20456   0.21369   0.21494   0.21934
  Beta virt. eigenvalues --    0.22142   0.22350   0.22723   0.23034   0.23546
  Beta virt. eigenvalues --    0.23910   0.24476   0.24693   0.24901   0.25293
  Beta virt. eigenvalues --    0.25787   0.25850   0.26175   0.26499   0.26740
  Beta virt. eigenvalues --    0.27216   0.27518   0.27614   0.28317   0.28647
  Beta virt. eigenvalues --    0.28940   0.29432   0.29720   0.29821   0.30302
  Beta virt. eigenvalues --    0.30653   0.31238   0.31798   0.32010   0.32122
  Beta virt. eigenvalues --    0.32427   0.32911   0.33719   0.34051   0.34564
  Beta virt. eigenvalues --    0.35276   0.35577   0.35743   0.36406   0.36722
  Beta virt. eigenvalues --    0.37251   0.37301   0.38049   0.38414   0.39415
  Beta virt. eigenvalues --    0.39857   0.40062   0.40607   0.41088   0.41680
  Beta virt. eigenvalues --    0.42041   0.42577   0.42877   0.43495   0.44053
  Beta virt. eigenvalues --    0.44252   0.44641   0.44898   0.45977   0.46173
  Beta virt. eigenvalues --    0.47045   0.47557   0.47882   0.48901   0.49723
  Beta virt. eigenvalues --    0.49822   0.50388   0.51202   0.51660   0.52209
  Beta virt. eigenvalues --    0.52844   0.53354   0.53717   0.54136   0.54605
  Beta virt. eigenvalues --    0.55072   0.55802   0.56337   0.56881   0.57251
  Beta virt. eigenvalues --    0.57489   0.58011   0.58630   0.58841   0.59738
  Beta virt. eigenvalues --    0.59967   0.60804   0.61462   0.61883   0.62345
  Beta virt. eigenvalues --    0.63151   0.63705   0.64624   0.64853   0.65198
  Beta virt. eigenvalues --    0.65668   0.66190   0.66464   0.66876   0.67650
  Beta virt. eigenvalues --    0.68018   0.68692   0.69854   0.70000   0.70407
  Beta virt. eigenvalues --    0.70815   0.71400   0.72500   0.72814   0.73552
  Beta virt. eigenvalues --    0.73956   0.74030   0.74735   0.75489   0.75660
  Beta virt. eigenvalues --    0.76698   0.77068   0.77611   0.78067   0.79100
  Beta virt. eigenvalues --    0.79356   0.80170   0.80439   0.81996   0.82482
  Beta virt. eigenvalues --    0.83952   0.84436   0.84765   0.85722   0.85846
  Beta virt. eigenvalues --    0.86528   0.87011   0.88763   0.88972   0.90244
  Beta virt. eigenvalues --    0.90795   0.91849   0.92998   0.93474   0.94130
  Beta virt. eigenvalues --    0.94650   0.95647   0.96305   0.96569   0.97537
  Beta virt. eigenvalues --    0.98731   0.99739   1.00765   1.02066   1.02974
  Beta virt. eigenvalues --    1.03178   1.03804   1.05478   1.05837   1.07142
  Beta virt. eigenvalues --    1.07281   1.09326   1.09501   1.09694   1.10577
  Beta virt. eigenvalues --    1.11687   1.12176   1.12372   1.13117   1.13690
  Beta virt. eigenvalues --    1.14499   1.15547   1.16547   1.17717   1.19469
  Beta virt. eigenvalues --    1.20394   1.20996   1.21341   1.22875   1.23976
  Beta virt. eigenvalues --    1.24344   1.25302   1.25819   1.26923   1.27776
  Beta virt. eigenvalues --    1.28681   1.30934   1.31189   1.31999   1.32487
  Beta virt. eigenvalues --    1.34284   1.35560   1.35773   1.36835   1.38255
  Beta virt. eigenvalues --    1.39553   1.39606   1.40825   1.41477   1.42971
  Beta virt. eigenvalues --    1.43515   1.44447   1.46604   1.46970   1.48555
  Beta virt. eigenvalues --    1.48864   1.49700   1.50224   1.50538   1.52200
  Beta virt. eigenvalues --    1.52748   1.53861   1.55693   1.57155   1.57519
  Beta virt. eigenvalues --    1.58082   1.59069   1.59449   1.60394   1.61953
  Beta virt. eigenvalues --    1.61981   1.63158   1.64240   1.65674   1.67538
  Beta virt. eigenvalues --    1.67889   1.69061   1.69596   1.71171   1.71958
  Beta virt. eigenvalues --    1.73237   1.74058   1.75101   1.75478   1.77397
  Beta virt. eigenvalues --    1.78539   1.79047   1.79432   1.80109   1.81045
  Beta virt. eigenvalues --    1.81779   1.82735   1.83556   1.83802   1.86348
  Beta virt. eigenvalues --    1.87520   1.88301   1.89188   1.90510   1.91629
  Beta virt. eigenvalues --    1.92686   1.93382   1.94554   1.94652   1.96818
  Beta virt. eigenvalues --    1.97269   1.98458   1.99671   2.00448   2.01097
  Beta virt. eigenvalues --    2.02174   2.02962   2.04059   2.04788   2.05470
  Beta virt. eigenvalues --    2.07034   2.08147   2.09302   2.10517   2.11150
  Beta virt. eigenvalues --    2.12479   2.13389   2.14227   2.16649   2.17500
  Beta virt. eigenvalues --    2.18368   2.19081   2.21264   2.22413   2.22841
  Beta virt. eigenvalues --    2.24245   2.25581   2.26884   2.28038   2.28813
  Beta virt. eigenvalues --    2.30316   2.31738   2.32354   2.35159   2.36041
  Beta virt. eigenvalues --    2.37663   2.39245   2.40009   2.41249   2.42102
  Beta virt. eigenvalues --    2.43021   2.45552   2.46692   2.47323   2.48105
  Beta virt. eigenvalues --    2.49115   2.50453   2.53056   2.53712   2.55026
  Beta virt. eigenvalues --    2.56846   2.58697   2.59125   2.60972   2.64040
  Beta virt. eigenvalues --    2.66050   2.67577   2.68852   2.70034   2.73398
  Beta virt. eigenvalues --    2.74099   2.76092   2.76718   2.79986   2.81799
  Beta virt. eigenvalues --    2.84518   2.85188   2.88479   2.89352   2.91096
  Beta virt. eigenvalues --    2.92235   2.95517   2.97501   3.00036   3.01905
  Beta virt. eigenvalues --    3.09302   3.17169   3.21127   3.23867   3.28812
  Beta virt. eigenvalues --    3.32622   3.33692   3.35803   3.38553   3.39723
  Beta virt. eigenvalues --    3.42635   3.43335   3.46105   3.48278   3.49027
  Beta virt. eigenvalues --    3.49523   3.50392   3.51327   3.52588   3.55228
  Beta virt. eigenvalues --    3.56183   3.58612   3.60029   3.60740   3.62094
  Beta virt. eigenvalues --    3.63073   3.64741   3.67562   3.68930   3.69545
  Beta virt. eigenvalues --    3.73571   3.76386   3.78508   3.79981   3.83839
  Beta virt. eigenvalues --    3.95672   3.98981   4.01896   4.07268   4.17146
  Beta virt. eigenvalues --    4.30653   4.64577
          Condensed to atoms (all electrons):
               1          2          3          4          5          6
     1  C   10.178212  -2.884152   1.306115   0.183734   0.437080  -0.130024
     2  C   -2.884152  10.156171  -2.614153  -0.630934  -1.193901  -0.002363
     3  C    1.306115  -2.614153  13.846565   0.246902   0.302972   0.295275
     4  O    0.183734  -0.630934   0.246902   8.753680  -0.089021   0.000320
     5  H    0.437080  -1.193901   0.302972  -0.089021   2.218384   0.044310
     6  O   -0.130024  -0.002363   0.295275   0.000320   0.044310   9.411022
     7  H    0.010144   0.252696  -1.013426  -0.046089   0.004112  -0.210920
     8  C   -0.236559   0.757531  -1.766025  -0.014546  -0.300166  -0.156034
     9  C   -2.300859   0.212331  -2.712919   0.005530   0.227602  -0.244080
    10  H   -1.047740   0.600022   0.001376  -0.006482  -0.152374   0.060995
    11  O   -0.549508   0.270684   0.062876  -0.019069  -0.050506   0.012544
    12  C    0.016014  -0.222694   0.384982   0.022723  -0.003181  -0.078741
    13  H    0.637713  -0.356176   0.453520   0.027195   0.007953  -0.022906
    14  O   -0.131745   0.079982  -0.017159  -0.001412  -0.002848  -0.016055
    15  H    0.001199   0.046280   0.029573  -0.000318   0.001668   0.087839
    16  H   -0.056760   0.019174  -0.050939  -0.000493   0.000062  -0.071803
    17  H    0.273575  -0.222324   0.013536   0.010189   0.022212  -0.004475
    18  H   -0.193587   0.150884  -0.035058   0.294924  -0.022836   0.008118
    19  H   -0.011132   0.002310   0.027030  -0.000822  -0.000825   0.026577
    20  C    0.051576  -0.261641  -1.640486  -0.002411   0.060898  -0.041117
    21  N   -0.012512   0.006561   0.155341  -0.000023  -0.005560  -0.000594
    22  C   -0.023233   0.050915  -0.221486   0.000622  -0.002534  -0.001680
    23  N    0.006275   0.014352   0.063854  -0.002014  -0.008247   0.000955
    24  C   -0.158241   0.348521  -1.851525  -0.003580  -0.019612  -0.056183
    25  H    0.041869   0.009112   0.069341   0.000470   0.003175  -0.062726
    26  H   -0.004381  -0.000663  -0.031072  -0.000031  -0.001076   0.000392
    27  O   -0.000696   0.000755   0.010577  -0.000016   0.000241   0.000444
    28  O   -0.010914   0.034136   0.024586  -0.001022  -0.016642   0.000503
               7          8          9         10         11         12
     1  C    0.010144  -0.236559  -2.300859  -1.047740  -0.549508   0.016014
     2  C    0.252696   0.757531   0.212331   0.600022   0.270684  -0.222694
     3  C   -1.013426  -1.766025  -2.712919   0.001376   0.062876   0.384982
     4  O   -0.046089  -0.014546   0.005530  -0.006482  -0.019069   0.022723
     5  H    0.004112  -0.300166   0.227602  -0.152374  -0.050506  -0.003181
     6  O   -0.210920  -0.156034  -0.244080   0.060995   0.012544  -0.078741
     7  H    1.617709   0.326686   0.190321  -0.004465  -0.004605  -0.011416
     8  C    0.326686  11.822582   0.422323  -0.016052  -0.024427   0.004406
     9  C    0.190321   0.422323  11.210035  -0.483477   0.135125  -0.450690
    10  H   -0.004465  -0.016052  -0.483477   2.648712  -0.067445  -0.056124
    11  O   -0.004605  -0.024427   0.135125  -0.067445   8.558052   0.002884
    12  C   -0.011416   0.004406  -0.450690  -0.056124   0.002884   5.152049
    13  H    0.004980  -0.128709  -1.476564   0.100992  -0.049817   0.019236
    14  O   -0.001628   0.033868  -0.046738   0.055721   0.014572   0.125110
    15  H   -0.001818   0.001335  -0.129558  -0.024577   0.016488   0.054758
    16  H    0.000581  -0.001515   0.364277   0.018794   0.002838   0.077754
    17  H    0.000860   0.004383   0.004252  -0.138145   0.305419   0.000990
    18  H   -0.010893  -0.008374  -0.000236   0.026639   0.040327  -0.004894
    19  H   -0.002236  -0.005587  -0.014011  -0.009680   0.000762  -0.047639
    20  C    0.132001  -3.564279   0.385794   0.021636  -0.016476  -0.246633
    21  N   -0.009048   0.119538  -0.011120  -0.005105   0.001076   0.015521
    22  C   -0.003346   0.255479   0.001668  -0.006152   0.000394  -0.003411
    23  N    0.007379   0.274928  -0.013556   0.005414  -0.000315  -0.000956
    24  C    0.018086  -2.767238   0.078451  -0.019725   0.002257  -0.017911
    25  H    0.025074   0.125257  -0.135541   0.002601  -0.001861   0.056431
    26  H   -0.000447   0.011233   0.010111   0.000888  -0.000022  -0.001369
    27  O   -0.000014   0.027780   0.000266   0.000319  -0.000000  -0.000029
    28  O    0.027500  -0.032126   0.015940   0.002030  -0.000245  -0.000634
              13         14         15         16         17         18
     1  C    0.637713  -0.131745   0.001199  -0.056760   0.273575  -0.193587
     2  C   -0.356176   0.079982   0.046280   0.019174  -0.222324   0.150884
     3  C    0.453520  -0.017159   0.029573  -0.050939   0.013536  -0.035058
     4  O    0.027195  -0.001412  -0.000318  -0.000493   0.010189   0.294924
     5  H    0.007953  -0.002848   0.001668   0.000062   0.022212  -0.022836
     6  O   -0.022906  -0.016055   0.087839  -0.071803  -0.004475   0.008118
     7  H    0.004980  -0.001628  -0.001818   0.000581   0.000860  -0.010893
     8  C   -0.128709   0.033868   0.001335  -0.001515   0.004383  -0.008374
     9  C   -1.476564  -0.046738  -0.129558   0.364277   0.004252  -0.000236
    10  H    0.100992   0.055721  -0.024577   0.018794  -0.138145   0.026639
    11  O   -0.049817   0.014572   0.016488   0.002838   0.305419   0.040327
    12  C    0.019236   0.125110   0.054758   0.077754   0.000990  -0.004894
    13  H    2.400550   0.024572  -0.065386  -0.052373  -0.004272  -0.002494
    14  O    0.024572   8.407149  -0.119625  -0.046995  -0.003710   0.000647
    15  H   -0.065386  -0.119625   1.674759  -0.340563  -0.002192   0.000979
    16  H   -0.052373  -0.046995  -0.340563   1.368899  -0.000627  -0.000523
    17  H   -0.004272  -0.003710  -0.002192  -0.000627   0.597607  -0.007056
    18  H   -0.002494   0.000647   0.000979  -0.000523  -0.007056   0.594853
    19  H    0.000796   0.230259   0.011276  -0.039536  -0.001191   0.000339
    20  C    0.012905  -0.050601  -0.003201   0.008273   0.001362  -0.001461
    21  N   -0.001627   0.001014   0.001074  -0.001704   0.000002   0.000137
    22  C   -0.001041   0.001501   0.000392  -0.000103  -0.000189   0.000397
    23  N   -0.000360   0.000833   0.000055  -0.000109  -0.000162   0.000217
    24  C    0.000650  -0.008951  -0.000402  -0.001465  -0.000108   0.005505
    25  H   -0.001135   0.025276   0.002591   0.007076   0.000837   0.000342
    26  H    0.000206  -0.001029   0.000189   0.000158  -0.000071   0.000044
    27  O    0.000005  -0.000086   0.000007  -0.000025  -0.000024  -0.000000
    28  O    0.000012  -0.000032   0.000031  -0.000032  -0.000265   0.000278
              19         20         21         22         23         24
     1  C   -0.011132   0.051576  -0.012512  -0.023233   0.006275  -0.158241
     2  C    0.002310  -0.261641   0.006561   0.050915   0.014352   0.348521
     3  C    0.027030  -1.640486   0.155341  -0.221486   0.063854  -1.851525
     4  O   -0.000822  -0.002411  -0.000023   0.000622  -0.002014  -0.003580
     5  H   -0.000825   0.060898  -0.005560  -0.002534  -0.008247  -0.019612
     6  O    0.026577  -0.041117  -0.000594  -0.001680   0.000955  -0.056183
     7  H   -0.002236   0.132001  -0.009048  -0.003346   0.007379   0.018086
     8  C   -0.005587  -3.564279   0.119538   0.255479   0.274928  -2.767238
     9  C   -0.014011   0.385794  -0.011120   0.001668  -0.013556   0.078451
    10  H   -0.009680   0.021636  -0.005105  -0.006152   0.005414  -0.019725
    11  O    0.000762  -0.016476   0.001076   0.000394  -0.000315   0.002257
    12  C   -0.047639  -0.246633   0.015521  -0.003411  -0.000956  -0.017911
    13  H    0.000796   0.012905  -0.001627  -0.001041  -0.000360   0.000650
    14  O    0.230259  -0.050601   0.001014   0.001501   0.000833  -0.008951
    15  H    0.011276  -0.003201   0.001074   0.000392   0.000055  -0.000402
    16  H   -0.039536   0.008273  -0.001704  -0.000103  -0.000109  -0.001465
    17  H   -0.001191   0.001362   0.000002  -0.000189  -0.000162  -0.000108
    18  H    0.000339  -0.001461   0.000137   0.000397   0.000217   0.005505
    19  H    0.682976  -0.026645   0.004506   0.002871  -0.000120  -0.001120
    20  C   -0.026645  12.895320  -0.701471  -0.439792   0.149718  -0.907888
    21  N    0.004506  -0.701471   7.525546   0.057833  -0.048557   0.098863
    22  C    0.002871  -0.439792   0.057833   6.121237   0.042491  -0.493526
    23  N   -0.000120   0.149718  -0.048557   0.042491   7.932680  -0.705604
    24  C   -0.001120  -0.907888   0.098863  -0.493526  -0.705604  11.880137
    25  H    0.027916  -0.504447   0.042315  -0.004400   0.010319  -0.036904
    26  H   -0.002757  -0.192732   0.428313  -0.196138   0.002971  -0.008595
    27  O   -0.000137   0.035984  -0.146161   0.058808  -0.071003   0.054700
    28  O    0.000474  -0.051235   0.000657   0.038821  -0.108078   0.087769
              25         26         27         28
     1  C    0.041869  -0.004381  -0.000696  -0.010914
     2  C    0.009112  -0.000663   0.000755   0.034136
     3  C    0.069341  -0.031072   0.010577   0.024586
     4  O    0.000470  -0.000031  -0.000016  -0.001022
     5  H    0.003175  -0.001076   0.000241  -0.016642
     6  O   -0.062726   0.000392   0.000444   0.000503
     7  H    0.025074  -0.000447  -0.000014   0.027500
     8  C    0.125257   0.011233   0.027780  -0.032126
     9  C   -0.135541   0.010111   0.000266   0.015940
    10  H    0.002601   0.000888   0.000319   0.002030
    11  O   -0.001861  -0.000022  -0.000000  -0.000245
    12  C    0.056431  -0.001369  -0.000029  -0.000634
    13  H   -0.001135   0.000206   0.000005   0.000012
    14  O    0.025276  -0.001029  -0.000086  -0.000032
    15  H    0.002591   0.000189   0.000007   0.000031
    16  H    0.007076   0.000158  -0.000025  -0.000032
    17  H    0.000837  -0.000071  -0.000024  -0.000265
    18  H    0.000342   0.000044  -0.000000   0.000278
    19  H    0.027916  -0.002757  -0.000137   0.000474
    20  C   -0.504447  -0.192732   0.035984  -0.051235
    21  N    0.042315   0.428313  -0.146161   0.000657
    22  C   -0.004400  -0.196138   0.058808   0.038821
    23  N    0.010319   0.002971  -0.071003  -0.108078
    24  C   -0.036904  -0.008595   0.054700   0.087769
    25  H    1.943989  -0.025425   0.001828  -0.001186
    26  H   -0.025425   1.094101  -0.006076   0.001433
    27  O    0.001828  -0.006076   8.554218  -0.003326
    28  O   -0.001186   0.001433  -0.003326   8.741944
          Atomic-Atomic Spin Densities.
               1          2          3          4          5          6
     1  C    0.083026  -0.063480  -0.068915   0.008963  -0.004867  -0.007183
     2  C   -0.063480   0.076116   0.062659  -0.006955   0.001242   0.001121
     3  C   -0.068915   0.062659  -0.082345  -0.001692   0.000268   0.010251
     4  O    0.008963  -0.006955  -0.001692  -0.000235  -0.000332   0.000091
     5  H   -0.004867   0.001242   0.000268  -0.000332   0.000564  -0.000080
     6  O   -0.007183   0.001121   0.010251   0.000091  -0.000080   0.000776
     7  H    0.018898  -0.026152  -0.065996   0.002605   0.000056  -0.004121
     8  C    0.037249  -0.039916   0.014948  -0.000209  -0.005482  -0.006123
     9  C    0.026669  -0.018220  -0.017925   0.001203  -0.000454  -0.007568
    10  H   -0.009094   0.008009   0.004575  -0.000496   0.000408   0.000488
    11  O   -0.010344   0.006351   0.004587  -0.001177   0.000396   0.000948
    12  C    0.006627  -0.005890  -0.016698   0.000703  -0.000372   0.000679
    13  H   -0.002865   0.002421   0.001920  -0.000398   0.000130  -0.000149
    14  O   -0.002972   0.001577   0.005966  -0.000075   0.000136   0.000447
    15  H    0.000743  -0.000477  -0.000725   0.000046  -0.000046  -0.000022
    16  H    0.000433  -0.000186  -0.000602   0.000026  -0.000004   0.000021
    17  H    0.002204  -0.001388  -0.001827   0.000288  -0.000138  -0.000145
    18  H   -0.006216   0.002851   0.001623  -0.001102   0.000789   0.000348
    19  H   -0.001027   0.000452   0.001309  -0.000057  -0.000049  -0.000174
    20  C   -0.000135   0.005026   0.081233  -0.001074   0.002045   0.005486
    21  N    0.001483   0.000158  -0.003500   0.000046  -0.000197  -0.000801
    22  C    0.000128  -0.001155   0.018347  -0.000072   0.000117  -0.000222
    23  N   -0.001998  -0.001407  -0.001274   0.000038   0.000066  -0.000224
    24  C   -0.000387   0.012550   0.024885  -0.000270   0.004713   0.003436
    25  H    0.005968  -0.002871  -0.015244   0.000006  -0.000422   0.000495
    26  H    0.000033  -0.000133   0.000217  -0.000000   0.000012  -0.000064
    27  O    0.000242   0.000091  -0.001450   0.000002  -0.000066  -0.000022
    28  O    0.001324  -0.002159  -0.006289   0.000179   0.000626  -0.000200
               7          8          9         10         11         12
     1  C    0.018898   0.037249   0.026669  -0.009094  -0.010344   0.006627
     2  C   -0.026152  -0.039916  -0.018220   0.008009   0.006351  -0.005890
     3  C   -0.065996   0.014948  -0.017925   0.004575   0.004587  -0.016698
     4  O    0.002605  -0.000209   0.001203  -0.000496  -0.001177   0.000703
     5  H    0.000056  -0.005482  -0.000454   0.000408   0.000396  -0.000372
     6  O   -0.004121  -0.006123  -0.007568   0.000488   0.000948   0.000679
     7  H    0.074917   0.005271   0.008456   0.000037  -0.000731   0.000987
     8  C    0.005271   0.203120   0.002351  -0.001773  -0.000957   0.011018
     9  C    0.008456   0.002351   0.011132  -0.003256  -0.003193   0.001561
    10  H    0.000037  -0.001773  -0.003256   0.000782   0.001387  -0.002913
    11  O   -0.000731  -0.000957  -0.003193   0.001387   0.006053  -0.000791
    12  C    0.000987   0.011018   0.001561  -0.002913  -0.000791   0.007721
    13  H   -0.000425   0.000715   0.000667   0.000040   0.000449  -0.002143
    14  O   -0.000261  -0.002574  -0.001634   0.000766   0.000201  -0.001077
    15  H    0.000101   0.000297   0.000316  -0.000230  -0.000108   0.000294
    16  H    0.000134   0.000370   0.000608  -0.000049  -0.000042  -0.000618
    17  H    0.000123   0.000373   0.000753  -0.000377  -0.000314   0.000312
    18  H   -0.000664   0.000437  -0.001546   0.000076   0.001401   0.000024
    19  H   -0.000770  -0.001183  -0.001630  -0.000590   0.000076   0.001964
    20  C   -0.000697   0.094880   0.001215  -0.000177  -0.000170  -0.002691
    21  N    0.000060   0.008296  -0.001273   0.000174   0.000001   0.000967
    22  C    0.000727  -0.016489  -0.000394   0.000333   0.000011   0.000455
    23  N    0.000952  -0.031611  -0.000293  -0.000224   0.000069  -0.000147
    24  C    0.000910   0.052391   0.002466   0.000352  -0.000567  -0.001288
    25  H    0.002768   0.014089   0.004043   0.000134  -0.000182   0.000704
    26  H    0.000084   0.004274  -0.000039   0.000036   0.000000  -0.000093
    27  O   -0.000005   0.002421   0.000062   0.000117  -0.000002   0.000030
    28  O    0.001116   0.003003   0.000708  -0.000226  -0.000075   0.000088
              13         14         15         16         17         18
     1  C   -0.002865  -0.002972   0.000743   0.000433   0.002204  -0.006216
     2  C    0.002421   0.001577  -0.000477  -0.000186  -0.001388   0.002851
     3  C    0.001920   0.005966  -0.000725  -0.000602  -0.001827   0.001623
     4  O   -0.000398  -0.000075   0.000046   0.000026   0.000288  -0.001102
     5  H    0.000130   0.000136  -0.000046  -0.000004  -0.000138   0.000789
     6  O   -0.000149   0.000447  -0.000022   0.000021  -0.000145   0.000348
     7  H   -0.000425  -0.000261   0.000101   0.000134   0.000123  -0.000664
     8  C    0.000715  -0.002574   0.000297   0.000370   0.000373   0.000437
     9  C    0.000667  -0.001634   0.000316   0.000608   0.000753  -0.001546
    10  H    0.000040   0.000766  -0.000230  -0.000049  -0.000377   0.000076
    11  O    0.000449   0.000201  -0.000108  -0.000042  -0.000314   0.001401
    12  C   -0.002143  -0.001077   0.000294  -0.000618   0.000312   0.000024
    13  H   -0.000233   0.000218  -0.000142   0.000005  -0.000095   0.000251
    14  O    0.000218   0.002883  -0.000178   0.000072  -0.000079   0.000017
    15  H   -0.000142  -0.000178  -0.000044  -0.000037   0.000046  -0.000021
    16  H    0.000005   0.000072  -0.000037   0.000112   0.000015  -0.000018
    17  H   -0.000095  -0.000079   0.000046   0.000015   0.000123  -0.000137
    18  H    0.000251   0.000017  -0.000021  -0.000018  -0.000137   0.002731
    19  H   -0.000036  -0.000719   0.000036   0.000021  -0.000036   0.000089
    20  C   -0.000136  -0.001212   0.000003  -0.000155   0.000099  -0.000021
    21  N    0.000031   0.000512  -0.000006   0.000077  -0.000001   0.000015
    22  C    0.000029  -0.000043   0.000003   0.000008  -0.000023  -0.000013
    23  N    0.000011   0.000083  -0.000016  -0.000015  -0.000045  -0.000007
    24  C    0.000278  -0.000014   0.000020  -0.000070   0.000032  -0.000110
    25  H   -0.000074  -0.000952   0.000145  -0.000033   0.000057  -0.000013
    26  H    0.000009   0.000052  -0.000006  -0.000010  -0.000000  -0.000003
    27  O   -0.000002   0.000002   0.000004   0.000005   0.000006   0.000002
    28  O    0.000004  -0.000016   0.000006   0.000003   0.000062  -0.000060
              19         20         21         22         23         24
     1  C   -0.001027  -0.000135   0.001483   0.000128  -0.001998  -0.000387
     2  C    0.000452   0.005026   0.000158  -0.001155  -0.001407   0.012550
     3  C    0.001309   0.081233  -0.003500   0.018347  -0.001274   0.024885
     4  O   -0.000057  -0.001074   0.000046  -0.000072   0.000038  -0.000270
     5  H   -0.000049   0.002045  -0.000197   0.000117   0.000066   0.004713
     6  O   -0.000174   0.005486  -0.000801  -0.000222  -0.000224   0.003436
     7  H   -0.000770  -0.000697   0.000060   0.000727   0.000952   0.000910
     8  C   -0.001183   0.094880   0.008296  -0.016489  -0.031611   0.052391
     9  C   -0.001630   0.001215  -0.001273  -0.000394  -0.000293   0.002466
    10  H   -0.000590  -0.000177   0.000174   0.000333  -0.000224   0.000352
    11  O    0.000076  -0.000170   0.000001   0.000011   0.000069  -0.000567
    12  C    0.001964  -0.002691   0.000967   0.000455  -0.000147  -0.001288
    13  H   -0.000036  -0.000136   0.000031   0.000029   0.000011   0.000278
    14  O   -0.000719  -0.001212   0.000512  -0.000043   0.000083  -0.000014
    15  H    0.000036   0.000003  -0.000006   0.000003  -0.000016   0.000020
    16  H    0.000021  -0.000155   0.000077   0.000008  -0.000015  -0.000070
    17  H   -0.000036   0.000099  -0.000001  -0.000023  -0.000045   0.000032
    18  H    0.000089  -0.000021   0.000015  -0.000013  -0.000007  -0.000110
    19  H   -0.000281   0.002014  -0.000037  -0.000024   0.000182  -0.000174
    20  C    0.002014  -0.266589  -0.062099   0.025640   0.018026   0.092763
    21  N   -0.000037  -0.062099   0.186530   0.027931   0.004260  -0.011966
    22  C   -0.000024   0.025640   0.027931  -0.262730   0.026367   0.036233
    23  N    0.000182   0.018026   0.004260   0.026367   0.351228  -0.017905
    24  C   -0.000174   0.092763  -0.011966   0.036233  -0.017905  -0.277746
    25  H    0.000095  -0.032412   0.013381   0.002085   0.001664  -0.005279
    26  H    0.000112  -0.012258   0.008465   0.001896   0.000042   0.004049
    27  O   -0.000090  -0.004179  -0.015011  -0.020035  -0.018177  -0.002898
    28  O    0.000024   0.007072  -0.000646  -0.002071  -0.005208   0.018742
              25         26         27         28
     1  C    0.005968   0.000033   0.000242   0.001324
     2  C   -0.002871  -0.000133   0.000091  -0.002159
     3  C   -0.015244   0.000217  -0.001450  -0.006289
     4  O    0.000006  -0.000000   0.000002   0.000179
     5  H   -0.000422   0.000012  -0.000066   0.000626
     6  O    0.000495  -0.000064  -0.000022  -0.000200
     7  H    0.002768   0.000084  -0.000005   0.001116
     8  C    0.014089   0.004274   0.002421   0.003003
     9  C    0.004043  -0.000039   0.000062   0.000708
    10  H    0.000134   0.000036   0.000117  -0.000226
    11  O   -0.000182   0.000000  -0.000002  -0.000075
    12  C    0.000704  -0.000093   0.000030   0.000088
    13  H   -0.000074   0.000009  -0.000002   0.000004
    14  O   -0.000952   0.000052   0.000002  -0.000016
    15  H    0.000145  -0.000006   0.000004   0.000006
    16  H   -0.000033  -0.000010   0.000005   0.000003
    17  H    0.000057  -0.000000   0.000006   0.000062
    18  H   -0.000013  -0.000003   0.000002  -0.000060
    19  H    0.000095   0.000112  -0.000090   0.000024
    20  C   -0.032412  -0.012258  -0.004179   0.007072
    21  N    0.013381   0.008465  -0.015011  -0.000646
    22  C    0.002085   0.001896  -0.020035  -0.002071
    23  N    0.001664   0.000042  -0.018177  -0.005208
    24  C   -0.005279   0.004049  -0.002898   0.018742
    25  H    0.004830  -0.001499   0.000040   0.000345
    26  H   -0.001499  -0.012819  -0.002756  -0.000046
    27  O    0.000040  -0.002756   0.549801   0.000152
    28  O    0.000345  -0.000046   0.000152  -0.035915
 Mulliken charges and spin densities:
               1          2
     1  C    0.608536   0.014509
     2  C    1.376585   0.010237
     3  C    0.659829  -0.051695
     4  O   -0.728007   0.000052
     5  H   -0.461339  -0.000941
     6  O   -0.849595  -0.002511
     7  H   -0.297782   0.018378
     8  C    0.834308   0.349186
     9  C    0.755323   0.004784
    10  H   -0.508597  -0.001690
    11  O   -0.642001   0.003277
    12  C    1.213465  -0.000589
    13  H   -0.528426   0.000480
    14  O   -0.551891   0.001125
    15  H   -0.242854   0.000003
    16  H   -0.202320   0.000074
    17  H    0.149584  -0.000113
    18  H    0.162782   0.000723
    19  H    0.145347  -0.000504
    20  C    0.897049  -0.048502
    21  N   -0.514815   0.156847
    22  C    0.763601  -0.162960
    23  N   -0.553358   0.324434
    24  C    0.483642  -0.064853
    25  H   -0.622194  -0.008132
    26  H   -0.078155  -0.010444
    27  O   -0.518338   0.488284
    28  O   -0.750378  -0.019457
 Sum of Mulliken charges =  -0.00000   1.00000
 Mulliken charges and spin densities with hydrogens summed into heavy atoms:
               1          2
     1  C    0.099939   0.012818
     2  C    0.915246   0.009296
     3  C    0.362047  -0.033317
     4  O   -0.565225   0.000775
     6  O   -0.849595  -0.002511
     8  C    0.834308   0.349186
     9  C    0.226897   0.005265
    11  O   -0.492417   0.003164
    12  C    0.768291  -0.000512
    14  O   -0.406544   0.000621
    20  C    0.274855  -0.056634
    21  N   -0.592970   0.146402
    22  C    0.763601  -0.162960
    23  N   -0.553358   0.324434
    24  C    0.483642  -0.064853
    27  O   -0.518338   0.488284
    28  O   -0.750378  -0.019457
 Electronic spatial extent (au):  <R**2>=           4053.2557
 Charge=             -0.0000 electrons
 Dipole moment (field-independent basis, Debye):
    X=             -2.4677    Y=              4.8395    Z=             -0.6548  Tot=              5.4716
 Quadrupole moment (field-independent basis, Debye-Ang):
   XX=           -109.8866   YY=           -110.0105   ZZ=            -94.4350
   XY=             13.5395   XZ=            -12.0544   YZ=             -7.4842
 Traceless Quadrupole moment (field-independent basis, Debye-Ang):
   XX=             -5.1092   YY=             -5.2331   ZZ=             10.3424
   XY=             13.5395   XZ=            -12.0544   YZ=             -7.4842
 Octapole moment (field-independent basis, Debye-Ang**2):
  XXX=           -103.2739  YYY=             34.6268  ZZZ=             19.7241  XYY=             -6.5963
  XXY=             26.1870  XXZ=            -21.0483  XZZ=            -11.4465  YZZ=             -8.9641
  YYZ=             -8.5369  XYZ=             13.4439
 Hexadecapole moment (field-independent basis, Debye-Ang**3):
 XXXX=          -3781.5634 YYYY=          -1444.2155 ZZZZ=           -366.7963 XXXY=             53.2176
 XXXZ=           -129.7969 YYYX=            130.5496 YYYZ=            -54.7075 ZZZX=            -55.6952
 ZZZY=            -13.0245 XXYY=           -753.2553 XXZZ=           -616.8272 YYZZ=           -282.8593
 XXYZ=            -40.1502 YYXZ=            -33.7813 ZZXY=             28.9170
 N-N= 1.303276464856D+03 E-N=-4.736113733946D+03  KE= 9.045879310865D+02
                          Isotropic Fermi Contact Couplings
        Atom                 a.u.       MegaHertz       Gauss      10(-4) cm-1
     1  C(13)              0.00002       0.01758       0.00627       0.00586
     2  C(13)              0.00847       9.51881       3.39655       3.17513
     3  C(13)             -0.00928     -10.43611      -3.72387      -3.48111
     4  O(17)             -0.00020       0.11873       0.04237       0.03960
     5  H(1)              -0.00019      -0.83602      -0.29831      -0.27887
     6  O(17)              0.00150      -0.90920      -0.32443      -0.30328
     7  H(1)               0.00889      39.71690      14.17198      13.24813
     8  C(13)              0.02705      30.41196      10.85174      10.14434
     9  C(13)              0.00018       0.20246       0.07224       0.06753
    10  H(1)               0.00051       2.28035       0.81369       0.76064
    11  O(17)              0.00085      -0.51810      -0.18487      -0.17282
    12  C(13)             -0.00008      -0.08623      -0.03077      -0.02876
    13  H(1)               0.00008       0.37561       0.13403       0.12529
    14  O(17)              0.00004      -0.02192      -0.00782      -0.00731
    15  H(1)              -0.00001      -0.04991      -0.01781      -0.01665
    16  H(1)               0.00002       0.07703       0.02749       0.02569
    17  H(1)              -0.00005      -0.21592      -0.07705      -0.07202
    18  H(1)               0.00020       0.89372       0.31890       0.29811
    19  H(1)              -0.00010      -0.45449      -0.16217      -0.15160
[...]
 -0.00014931,-0.00034275,-0.05975251,0.03310610,-0.07264615,0.13194455,
 -0.21733392,0.18988901,-0.00112326,0.00074239,0.00012771,-0.00040925,-
 0.00298196,0.00117119,-0.00018426,0.01073034,0.00329325,0.00160784,0.0
 0104814,-0.00026688,-0.00008019,-0.00015985,0.00009001,0.00011533,-0.0
 0117465,-0.00056683,0.00283603,-0.00100588,-0.00006432,-0.00403433,-0.
 01862599,-0.00461569,-0.00175933,0.00032661,0.00026775,0.00010775,0.00
 005376,0.00025562,0.00161858,0.00019408,-0.00103546,-0.00031387,0.0000
 9026,-0.00022319,0.00020019,0.00012243,0.00006276,0.00053566,-0.000481
 89,0.00008927,0.00009575,-0.00001551,-0.00006698,-0.00000967,-0.000059
 10,0.00012003,-0.00012113,-0.00010399,0.00032028,-0.00012399,-0.000038
 08,0.00013277,-0.00037464,0.00053867,-0.00008764,-0.02542232,0.0355235
 2,-0.01153239,-0.12278573,0.05053390,-0.06675586,0.74342402,-0.0004864
 3,0.00086062,0.00001450,-0.00130253,-0.00192684,-0.00075433,-0.0021347
 5,0.00111847,0.00873728,-0.00006833,0.00017472,0.00020651,0.00010691,0
 .00006061,-0.00024204,0.00077530,-0.00230074,0.00043936,0.00155950,-0.
 00033259,-0.00068927,0.00142528,-0.03603081,0.00641276,-0.00082933,0.0
 0024302,0.00067324,0.00007788,-0.00008995,0.00007001,0.00063794,0.0000
 0560,-0.00037181,0.00008548,0.00024704,-0.00000268,0.00017379,-0.00002
 108,-0.00010415,-0.00008392,-0.00058785,-0.00016939,-0.00001717,-0.000
 03094,-0.00002410,-0.00001469,-0.00001508,0.00001505,-0.00000991,0.000
 00965,0.00010318,-0.00004166,-0.00013592,-0.00003480,0.00008707,0.0006
 1473,0.00003278,0.07735270,0.05303476,0.00975989,-0.00901917,-0.187584
 51,0.04783922,0.05643537,0.47515446,0.00015174,-0.00026021,0.00026525,
 0.00054132,0.00084776,0.00030584,0.00052671,-0.00009954,-0.00536334,0.
 00036529,-0.00002487,-0.00009664,-0.00016050,-0.00005558,0.00026915,-0
 .00003545,0.00080217,-0.00007321,-0.00105155,0.00023296,0.00035463,0.0
 0010419,0.01468307,-0.00556979,0.00021155,-0.00012196,-0.00023902,-0.0
 0002975,0.00004106,-0.00004356,-0.00010434,-0.00006922,-0.00001993,0.0
 0004681,-0.00002092,0.00007134,-0.00003280,-0.00000116,0.00003024,-0.0
 0001968,0.00014394,-0.00006575,0.00000802,0.00000616,-0.00000709,-0.00
 002035,-0.00001230,-0.00002009,-0.00000945,0.00003436,0.00001715,-0.00
 003086,0.00010944,0.00004859,-0.00007746,-0.00020886,0.00011263,-0.046
 41244,-0.01531868,-0.01221083,-0.01263315,0.05645859,-0.09247499,0.167
 60151,-0.07835608,0.27964883,-0.00019636,0.00019430,-0.00004952,-0.000
 04065,-0.00097918,0.00017857,-0.00341511,0.00098243,0.00383860,-0.0000
 3319,0.00036728,-0.00013056,0.00013617,-0.00016159,-0.00020634,0.00001
 451,-0.00068504,-0.00031248,0.00173133,0.00035772,0.00049500,-0.023466
 36,0.02725194,-0.02729793,-0.00022002,0.00020549,0.00049445,0.00002185
 ,-0.00003988,0.00004658,0.00015361,0.00011233,-0.00006656,0.00000866,0
 .00004047,-0.00004580,0.00011115,-0.00005343,-0.00007196,0.00000813,-0
 .00001214,-0.00002933,-0.00000276,-0.00002238,0.00000218,-0.00000073,0
 .00002229,0.00000439,0.00003406,-0.00003150,-0.00000016,0.00009347,-0.
 00002945,0.00000878,0.00002136,0.00001237,0.00002592,-0.01170591,-0.00
 353569,-0.00537436,0.00307425,-0.00559866,0.00964161,-0.00693331,-0.06
 768931,0.02206686,0.27813328,-0.00003922,0.00009766,-0.00041558,0.0008
 9417,-0.00092253,0.00030644,0.00539030,0.00263809,-0.00120189,-0.00030
 989,0.00022216,0.00003906,0.00001785,-0.00020837,-0.00004026,-0.002241
 12,0.00215975,0.00028514,-0.00020311,-0.00024445,0.00051104,0.00318270
 ,0.00412619,-0.00197997,0.00068619,-0.00021217,-0.00109570,-0.00000775
 ,-0.00001680,0.00004651,-0.00015192,0.00013207,0.00027131,-0.00028179,
 -0.00030214,-0.00006467,-0.00023714,0.00003036,0.00019840,0.00023000,0
 .00048664,0.00023429,0.00002027,0.00005964,0.00004091,0.00004194,0.000
 02749,0.00000142,0.00004097,-0.00010359,-0.00007931,0.00017307,-0.0000
 4213,-0.00000358,-0.00012797,-0.00037724,-0.00016369,-0.02629053,-0.01
 337299,-0.00343238,0.01910887,-0.05074367,0.03095374,-0.03934441,-0.19
 110295,0.04131359,0.18500807,0.33492658,-0.00047721,0.00031310,-0.0002
 1392,-0.00044477,-0.00152072,-0.00001690,-0.00254405,0.00272698,0.0074
 0380,0.00007885,0.00057399,-0.00001736,0.00026510,-0.00020655,-0.00047
 388,-0.00030423,-0.00119212,-0.00061069,0.00237356,-0.00029107,0.00000
 331,-0.02128697,0.00951106,-0.00232544,-0.00044162,0.00042074,0.000512
 96,0.00000875,0.00001903,0.00011493,0.00042778,0.00017468,-0.00014516,
 -0.00009145,0.00003568,-0.00013400,0.00013375,-0.00006834,-0.00006262,
 0.00013076,-0.00017840,0.00001765,0.00000597,-0.00001204,-0.00000478,0
 .00000446,0.00001417,0.00003668,-0.00002314,-0.00005916,0.00003119,0.0
 0007821,-0.00010712,0.00000121,-0.00000882,0.00019546,-0.00001489,0.00
 895484,0.00488816,0.00038915,-0.01015280,0.02327850,0.00452353,0.00050
 858,0.01866472,-0.07136266,0.09427305,-0.00844261,0.14489775,0.0005396
 5,-0.00084784,0.00029117,-0.00088780,0.00395472,-0.00133045,-0.0123866
 0,0.02066041,-0.01790080,0.00078013,-0.00051724,0.00073066,-0.00160637
 ,-0.00042853,0.00167558,-0.00696020,0.00254757,0.00038120,-0.00358540,
 0.00049759,-0.00068268,-0.14703948,0.03414413,-0.01943685,0.00104005,-
 0.00013173,-0.00278930,-0.00010192,0.00009855,0.00001348,-0.00052690,-
 0.00019687,0.00037411,-0.00046419,-0.00042892,0.00009917,-0.00054884,0
 .00010599,0.00038461,0.00030891,0.00030245,0.00022900,0.00005811,0.000
 17233,0.00006973,0.00003405,-0.00007307,-0.00000855,-0.00008573,0.0000
 4860,-0.00002804,-0.00019079,0.00023116,-0.00003387,-0.00043665,-0.000
 09872,-0.00003100,0.02277314,-0.00736340,0.00619038,-0.00867479,0.0085
 6545,-0.00643051,-0.01498226,-0.02772334,-0.00770589,-0.12710970,-0.04
 649178,-0.04585500,0.37692511,0.00133224,0.00031804,0.00211407,-0.0030
 9407,0.00341879,-0.00410928,0.00050163,0.00357814,0.00794280,0.0000770
 3,-0.00214323,0.00077318,-0.00116923,0.00043651,0.00243565,-0.00232629
 ,-0.00323845,-0.00171641,-0.00207871,-0.00009938,-0.00246793,0.0675879
 5,-0.10416351,0.03578125,0.00077699,-0.00041559,-0.00038519,0.00002968
 ,-0.00015974,-0.00050962,-0.00033697,-0.00112289,-0.00015082,0.0009960
 1,0.00064760,0.00087069,-0.00027763,-0.00006444,-0.00014202,-0.0013233
 7,-0.00057699,-0.00059587,-0.00018527,-0.00000551,-0.00002422,-0.00008
 842,-0.00021494,-0.00014837,-0.00009692,0.00040675,0.00009877,-0.00065
 088,0.00011186,0.00000448,0.00093974,-0.00025232,0.00032433,0.00490171
 ,-0.04658684,0.00353349,-0.00236509,-0.00145238,0.00644557,-0.00261453
 ,-0.01930992,-0.00766474,-0.04602548,-0.02377705,-0.01620598,0.1172465
 4,0.85319601,0.00038409,-0.00033258,0.00000231,0.00119568,0.00073240,0
 .00111822,-0.00579213,0.00540091,-0.00378101,-0.00027523,-0.00035677,-
 0.00068813,0.00072700,0.00035459,0.00020449,0.00053810,0.00015977,0.00
 129571,-0.00094572,0.00000579,-0.00005810,-0.02025566,0.00599822,-0.07
 308864,-0.00072314,0.00006797,-0.00008547,0.00002903,-0.00004366,-0.00
 002083,-0.00011774,0.00000675,-0.00009527,-0.00014796,-0.00009950,0.00
 001043,0.00001771,0.00012216,0.00000106,0.00016062,-0.00000411,-0.0000
 2973,0.00004104,0.00001287,-0.00002226,-0.00001470,0.00004299,-0.00000
 488,0.00005904,-0.00000029,0.00002939,0.00000737,0.00004742,0.00002172
 ,-0.00018163,0.00024724,0.00005346,0.01739662,0.01731173,0.00331141,-0
 .01175028,0.00966481,-0.01409780,-0.00167976,-0.01722823,0.00267249,-0
 .06392304,-0.02011360,-0.09652128,0.10897605,0.08539372,0.25870816,0.0
 0006944,-0.00014485,0.00016948,-0.00012562,0.00032092,-0.00021062,-0.0
 0044046,-0.00033220,0.00119817,-0.00006713,0.00010583,0.00001456,0.000
 03741,0.00008114,-0.00009520,-0.00201110,-0.00120073,-0.00093232,0.000
 17489,0.00030875,0.00008600,0.01373521,-0.00644930,0.00373115,-0.00085
 102,0.00034350,0.00072798,-0.00000189,-0.00000466,-0.00001138,0.000037
 70,0.00013236,-0.00015213,-0.00022995,-0.00003058,-0.00005948,0.000258
 22,0.00001927,-0.00010155,-0.00009937,-0.00007787,-0.00021195,0.000022
 64,-0.00001668,-0.00004703,-0.00007338,0.00005899,-0.00000073,0.000007
 06,0.00001098,0.00001315,0.00000539,-0.00006804,-0.00000072,-0.0001374
 5,0.00058438,0.00114221,-0.12629437,0.10749623,-0.06005021,-0.01506687
 ,0.02470609,-0.01418171,-0.00243826,-0.00405346,-0.00056254,0.00093005
 ,0.00020089,0.00087852,-0.00206924,-0.00226159,-0.00330205,0.13545193,
 0.00009216,-0.00010562,0.00003224,0.00015860,-0.00011552,0.00012192,0.
 00239661,-0.00148079,-0.00068025,-0.00004217,0.00009043,-0.00003594,0.
 00003486,0.00008375,-0.00010953,0.00117440,0.00110998,-0.00061876,-0.0
 0047955,-0.00015834,-0.00000340,0.01375927,-0.01462995,0.01113647,-0.0
 0065628,0.00053461,0.00044755,0.00001675,0.00000134,-0.00001013,0.0000
 7964,0.00010192,-0.00018446,0.00006910,0.00018799,0.00006179,0.0002312
 1,0.00000580,-0.00010363,0.00003393,-0.00045697,-0.00006563,0.00001916
 ,-0.00005847,-0.00001425,0.00003256,0.00001274,0.00000145,0.00001618,0
 .00000977,0.00000714,0.00000946,-0.00004133,0.00001691,0.00008664,0.00
 078101,-0.00029375,0.11532599,-0.23114741,0.09444049,-0.00826659,0.009
 62793,-0.00504511,-0.00064541,-0.00022724,0.00101808,-0.00038667,0.001
 27686,-0.00094051,-0.00383825,-0.00284754,0.00312131,-0.11941094,0.237
 81167,0.00012045,0.00017415,0.00004021,0.00029991,-0.00024574,0.000590
 42,0.00084272,-0.00052910,-0.00377500,0.00013464,0.00005756,-0.0001508
 6,0.00006233,0.00005681,-0.00009342,-0.00041336,-0.00096024,-0.0008688
 5,-0.00069192,-0.00022661,-0.00008612,-0.00490363,-0.00044209,0.007591
 67,-0.00027619,0.00020504,0.00007835,-0.00000936,0.00000325,-0.0000776
 3,0.00001783,-0.00006649,-0.00013403,0.00054306,0.00029545,0.00048687,
 0.00001060,-0.00002682,-0.00001696,-0.00064642,-0.00013920,-0.00031107
 ,-0.00009923,-0.00006475,-0.00007796,-0.00009083,0.00000296,-0.0000987
 9,0.00002612,0.00002552,0.00000034,0.00001221,0.00007169,0.00002348,0.
 00146508,-0.00054498,-0.00022082,-0.05784114,0.09634963,-0.08856394,-0
 .00950109,0.00794042,-0.00204688,0.00120843,-0.00472691,0.00688624,-0.
 00106209,0.00117094,-0.00241957,0.00138663,-0.00023511,0.00957541,0.07
 147608,-0.10035982,0.07883617,-0.00002313,-0.00004034,-0.00000497,0.00
 003542,-0.00000328,-0.00022920,0.00096480,-0.00112262,-0.00050563,-0.0
 0009007,-0.00000902,0.00008196,-0.00001497,-0.00000007,0.00003556,0.00
 005404,0.00034277,0.00006951,-0.00041582,-0.00006705,-0.00006241,-0.00
 487848,0.00011414,-0.00215630,0.00005937,0.00003050,-0.00004539,0.0000
 0782,-0.00001530,0.00001286,0.00001606,0.00005210,-0.00000003,-0.00016
 914,-0.00012862,-0.00010614,0.00000190,0.00001011,0.00000510,0.0001964
 1,0.00015064,0.00008687,0.00002751,0.00002541,0.00001118,0.00000608,0.
 00000907,0.00002084,-0.00000636,-0.00001505,0.00000193,0.00000114,-0.0
 0004864,0.00000422,-0.00019169,-0.00011828,-0.00002064,-0.00753163,-0.
 02596374,0.01191976,-0.14776215,-0.15757451,0.03060220,0.01422767,0.01
 807191,-0.00283999,0.00234165,0.00218462,-0.00157747,-0.00198332,0.001
 93371,-0.00134454,0.00022627,0.00052669,0.00039452,0.14577917,-0.00009
 951,0.00004439,0.00008036,-0.00021897,-0.00016907,0.00004781,-0.000523
 75,0.00055867,0.00062012,0.00022721,0.00006777,-0.00001376,-0.00001822
 ,-0.00003593,0.00004339,0.00050125,-0.00031190,-0.00009617,0.00033067,
 0.00001706,0.00012730,0.00086071,0.00507696,0.00026308,-0.00026767,0.0
 0001612,0.00012960,-0.00000286,0.00004539,0.00001485,0.00017883,-0.000
 03343,-0.00012262,0.00014419,0.00016776,0.00008328,0.00004749,-0.00000
 374,-0.00001249,-0.00014179,-0.00028494,-0.00007478,-0.00001104,-0.000
 02772,-0.00001930,-0.00000701,-0.00001932,0.00000091,-0.00002473,0.000
 01862,0.00003755,-0.00003808,0.00002107,0.00001283,0.00007934,0.000262
 98,0.00003036,-0.00231368,0.00015938,-0.00417951,-0.15460731,-0.341172
 81,0.10717760,-0.01031418,-0.01828131,0.00462606,-0.00054249,-0.001343
 81,0.00218059,0.00247558,-0.00227656,0.00207717,0.00045725,0.00045565,
 -0.00080024,0.16532009,0.35303650,-0.00003673,0.00011524,-0.00002863,-
 0.00032082,-0.00037398,-0.00010176,-0.00054528,0.00105488,0.00336575,-
 0.00011988,-0.00001850,-0.00001542,0.00002702,0.00000035,-0.00010659,-
 0.00004580,-0.00013372,-0.00028452,0.00083395,-0.00013490,0.00003608,-
 0.00359247,-0.00208688,0.00106361,-0.00023451,0.00004467,0.00006894,0.
 00001420,0.00000130,0.00001834,0.00007933,0.00000196,-0.00008189,0.000
 09984,0.00006664,0.00008649,0.00000579,0.00000400,-0.00000493,-0.00014
 819,-0.00009639,-0.00014462,-0.00000800,-0.00001193,-0.00001284,-0.000
 03053,0.00000929,-0.00002552,0.00001721,0.00000143,0.00001821,-0.00000
 647,-0.00003528,-0.00000106,0.00011565,0.00008574,0.00014626,-0.000924
 24,-0.01203524,-0.00095853,0.03400456,0.11533490,-0.04918945,0.0053178
 1,0.00450471,-0.00157062,-0.00138009,0.00421972,0.00101602,0.00257466,
 0.00093155,-0.00034471,0.00052146,-0.00025727,-0.00133231,-0.03690493,
 -0.10860827,0.05006305,0.00057237,-0.00021498,-0.00034666,0.00026513,0
 .00119273,-0.00065250,0.00103181,-0.00275120,0.00101633,-0.00110713,-0
 .00058761,0.00013516,0.00006411,0.00008484,-0.00017826,-0.00142682,0.0
 0047222,0.00024427,-0.00075628,0.00013563,-0.00005488,-0.00056611,0.00
 336079,0.00048753,0.00110561,-0.00017578,-0.00045532,-0.00004210,-0.00
 007099,-0.00010734,-0.00092185,-0.00008339,0.00066571,0.00007242,-0.00
 017777,0.00009826,-0.00022114,-0.00004286,0.00002779,-0.00022239,0.000
 40523,0.00004808,-0.00005768,0.00004011,0.00005318,0.00002137,0.000044
 87,-0.00006797,0.00009598,0.00001298,-0.00019890,0.00013058,-0.0000192
 5,-0.00008146,0.00024335,-0.00043478,-0.00010616,0.00540275,0.00456172
 ,-0.00287085,-0.07519954,0.02557134,-0.02523746,-0.58400702,-0.0446199
 3,-0.11779765,-0.09265920,-0.06104107,0.00353461,0.01073819,-0.0039466
 0,0.00548513,-0.00186353,-0.00091809,-0.00124502,-0.00145199,-0.001363
 90,0.00123610,0.74481933,0.00027987,-0.00032409,-0.00008246,0.00044872
 ,0.00086774,0.00009814,0.00099005,-0.00106167,-0.00282099,-0.00019798,
 -0.00015830,-0.00001829,-0.00002149,0.00001128,0.00003018,-0.00040860,
 0.00079051,-0.00008110,-0.00072540,0.00010890,0.00015036,-0.00012630,0
 .00876309,-0.00178816,0.00046065,-0.00005568,-0.00023662,-0.00003066,0
 .00000973,-0.00004749,-0.00039532,-0.00000212,0.00024877,-0.00004228,-
 0.00013526,0.00000773,-0.00008043,-0.00000071,0.00002356,0.00000342,0.
 00029370,0.00006861,-0.00000593,0.00002078,0.00001681,0.00000700,0.000
 01777,-0.00001898,0.00002372,-0.00000599,-0.00007495,0.00003915,0.0000
 2835,-0.00000901,0.00001436,-0.00029536,-0.00001896,-0.01565420,-0.014
 12908,0.00007147,0.05907375,0.01327789,0.01604714,-0.08719915,-0.08399
 093,-0.01224776,-0.04268984,-0.00705289,0.00044473,0.00291839,-0.00298
 711,0.00606769,0.00070970,0.00056419,0.00184840,-0.00376070,0.00284394
 ,-0.00209536,0.08799450,0.08378849,0.00005742,-0.00001530,-0.00010167,
 -0.00005079,0.00012569,-0.00022445,0.00040034,-0.00062732,0.00016717,-
 0.00018603,-0.00010554,0.00009807,0.00002832,-0.00000292,0.00000530,-0
 .00033205,0.00000843,0.00017377,-0.00021207,0.00002375,-0.00008283,-0.
 00040686,-0.00246684,0.00055300,0.00021433,-0.00007537,-0.00016615,-0.
 00000227,-0.00000188,-0.00000899,-0.00012689,-0.00001390,0.00013990,-0
 .00001255,-0.00002548,-0.00000538,-0.00005475,0.00000045,0.00002513,-0
 .00000802,0.00004136,0.00006817,-0.00001188,0.00000872,0.00001140,0.00
 001654,-0.00000115,0.00000082,-0.00000211,-0.00000394,-0.00004098,0.00
 000989,-0.00001856,-0.00002871,0.00005275,-0.00004362,-0.00008904,0.00
 511223,0.00697535,0.00386035,-0.04530512,0.00845073,0.00863855,-0.0964
 9253,-0.00331774,-0.10029451,-0.00260690,-0.00510416,0.01949955,-0.003
 31086,0.00179010,0.00113045,-0.00070474,-0.00056187,-0.00134116,0.0019
 7221,-0.00287858,-0.00147215,0.14030913,-0.00267925,0.06911401,-0.0004
 6233,0.00016018,-0.00140830,0.00017976,-0.00096774,0.00275084,-0.00132
 520,-0.00251384,0.00345100,-0.00036565,0.00038126,-0.00046059,-0.00108
 306,0.00085710,-0.00135789,0.00206292,-0.00051440,0.00009105,0.0019276
 5,-0.00022650,0.00076341,0.01960265,0.02208926,0.00052171,-0.00064147,
 0.00057131,0.00135502,0.00002618,-0.00005746,0.00011455,-0.00013522,0.
 00027415,0.00016139,-0.00015578,-0.00012335,-0.00031232,0.00022226,-0.
 00003490,-0.00014238,0.00019452,0.00009073,0.00002488,0.00002000,-0.00
 003007,-0.00000232,0.00000417,0.00013577,0.00001414,0.00008445,-0.0000
 8305,-0.00008344,0.00029626,0.00003065,-0.00003346,-0.00008076,0.00006
 833,-0.00000624,0.00086894,0.00842568,-0.00088680,-0.00485839,-0.00307
 111,0.00044170,0.00033399,0.00130477,-0.00210016,-0.02103022,-0.040412
 23,-0.02844925,-0.08355715,-0.12748219,-0.02456390,0.00081341,0.000580
 75,-0.00122035,0.00057346,-0.00012740,-0.00054963,-0.00406021,-0.00162
 504,0.00165323,0.09054480,-0.00082572,-0.00027665,-0.00085369,0.000469
 90,-0.00217182,0.00216385,-0.00396125,0.00034412,-0.00308367,0.0002041
 3,0.00172498,-0.00041040,0.00082997,-0.00033453,-0.00153711,0.00114061
 ,0.00167420,0.00041483,0.00180070,-0.00015602,0.00107003,0.00110891,-0
 .07979975,-0.00826785,-0.00109593,0.00048511,0.00067868,-0.00001679,0.
 00011968,0.00033152,0.00040949,0.00074785,-0.00010131,-0.00061700,-0.0
 0035320,-0.00058189,0.00031578,0.00001793,0.00001507,0.00086275,0.0002
 6061,0.00028464,0.00013094,-0.00001629,0.00000603,0.00002721,0.0001313
 3,0.00010639,0.00004114,-0.00024665,-0.00001323,0.00034793,-0.00009073
 ,-0.00001227,-0.00066909,0.00028719,-0.00003506,0.01447627,0.00834269,
 0.00456480,-0.00498396,-0.00284684,-0.00182515,0.00842511,0.01044499,-
 0.00585533,-0.04607198,-0.05636071,-0.03421695,-0.10582976,-0.65041929
 ,-0.09865676,-0.00148537,-0.00138646,0.00116623,0.00009544,0.00116828,
 -0.00048864,-0.00742878,-0.00118717,0.00051885,0.14229933,0.76989714,-
 0.00004046,-0.00019744,0.00047355,-0.00062174,-0.00004461,-0.00179873,
 -0.00025623,-0.00125415,-0.00234610,0.00045283,0.00024377,0.00071272,0
 .00057034,-0.00027348,0.00044448,-0.00011484,0.00011794,0.00047824,0.0
 0073256,0.00030992,0.00068342,-0.00298031,0.00894171,0.01947342,0.0004
 9036,0.00011995,-0.00010714,0.00001304,0.00008060,0.00001151,0.0000308
 6,-0.00001418,0.00004483,-0.00006518,-0.00000720,0.00008603,0.00002550
 ,-0.00004691,-0.00002663,-0.00002050,-0.00001875,0.00004258,-0.0000151
 6,0.00003747,0.00000743,0.00000741,-0.00005978,0.00000468,-0.00006794,
 0.00004697,0.00000338,-0.00011746,0.00008876,-0.00002157,0.00001702,-0
 .00005509,-0.00002658,-0.00401129,-0.00174167,0.00276975,0.00196431,-0
 .00312893,0.00316628,0.00282058,0.00854829,-0.00127038,-0.02851885,-0.
 03745511,-0.00412457,-0.01783264,-0.11408412,-0.08929659,0.00066559,-0
 .00112105,-0.00249380,0.00057891,-0.00074712,-0.00020721,-0.00394083,-
 0.00290421,0.00037038,0.05023411,0.14461840,0.07294662\\-0.00001097,-0
 .00000044,-0.00000069,-0.00000370,0.00000005,-0.00000326,0.00000468,-0
 .00001718,0.00001060,0.00000662,0.00000337,-0.00001046,-0.00000035,0.0
 0000089,0.00000027,-0.00000696,0.00001245,0.00000057,-0.00000066,0.000
 00109,-0.00000365,-0.00000482,-0.00001251,-0.00000905,0.00000690,0.000
 00110,-0.00000202,-0.00000133,0.00000116,0.00000074,0.00000391,0.00000
 578,0.00000550,0.00000014,-0.00000242,0.00000302,-0.00000180,-0.000000
 50,0.00000250,0.00000068,0.00000204,-0.00000154,-0.00000005,0.00000036
 ,0.00000052,0.00000209,0.00000079,0.00000046,-0.00000145,-0.00000020,0
 .00000136,0.00000775,0.00000376,0.00000071,0.00000211,0.00000114,0.000
 00059,0.00000828,0.00001630,-0.00000349,-0.00000409,-0.00000809,0.0000
 1221,0.00000884,0.00002758,-0.00000970,-0.00000162,-0.00002085,0.00000
 740,-0.00001395,-0.00001530,0.00000738,-0.00000645,-0.00000237,0.00000
 282,0.00000100,-0.00000220,-0.00000872,0.00000201,-0.00000154,0.000000
 72,0.00000318,0.00000574,-0.00000479\\\@
 The archive entry for this job was punched.


 THE ... SCIENTISTS WERE WRONG ... THE MOST PERSISTENT PRINCIPLES 
 OF THE UNIVERSE WERE ACCIDENT AND ERROR.

                          -- FRANK HERBERT IN DUNE
 Job cpu time:       0 days 16 hours 47 minutes 42.2 seconds.
 Elapsed time:       0 days  0 hours 25 minutes 24.5 seconds.
 File lengths (MBytes):  RWF=   1167 Int=      0 D2E=      0 Chk=     28 Scr=      1
 Normal termination of Gaussian 16 at Mon Oct 28 10:28:46 2024.
