 Entering Gaussian System, Link 0=g16
 Input=PseudoUridineAmNsrrgPBE0aVDZ.gjf
 Output=PseudoUridineAmNsrrgPBE0aVDZ.log
 Initial command:
 /sw/contrib/chem-src/g16/c01/g16/l1.exe "/scr/Gau-34388.inp" -scrdir="/scr/"
 Entering Link 1 = /sw/contrib/chem-src/g16/c01/g16/l1.exe PID=     34389.
  
 Copyright (c) 1988-2019, Gaussian, Inc.  All Rights Reserved.
  
 This is part of the Gaussian(R) 16 program.  It is based on
 the Gaussian(R) 09 system (copyright 2009, Gaussian, Inc.),
 the Gaussian(R) 03 system (copyright 2003, Gaussian, Inc.),
 the Gaussian(R) 98 system (copyright 1998, Gaussian, Inc.),
 the Gaussian(R) 94 system (copyright 1995, Gaussian, Inc.),
 the Gaussian 92(TM) system (copyright 1992, Gaussian, Inc.),
 the Gaussian 90(TM) system (copyright 1990, Gaussian, Inc.),
 the Gaussian 88(TM) system (copyright 1988, Gaussian, Inc.),
 the Gaussian 86(TM) system (copyright 1986, Carnegie Mellon
 University), and the Gaussian 82(TM) system (copyright 1983,
 Carnegie Mellon University). Gaussian is a federally registered
 trademark of Gaussian, Inc.
  
 This software contains proprietary and confidential information,
 including trade secrets, belonging to Gaussian, Inc.
  
 This software is provided under written license and may be
 used, copied, transmitted, or stored only in accord with that
 written license.
  
 The following legend is applicable only to US Government
 contracts under FAR:
  
                    RESTRICTED RIGHTS LEGEND
  
 Use, reproduction and disclosure by the US Government is
 subject to restrictions as set forth in subparagraphs (a)
 and (c) of the Commercial Computer Software - Restricted
 Rights clause in FAR 52.227-19.
  
 Gaussian, Inc.
 340 Quinnipiac St., Bldg. 40, Wallingford CT 06492
  
  
 ---------------------------------------------------------------
 Warning -- This program may not be used in any manner that
 competes with the business of Gaussian, Inc. or will provide
 assistance to any competitor of Gaussian, Inc.  The licensee
 of this program is prohibited from giving any competitor of
 Gaussian, Inc. access to this program.  By using this program,
 the user acknowledges that Gaussian, Inc. is engaged in the
 business of creating and licensing software in the field of
 computational chemistry and represents and warrants to the
 licensee that it is not a competitor of Gaussian, Inc. and that
 it will not use this program in any manner prohibited above.
 ---------------------------------------------------------------
  

 Cite this work as:
 Gaussian 16, Revision C.01,
 M. J. Frisch, G. W. Trucks, H. B. Schlegel, G. E. Scuseria, 
 M. A. Robb, J. R. Cheeseman, G. Scalmani, V. Barone, 
 G. A. Petersson, H. Nakatsuji, X. Li, M. Caricato, A. V. Marenich, 
 J. Bloino, B. G. Janesko, R. Gomperts, B. Mennucci, H. P. Hratchian, 
 J. V. Ortiz, A. F. Izmaylov, J. L. Sonnenberg, D. Williams-Young, 
 F. Ding, F. Lipparini, F. Egidi, J. Goings, B. Peng, A. Petrone, 
 T. Henderson, D. Ranasinghe, V. G. Zakrzewski, J. Gao, N. Rega, 
 G. Zheng, W. Liang, M. Hada, M. Ehara, K. Toyota, R. Fukuda, 
 J. Hasegawa, M. Ishida, T. Nakajima, Y. Honda, O. Kitao, H. Nakai, 
 T. Vreven, K. Throssell, J. A. Montgomery, Jr., J. E. Peralta, 
 F. Ogliaro, M. J. Bearpark, J. J. Heyd, E. N. Brothers, K. N. Kudin, 
 V. N. Staroverov, T. A. Keith, R. Kobayashi, J. Normand, 
 K. Raghavachari, A. P. Rendell, J. C. Burant, S. S. Iyengar, 
 J. Tomasi, M. Cossi, J. M. Millam, M. Klene, C. Adamo, R. Cammi, 
 J. W. Ochterski, R. L. Martin, K. Morokuma, O. Farkas, 
 J. B. Foresman, and D. J. Fox, Gaussian, Inc., Wallingford CT, 2019.
 
 ******************************************
 Gaussian 16:  EM64L-G16RevC.01  3-Jul-2019
                28-Oct-2024 
 ******************************************
 %nprocshared=40
 Will use up to   40 processors via shared memory.
 %mem=50gb
 ------------------------------------------------------
 # PBE1PBE/aug-cc-pVDZ opt freq EmpiricalDispersion=GD3
 ------------------------------------------------------
 1/18=20,19=15,26=3,38=1/1,3;
 2/9=110,12=2,17=6,18=5,40=1/2;
 3/5=16,7=10,11=2,25=1,30=1,71=1,74=-13,124=31/1,2,3;
 4//1;
 5/5=2,38=5/2;
 6/7=2,8=2,9=2,10=2,28=1/1;
 7//1,2,3,16;
 1/18=20,19=15,26=3/3(2);
 2/9=110/2;
 99//99;
 2/9=110/2;
 3/5=16,7=10,11=2,25=1,30=1,71=1,74=-13,124=31/1,2,3;
 4/5=5,16=3,69=1/1;
 5/5=2,38=5/2;
 7//1,2,3,16;
 1/18=20,19=15,26=3/3(-5);
 2/9=110/2;
 6/7=2,8=2,9=2,10=2,19=2,28=1/1;
 99/9=1/99;
 ----
 blah
 ----
 Symbolic Z-matrix:
 Charge =  0 Multiplicity = 2
 C                    -2.27302   0.04407   0.77825 
 C                    -1.33954  -1.16717   0.81468 
 C                    -0.40965  -0.92778  -0.38263 
 O                    -2.09969  -2.34967   0.61113 
 H                    -0.7665   -1.24017   1.75162 
 O                    -1.15856  -0.0131   -1.25894 
 H                    -0.28729  -1.87383  -0.92532 
 C                     0.94559  -0.39306  -0.0801 
 C                    -2.4271    0.27771  -0.71827 
 H                    -1.79309   0.92135   1.23363 
 O                    -3.54546  -0.20164   1.3744 
 C                    -2.76718   1.70714  -1.09764 
 H                    -3.20795  -0.40564  -1.10456 
 O                    -1.75803   2.60329  -0.68626 
 H                    -3.70254   2.00609  -0.60267 
 H                    -2.92194   1.75928  -2.19021 
 H                    -3.47593  -0.00621   2.31255 
 H                    -2.97179  -2.17132   0.98779 
 H                    -0.91963   2.1749   -0.91548 
 C                     1.18839   0.68458   0.7643 
 N                     2.35584   1.23836   1.08848 
 C                     3.4722    0.68694   0.52435 
 N                     3.28378  -0.40099  -0.33917 
 C                     2.08878  -1.00646  -0.70118 
 H                     0.32436   1.16876   1.24033 
 H                     4.12385  -0.7923   -0.74422 
 O                     4.62566   1.07971   0.72497 
 O                     2.09237  -1.97337  -1.47768 
 

 GradGradGradGradGradGradGradGradGradGradGradGradGradGradGradGradGradGrad
 Berny optimization.
 Initialization pass.
                           ----------------------------
                           !    Initial Parameters    !
                           ! (Angstroms and Degrees)  !
 --------------------------                            --------------------------
 ! Name  Definition              Value          Derivative Info.                !
 --------------------------------------------------------------------------------
 ! R1    R(1,2)                  1.5296         estimate D2E/DX2                !
 ! R2    R(1,9)                  1.5225         estimate D2E/DX2                !
 ! R3    R(1,10)                 1.0988         estimate D2E/DX2                !
 ! R4    R(1,11)                 1.4265         estimate D2E/DX2                !
 ! R5    R(2,3)                  1.5348         estimate D2E/DX2                !
 ! R6    R(2,4)                  1.4204         estimate D2E/DX2                !
 ! R7    R(2,5)                  1.1007         estimate D2E/DX2                !
 ! R8    R(3,6)                  1.4715         estimate D2E/DX2                !
 ! R9    R(3,7)                  1.0975         estimate D2E/DX2                !
 ! R10   R(3,8)                  1.488          estimate D2E/DX2                !
 ! R11   R(4,18)                 0.9666         estimate D2E/DX2                !
 ! R12   R(6,9)                  1.4093         estimate D2E/DX2                !
 ! R13   R(8,20)                 1.3904         estimate D2E/DX2                !
 ! R14   R(8,24)                 1.4384         estimate D2E/DX2                !
 ! R15   R(9,12)                 1.5175         estimate D2E/DX2                !
 ! R16   R(9,13)                 1.1072         estimate D2E/DX2                !
 ! R17   R(11,17)                0.9608         estimate D2E/DX2                !
 ! R18   R(12,14)                1.4109         estimate D2E/DX2                !
 ! R19   R(12,15)                1.0997         estimate D2E/DX2                !
 ! R20   R(12,16)                1.1047         estimate D2E/DX2                !
 ! R21   R(14,19)                0.969          estimate D2E/DX2                !
 ! R22   R(20,21)                1.3322         estimate D2E/DX2                !
 ! R23   R(20,25)                1.0989         estimate D2E/DX2                !
 ! R24   R(21,22)                1.367          estimate D2E/DX2                !
 ! R25   R(22,23)                1.4017         estimate D2E/DX2                !
 ! R26   R(22,27)                1.2349         estimate D2E/DX2                !
 ! R27   R(23,24)                1.3877         estimate D2E/DX2                !
 ! R28   R(23,26)                1.0114         estimate D2E/DX2                !
 ! R29   R(24,28)                1.2401         estimate D2E/DX2                !
 ! A1    A(2,1,9)              101.9286         estimate D2E/DX2                !
 ! A2    A(2,1,10)             110.8421         estimate D2E/DX2                !
 ! A3    A(2,1,11)             113.454          estimate D2E/DX2                !
 ! A4    A(9,1,10)             109.2115         estimate D2E/DX2                !
 ! A5    A(9,1,11)             110.3007         estimate D2E/DX2                !
 ! A6    A(10,1,11)            110.7284         estimate D2E/DX2                !
 ! A7    A(1,2,3)              103.1588         estimate D2E/DX2                !
 ! A8    A(1,2,4)              109.2208         estimate D2E/DX2                !
 ! A9    A(1,2,5)              112.9857         estimate D2E/DX2                !
 ! A10   A(3,2,4)              110.0171         estimate D2E/DX2                !
 ! A11   A(3,2,5)              111.037          estimate D2E/DX2                !
 ! A12   A(4,2,5)              110.2048         estimate D2E/DX2                !
 ! A13   A(2,3,6)              104.6649         estimate D2E/DX2                !
 ! A14   A(2,3,7)              108.5931         estimate D2E/DX2                !
 ! A15   A(2,3,8)              116.6964         estimate D2E/DX2                !
 ! A16   A(6,3,7)              107.3427         estimate D2E/DX2                !
 ! A17   A(6,3,8)              111.1762         estimate D2E/DX2                !
 ! A18   A(7,3,8)              107.9844         estimate D2E/DX2                !
 ! A19   A(2,4,18)             105.8665         estimate D2E/DX2                !
 ! A20   A(3,6,9)              110.9719         estimate D2E/DX2                !
 ! A21   A(3,8,20)             124.1272         estimate D2E/DX2                !
 ! A22   A(3,8,24)             118.8712         estimate D2E/DX2                !
 ! A23   A(20,8,24)            116.9982         estimate D2E/DX2                !
 ! A24   A(1,9,6)              104.7345         estimate D2E/DX2                !
 ! A25   A(1,9,12)             114.3914         estimate D2E/DX2                !
 ! A26   A(1,9,13)             108.6389         estimate D2E/DX2                !
 ! A27   A(6,9,12)             107.4686         estimate D2E/DX2                !
 ! A28   A(6,9,13)             111.9381         estimate D2E/DX2                !
 ! A29   A(12,9,13)            109.6393         estimate D2E/DX2                !
 ! A30   A(1,11,17)            107.9673         estimate D2E/DX2                !
 ! A31   A(9,12,14)            111.4145         estimate D2E/DX2                !
 ! A32   A(9,12,15)            109.5215         estimate D2E/DX2                !
 ! A33   A(9,12,16)            108.8503         estimate D2E/DX2                !
 ! A34   A(14,12,15)           107.7259         estimate D2E/DX2                !
 ! A35   A(14,12,16)           111.014          estimate D2E/DX2                !
 ! A36   A(15,12,16)           108.2506         estimate D2E/DX2                !
 ! A37   A(12,14,19)           105.609          estimate D2E/DX2                !
 ! A38   A(8,20,21)            128.5356         estimate D2E/DX2                !
 ! A39   A(8,20,25)            117.857          estimate D2E/DX2                !
 ! A40   A(21,20,25)           113.6069         estimate D2E/DX2                !
 ! A41   A(20,21,22)           116.588          estimate D2E/DX2                !
 ! A42   A(21,22,23)           117.2295         estimate D2E/DX2                !
 ! A43   A(21,22,27)           124.574          estimate D2E/DX2                !
 ! A44   A(23,22,27)           118.1965         estimate D2E/DX2                !
 ! A45   A(22,23,24)           127.96           estimate D2E/DX2                !
 ! A46   A(22,23,26)           115.8089         estimate D2E/DX2                !
 ! A47   A(24,23,26)           116.2307         estimate D2E/DX2                !
 ! A48   A(8,24,23)            112.6882         estimate D2E/DX2                !
 ! A49   A(8,24,28)            127.2416         estimate D2E/DX2                !
 ! A50   A(23,24,28)           120.0692         estimate D2E/DX2                !
 ! D1    D(9,1,2,3)             35.4092         estimate D2E/DX2                !
 ! D2    D(9,1,2,4)            -81.578          estimate D2E/DX2                !
 ! D3    D(9,1,2,5)            155.3838         estimate D2E/DX2                !
 ! D4    D(10,1,2,3)           -80.7133         estimate D2E/DX2                !
 ! D5    D(10,1,2,4)           162.2995         estimate D2E/DX2                !
 ! D6    D(10,1,2,5)            39.2612         estimate D2E/DX2                !
 ! D7    D(11,1,2,3)           153.9768         estimate D2E/DX2                !
 ! D8    D(11,1,2,4)            36.9895         estimate D2E/DX2                !
 ! D9    D(11,1,2,5)           -86.0487         estimate D2E/DX2                !
 ! D10   D(2,1,9,6)            -36.9546         estimate D2E/DX2                !
 ! D11   D(2,1,9,12)          -154.3455         estimate D2E/DX2                !
 ! D12   D(2,1,9,13)            82.8072         estimate D2E/DX2                !
 ! D13   D(10,1,9,6)            80.349          estimate D2E/DX2                !
 ! D14   D(10,1,9,12)          -37.0418         estimate D2E/DX2                !
 ! D15   D(10,1,9,13)         -159.8892         estimate D2E/DX2                !
 ! D16   D(11,1,9,6)          -157.7442         estimate D2E/DX2                !
 ! D17   D(11,1,9,12)           84.865          estimate D2E/DX2                !
 ! D18   D(11,1,9,13)          -37.9824         estimate D2E/DX2                !
 ! D19   D(2,1,11,17)           88.0871         estimate D2E/DX2                !
 ! D20   D(9,1,11,17)         -158.2895         estimate D2E/DX2                !
 ! D21   D(10,1,11,17)         -37.2837         estimate D2E/DX2                !
 ! D22   D(1,2,3,6)            -21.8098         estimate D2E/DX2                !
 ! D23   D(1,2,3,7)           -136.2111         estimate D2E/DX2                !
 ! D24   D(1,2,3,8)            101.5266         estimate D2E/DX2                !
 ! D25   D(4,2,3,6)             94.6132         estimate D2E/DX2                !
 ! D26   D(4,2,3,7)            -19.7882         estimate D2E/DX2                !
 ! D27   D(4,2,3,8)           -142.0505         estimate D2E/DX2                !
 ! D28   D(5,2,3,6)           -143.1143         estimate D2E/DX2                !
 ! D29   D(5,2,3,7)            102.4844         estimate D2E/DX2                !
 ! D30   D(5,2,3,8)            -19.7779         estimate D2E/DX2                !
 ! D31   D(1,2,4,18)           -31.1336         estimate D2E/DX2                !
 ! D32   D(3,2,4,18)          -143.6907         estimate D2E/DX2                !
 ! D33   D(5,2,4,18)            93.5456         estimate D2E/DX2                !
 ! D34   D(2,3,6,9)             -1.3674         estimate D2E/DX2                !
 ! D35   D(7,3,6,9)            113.9099         estimate D2E/DX2                !
 ! D36   D(8,3,6,9)           -128.1944         estimate D2E/DX2                !
 ! D37   D(2,3,8,20)           -47.5533         estimate D2E/DX2                !
 ! D38   D(2,3,8,24)           133.139          estimate D2E/DX2                !
 ! D39   D(6,3,8,20)            72.361          estimate D2E/DX2                !
 ! D40   D(6,3,8,24)          -106.9467         estimate D2E/DX2                !
 ! D41   D(7,3,8,20)          -170.1324         estimate D2E/DX2                !
 ! D42   D(7,3,8,24)            10.5599         estimate D2E/DX2                !
 ! D43   D(3,6,9,1)             24.2631         estimate D2E/DX2                !
 ! D44   D(3,6,9,12)           146.2967         estimate D2E/DX2                !
 ! D45   D(3,6,9,13)           -93.2655         estimate D2E/DX2                !
 ! D46   D(3,8,20,21)         -179.5125         estimate D2E/DX2                !
 ! D47   D(3,8,20,25)            0.2231         estimate D2E/DX2                !
 ! D48   D(24,8,20,21)          -0.1929         estimate D2E/DX2                !
 ! D49   D(24,8,20,25)         179.5427         estimate D2E/DX2                !
 ! D50   D(3,8,24,23)          179.4815         estimate D2E/DX2                !
 ! D51   D(3,8,24,28)           -0.8861         estimate D2E/DX2                !
 ! D52   D(20,8,24,23)           0.1247         estimate D2E/DX2                !
 ! D53   D(20,8,24,28)         179.757          estimate D2E/DX2                !
 ! D54   D(1,9,12,14)           60.9041         estimate D2E/DX2                !
 ! D55   D(1,9,12,15)          -58.1762         estimate D2E/DX2                !
 ! D56   D(1,9,12,16)         -176.35           estimate D2E/DX2                !
 ! D57   D(6,9,12,14)          -54.9106         estimate D2E/DX2                !
 ! D58   D(6,9,12,15)         -173.9909         estimate D2E/DX2                !
 ! D59   D(6,9,12,16)           67.8352         estimate D2E/DX2                !
 ! D60   D(13,9,12,14)        -176.7919         estimate D2E/DX2                !
 ! D61   D(13,9,12,15)          64.1278         estimate D2E/DX2                !
 ! D62   D(13,9,12,16)         -54.046          estimate D2E/DX2                !
 ! D63   D(9,12,14,19)          43.5889         estimate D2E/DX2                !
 ! D64   D(15,12,14,19)        163.7339         estimate D2E/DX2                !
 ! D65   D(16,12,14,19)        -77.9071         estimate D2E/DX2                !
 ! D66   D(8,20,21,22)           0.0535         estimate D2E/DX2                !
 ! D67   D(25,20,21,22)       -179.6915         estimate D2E/DX2                !
 ! D68   D(20,21,22,23)          0.1331         estimate D2E/DX2                !
 ! D69   D(20,21,22,27)       -179.7745         estimate D2E/DX2                !
 ! D70   D(21,22,23,24)         -0.196          estimate D2E/DX2                !
 ! D71   D(21,22,23,26)       -179.9866         estimate D2E/DX2                !
 ! D72   D(27,22,23,24)        179.7177         estimate D2E/DX2                !
 ! D73   D(27,22,23,26)         -0.073          estimate D2E/DX2                !
 ! D74   D(22,23,24,8)           0.0569         estimate D2E/DX2                !
 ! D75   D(22,23,24,28)       -179.6048         estimate D2E/DX2                !
 ! D76   D(26,23,24,8)         179.8468         estimate D2E/DX2                !
 ! D77   D(26,23,24,28)          0.185          estimate D2E/DX2                !
 --------------------------------------------------------------------------------
 Trust Radius=3.00D-01 FncErr=1.00D-07 GrdErr=1.00D-06 EigMax=2.50D+02 EigMin=1.00D-04
 Number of steps in this run=    166 maximum allowed number of steps=    168.
 GradGradGradGradGradGradGradGradGradGradGradGradGradGradGradGradGradGrad

                          Input orientation:                          
 ---------------------------------------------------------------------
 Center     Atomic      Atomic             Coordinates (Angstroms)
 Number     Number       Type             X           Y           Z
 ---------------------------------------------------------------------
      1          6           0       -2.273017    0.044066    0.778248
      2          6           0       -1.339537   -1.167168    0.814682
      3          6           0       -0.409648   -0.927776   -0.382634
      4          8           0       -2.099694   -2.349672    0.611130
      5          1           0       -0.766502   -1.240173    1.751618
      6          8           0       -1.158561   -0.013101   -1.258937
      7          1           0       -0.287289   -1.873829   -0.925320
      8          6           0        0.945589   -0.393064   -0.080104
      9          6           0       -2.427101    0.277705   -0.718274
     10          1           0       -1.793088    0.921347    1.233626
     11          8           0       -3.545459   -0.201641    1.374397
     12          6           0       -2.767175    1.707144   -1.097645
     13          1           0       -3.207945   -0.405642   -1.104562
     14          8           0       -1.758031    2.603292   -0.686264
     15          1           0       -3.702536    2.006091   -0.602668
     16          1           0       -2.921943    1.759279   -2.190213
     17          1           0       -3.475933   -0.006209    2.312545
     18          1           0       -2.971787   -2.171316    0.987794
     19          1           0       -0.919633    2.174902   -0.915475
     20          6           0        1.188390    0.684575    0.764295
     21          7           0        2.355838    1.238363    1.088477
     22          6           0        3.472200    0.686940    0.524352
     23          7           0        3.283784   -0.400989   -0.339173
     24          6           0        2.088777   -1.006463   -0.701178
     25          1           0        0.324356    1.168764    1.240334
     26          1           0        4.123847   -0.792303   -0.744218
     27          8           0        4.625656    1.079707    0.724972
     28          8           0        2.092367   -1.973371   -1.477679
 ---------------------------------------------------------------------
                    Distance matrix (angstroms):
                    1          2          3          4          5
     1  C    0.000000
     2  C    1.529641   0.000000
     3  C    2.400889   1.534786   0.000000
     4  O    2.405816   1.420418   2.421902   0.000000
     5  H    2.205971   1.100703   2.186314   2.075838   0.000000
     6  O    2.322801   2.380025   1.471533   3.137267   3.274577
     7  H    3.244007   2.152720   1.097495   2.423204   2.792340
     8  C    3.359654   2.573262   1.487988   3.685087   2.646517
     9  C    1.522467   2.370740   2.374017   2.962705   3.340944
    10  H    1.098782   2.177870   2.818769   3.343811   2.448339
    11  O    1.426490   2.472168   3.667116   2.699417   2.990560
    12  C    2.555190   3.735882   3.607212   4.452325   4.561542
    13  H    2.149721   2.784667   2.936711   2.819765   3.849006
    14  O    2.993266   4.079748   3.791935   5.131454   4.658178
    15  H    2.792847   4.202644   4.415779   4.797403   4.970029
    16  H    3.489244   4.483023   4.098687   5.040545   5.401914
    17  H    1.950282   2.855802   4.185138   3.206348   3.029575
    18  H    2.332404   1.924194   3.160541   0.966557   2.512715
    19  H    3.039870   3.786713   3.189140   4.918825   4.335847
    20  C    3.520197   3.133992   2.543393   4.476786   2.915658
    21  N    4.790500   4.417843   3.808443   5.740524   4.041275
    22  C    5.786646   5.164767   4.301009   6.346223   4.815240
    23  N    5.685485   4.826335   3.731063   5.803643   4.634701
    24  C    4.724146   3.751932   2.519879   4.590169   3.771399
    25  H    2.867894   2.899362   2.751048   4.318716   2.693392
    26  H    6.628521   5.693791   4.549909   6.557044   5.508657
    27  O    6.976179   6.374953   5.532727   7.550095   5.959129
    28  O    5.311858   4.205098   2.924461   4.698734   4.374822
                    6          7          8          9         10
     6  O    0.000000
     7  H    2.081520   0.000000
     8  C    2.441611   2.104054   0.000000
     9  C    1.409283   3.041507   3.497460   0.000000
    10  H    2.736547   3.839464   3.309670   2.150851   0.000000
    11  O    3.559112   4.324417   4.724588   2.420696   2.086078
    12  C    2.360698   4.359231   4.385303   1.517521   2.645968
    13  H    2.092342   3.273825   4.278027   1.107203   3.038066
    14  O    2.744600   4.718564   4.081071   2.420131   2.552674
    15  H    3.313553   5.178976   5.256813   2.151143   2.862628
    16  H    2.667981   4.662706   4.903360   2.146284   3.701232
    17  H    4.257434   4.913169   5.042250   3.219708   2.203723
    18  H    3.604647   3.309839   4.432654   3.033983   3.318784
    19  H    2.227647   4.097826   3.281973   2.431194   2.636846
    20  C    3.176224   3.402625   1.390420   3.928782   3.027465
    21  N    4.407665   4.552718   2.452741   5.202280   4.163551
    22  C    5.011399   4.774185   2.813457   6.042627   5.318014
    23  N    4.553115   3.907095   2.352517   5.763554   5.476942
    24  C    3.441376   2.539341   1.438357   4.694948   4.746451
    25  H    3.137229   3.784381   2.137474   3.492942   2.131861
    26  H    5.364320   4.545395   3.271355   6.637809   6.469821
    27  O    6.211867   5.965221   4.044761   7.243449   6.440814
    28  O    3.802504   2.444948   2.401184   5.105843   5.552236
                   11         12         13         14         15
    11  O    0.000000
    12  C    3.218723   0.000000
    13  H    2.510133   2.158284   0.000000
    14  O    3.912655   1.410917   3.366141   0.000000
    15  H    2.967750   1.099669   2.512563   2.035863   0.000000
    16  H    4.115875   1.104706   2.438712   2.080604   1.786208
    17  H    0.960807   3.881664   3.450795   4.330536   3.549531
    18  H    2.087626   4.408330   2.747968   5.203129   4.529271
    19  H    4.217396   1.914522   3.454176   0.969003   2.805511
    20  C    4.854578   4.489873   4.899894   3.803550   5.247490
    21  N    6.081173   5.589646   6.202246   4.683658   6.336661
    22  C    7.124584   6.526982   6.962143   5.700291   7.381543
    23  N    7.043765   6.452411   6.536695   5.879292   7.394061
    24  C    6.058083   5.576838   5.345930   5.275271   6.528744
    25  H    4.107487   3.913255   4.522659   3.178991   4.507065
    26  H    7.978450   7.338823   7.350818   6.791901   8.312840
    27  O    8.296429   7.639997   8.180389   6.712999   8.484079
    28  O    6.561894   6.107845   5.539882   6.033055   7.083972
                   16         17         18         19         20
    16  H    0.000000
    17  H    4.868129   0.000000
    18  H    5.054878   2.587821   0.000000
    19  H    2.409760   4.659617   5.169466   0.000000
    20  C    5.174838   4.962879   5.051053   3.080010   0.000000
    21  N    6.235073   6.087434   6.326107   3.952422   1.332182
    22  C    7.028786   7.207957   7.064657   4.855443   2.296381
    23  N    6.826724   7.271948   6.635290   4.963472   2.605142
    24  C    5.913871   6.406952   5.460661   4.383781   2.412036
    25  H    4.759813   4.119757   4.699412   2.684648   1.098912
    26  H    7.631817   8.229119   7.433005   5.854086   3.615756
    27  O    8.119506   8.326785   8.267972   5.885639   3.460126
    28  O    6.291557   7.017228   5.635902   5.157168   3.592812
                   21         22         23         24         25
    21  N    0.000000
    22  C    1.366956   0.000000
    23  N    2.363629   1.401701   0.000000
    24  C    2.883302   2.506670   1.387692   0.000000
    25  H    2.038338   3.264002   3.703671   3.407970   0.000000
    26  H    3.257028   2.054768   1.011382   2.046760   4.713848
    27  O    2.304209   1.234899   2.263954   3.580749   4.332979
    28  O    4.119443   3.604070   2.277730   1.240112   4.515138
                   26         27         28
    26  H    0.000000
    27  O    2.432027   0.000000
    28  O    2.461666   4.537677   0.000000
 Stoichiometry    C9H11N2O6(2)
 Framework group  C1[X(C9H11N2O6)]
 Deg. of freedom    78
 Full point group                 C1      NOp   1
 Largest Abelian subgroup         C1      NOp   1
 Largest concise Abelian subgroup C1      NOp   1
                         Standard orientation:                         
 ---------------------------------------------------------------------
 Center     Atomic      Atomic             Coordinates (Angstroms)
 Number     Number       Type             X           Y           Z
 ---------------------------------------------------------------------
      1          6           0        2.273017    0.044066   -0.778248
      2          6           0        1.339537   -1.167168   -0.814682
      3          6           0        0.409648   -0.927776    0.382634
      4          8           0        2.099694   -2.349672   -0.611130
      5          1           0        0.766502   -1.240173   -1.751618
      6          8           0        1.158561   -0.013101    1.258937
      7          1           0        0.287289   -1.873829    0.925320
      8          6           0       -0.945589   -0.393064    0.080104
      9          6           0        2.427101    0.277705    0.718274
     10          1           0        1.793088    0.921347   -1.233626
     11          8           0        3.545459   -0.201641   -1.374397
     12          6           0        2.767175    1.707144    1.097645
     13          1           0        3.207945   -0.405642    1.104562
     14          8           0        1.758031    2.603292    0.686264
     15          1           0        3.702536    2.006091    0.602668
     16          1           0        2.921943    1.759279    2.190213
     17          1           0        3.475933   -0.006209   -2.312545
     18          1           0        2.971787   -2.171316   -0.987794
     19          1           0        0.919633    2.174902    0.915475
     20          6           0       -1.188390    0.684575   -0.764295
     21          7           0       -2.355838    1.238363   -1.088477
     22          6           0       -3.472200    0.686940   -0.524352
     23          7           0       -3.283784   -0.400989    0.339173
     24          6           0       -2.088777   -1.006463    0.701178
     25          1           0       -0.324356    1.168764   -1.240334
     26          1           0       -4.123847   -0.792303    0.744218
     27          8           0       -4.625656    1.079707   -0.724972
     28          8           0       -2.092367   -1.973371    1.477679
 ---------------------------------------------------------------------
 Rotational constants (GHZ):           0.8146180           0.2909707           0.2596905
 Standard basis: Aug-CC-pVDZ (5D, 7F)
 There are   524 symmetry adapted cartesian basis functions of A   symmetry.
 There are   490 symmetry adapted basis functions of A   symmetry.
   490 basis functions,   852 primitive gaussians,   524 cartesian basis functions
    64 alpha electrons       63 beta electrons
       nuclear repulsion energy      1286.3399064117 Hartrees.
 NAtoms=   28 NActive=   28 NUniq=   28 SFac= 1.00D+00 NAtFMM=   60 NAOKFM=F Big=F
 Integral buffers will be    131072 words long.
 Raffenetti 2 integral format.
 Two-electron integral symmetry is turned on.
 Nuclear repulsion after empirical dispersion term =     1286.3205977360 Hartrees.
 One-electron integrals computed using PRISM.
 NBasis=   490 RedAO= T EigKep=  2.99D-06  NBF=   490
 NBsUse=   490 1.00D-06 EigRej= -1.00D+00 NBFU=   490
 ExpMin= 2.97D-02 ExpMax= 1.17D+04 ExpMxC= 4.01D+02 IAcc=3 IRadAn=         5 AccDes= 0.00D+00
 Harris functional with IExCor= 1009 and IRadAn=       5 diagonalized for initial guess.
 HarFok:  IExCor= 1009 AccDes= 0.00D+00 IRadAn=         5 IDoV= 1 UseB2=F ITyADJ=14
 ICtDFT=  3500011 ScaDFX=  1.000000  1.000000  1.000000  1.000000
 FoFCou: FMM=F IPFlag=           0 FMFlag=      100000 FMFlg1=           0
         NFxFlg=           0 DoJE=T BraDBF=F KetDBF=T FulRan=T
         wScrn=  0.000000 ICntrl=       500 IOpCl=  0 I1Cent=   200000004 NGrid=           0
         NMat0=    1 NMatS0=      1 NMatT0=    0 NMatD0=    1 NMtDS0=    0 NMtDT0=    0
 Petite list used in FoFCou.
 Initial guess <Sx>= 0.0000 <Sy>= 0.0000 <Sz>= 0.5000 <S**2>= 0.7500 S= 0.5000
 Requested convergence on RMS density matrix=1.00D-08 within 128 cycles.
 Requested convergence on MAX density matrix=1.00D-06.
 Requested convergence on             energy=1.00D-06.
 No special actions if energy rises.
 Restarting incremental Fock formation.
 SCF Done:  E(UPBE1PBE) =  -909.547550541     A.U. after   21 cycles
            NFock= 21  Conv=0.46D-08     -V/T= 2.0054
 <Sx>= 0.0000 <Sy>= 0.0000 <Sz>= 0.5000 <S**2>= 0.7882 S= 0.5189
 <L.S>= 0.000000000000E+00
 Annihilation of the first spin contaminant:
 S**2 before annihilation     0.7882,   after     0.7509

 **********************************************************************

            Population analysis using the SCF Density.

 **********************************************************************

 Orbital symmetries:
 Alpha Orbitals:
       Occupied  (A) (A) (A) (A) (A) (A) (A) (A) (A) (A) (A) (A)
                 (A) (A) (A) (A) (A) (A) (A) (A) (A) (A) (A) (A)
                 (A) (A) (A) (A) (A) (A) (A) (A) (A) (A) (A) (A)
                 (A) (A) (A) (A) (A) (A) (A) (A) (A) (A) (A) (A)
                 (A) (A) (A) (A) (A) (A) (A) (A) (A) (A) (A) (A)
                 (A) (A) (A) (A)
       Virtual   (A) (A) (A) (A) (A) (A) (A) (A) (A) (A) (A) (A)
                 (A) (A) (A) (A) (A) (A) (A) (A) (A) (A) (A) (A)
                 (A) (A) (A) (A) (A) (A) (A) (A) (A) (A) (A) (A)
                 (A) (A) (A) (A) (A) (A) (A) (A) (A) (A) (A) (A)
                 (A) (A) (A) (A) (A) (A) (A) (A) (A) (A) (A) (A)
                 (A) (A) (A) (A) (A) (A) (A) (A) (A) (A) (A) (A)
                 (A) (A) (A) (A) (A) (A) (A) (A) (A) (A) (A) (A)
                 (A) (A) (A) (A) (A) (A) (A) (A) (A) (A) (A) (A)
                 (A) (A) (A) (A) (A) (A) (A) (A) (A) (A) (A) (A)
                 (A) (A) (A) (A) (A) (A) (A) (A) (A) (A) (A) (A)
                 (A) (A) (A) (A) (A) (A) (A) (A) (A) (A) (A) (A)
                 (A) (A) (A) (A) (A) (A) (A) (A) (A) (A) (A) (A)
                 (A) (A) (A) (A) (A) (A) (A) (A) (A) (A) (A) (A)
                 (A) (A) (A) (A) (A) (A) (A) (A) (A) (A) (A) (A)
                 (A) (A) (A) (A) (A) (A) (A) (A) (A) (A) (A) (A)
                 (A) (A) (A) (A) (A) (A) (A) (A) (A) (A) (A) (A)
                 (A) (A) (A) (A) (A) (A) (A) (A) (A) (A) (A) (A)
                 (A) (A) (A) (A) (A) (A) (A) (A) (A) (A) (A) (A)
                 (A) (A) (A) (A) (A) (A) (A) (A) (A) (A) (A) (A)
                 (A) (A) (A) (A) (A) (A) (A) (A) (A) (A) (A) (A)
                 (A) (A) (A) (A) (A) (A) (A) (A) (A) (A) (A) (A)
                 (A) (A) (A) (A) (A) (A) (A) (A) (A) (A) (A) (A)
                 (A) (A) (A) (A) (A) (A) (A) (A) (A) (A) (A) (A)
                 (A) (A) (A) (A) (A) (A) (A) (A) (A) (A) (A) (A)
                 (A) (A) (A) (A) (A) (A) (A) (A) (A) (A) (A) (A)
                 (A) (A) (A) (A) (A) (A) (A) (A) (A) (A) (A) (A)
                 (A) (A) (A) (A) (A) (A) (A) (A) (A) (A) (A) (A)
                 (A) (A) (A) (A) (A) (A) (A) (A) (A) (A) (A) (A)
                 (A) (A) (A) (A) (A) (A) (A) (A) (A) (A) (A) (A)
                 (A) (A) (A) (A) (A) (A) (A) (A) (A) (A) (A) (A)
                 (A) (A) (A) (A) (A) (A) (A) (A) (A) (A) (A) (A)
                 (A) (A) (A) (A) (A) (A) (A) (A) (A) (A) (A) (A)
                 (A) (A) (A) (A) (A) (A) (A) (A) (A) (A) (A) (A)
                 (A) (A) (A) (A) (A) (A) (A) (A) (A) (A) (A) (A)
                 (A) (A) (A) (A) (A) (A) (A) (A) (A) (A) (A) (A)
                 (A) (A) (A) (A) (A) (A)
 Beta  Orbitals:
       Occupied  (A) (A) (A) (A) (A) (A) (A) (A) (A) (A) (A) (A)
                 (A) (A) (A) (A) (A) (A) (A) (A) (A) (A) (A) (A)
                 (A) (A) (A) (A) (A) (A) (A) (A) (A) (A) (A) (A)
                 (A) (A) (A) (A) (A) (A) (A) (A) (A) (A) (A) (A)
                 (A) (A) (A) (A) (A) (A) (A) (A) (A) (A) (A) (A)
                 (A) (A) (A)
       Virtual   (A) (A) (A) (A) (A) (A) (A) (A) (A) (A) (A) (A)
                 (A) (A) (A) (A) (A) (A) (A) (A) (A) (A) (A) (A)
                 (A) (A) (A) (A) (A) (A) (A) (A) (A) (A) (A) (A)
                 (A) (A) (A) (A) (A) (A) (A) (A) (A) (A) (A) (A)
                 (A) (A) (A) (A) (A) (A) (A) (A) (A) (A) (A) (A)
                 (A) (A) (A) (A) (A) (A) (A) (A) (A) (A) (A) (A)
                 (A) (A) (A) (A) (A) (A) (A) (A) (A) (A) (A) (A)
                 (A) (A) (A) (A) (A) (A) (A) (A) (A) (A) (A) (A)
                 (A) (A) (A) (A) (A) (A) (A) (A) (A) (A) (A) (A)
                 (A) (A) (A) (A) (A) (A) (A) (A) (A) (A) (A) (A)
                 (A) (A) (A) (A) (A) (A) (A) (A) (A) (A) (A) (A)
                 (A) (A) (A) (A) (A) (A) (A) (A) (A) (A) (A) (A)
                 (A) (A) (A) (A) (A) (A) (A) (A) (A) (A) (A) (A)
                 (A) (A) (A) (A) (A) (A) (A) (A) (A) (A) (A) (A)
                 (A) (A) (A) (A) (A) (A) (A) (A) (A) (A) (A) (A)
                 (A) (A) (A) (A) (A) (A) (A) (A) (A) (A) (A) (A)
                 (A) (A) (A) (A) (A) (A) (A) (A) (A) (A) (A) (A)
                 (A) (A) (A) (A) (A) (A) (A) (A) (A) (A) (A) (A)
                 (A) (A) (A) (A) (A) (A) (A) (A) (A) (A) (A) (A)
                 (A) (A) (A) (A) (A) (A) (A) (A) (A) (A) (A) (A)
                 (A) (A) (A) (A) (A) (A) (A) (A) (A) (A) (A) (A)
                 (A) (A) (A) (A) (A) (A) (A) (A) (A) (A) (A) (A)
                 (A) (A) (A) (A) (A) (A) (A) (A) (A) (A) (A) (A)
                 (A) (A) (A) (A) (A) (A) (A) (A) (A) (A) (A) (A)
                 (A) (A) (A) (A) (A) (A) (A) (A) (A) (A) (A) (A)
                 (A) (A) (A) (A) (A) (A) (A) (A) (A) (A) (A) (A)
                 (A) (A) (A) (A) (A) (A) (A) (A) (A) (A) (A) (A)
                 (A) (A) (A) (A) (A) (A) (A) (A) (A) (A) (A) (A)
                 (A) (A) (A) (A) (A) (A) (A) (A) (A) (A) (A) (A)
                 (A) (A) (A) (A) (A) (A) (A) (A) (A) (A) (A) (A)
                 (A) (A) (A) (A) (A) (A) (A) (A) (A) (A) (A) (A)
                 (A) (A) (A) (A) (A) (A) (A) (A) (A) (A) (A) (A)
                 (A) (A) (A) (A) (A) (A) (A) (A) (A) (A) (A) (A)
                 (A) (A) (A) (A) (A) (A) (A) (A) (A) (A) (A) (A)
                 (A) (A) (A) (A) (A) (A) (A) (A) (A) (A) (A) (A)
                 (A) (A) (A) (A) (A) (A) (A)
 The electronic state is 2-A.
 Alpha  occ. eigenvalues --  -19.28063 -19.27377 -19.25137 -19.24547 -19.24395
 Alpha  occ. eigenvalues --  -19.24219 -14.47222 -14.46333 -10.39657 -10.38319
 Alpha  occ. eigenvalues --  -10.33736 -10.32956 -10.32717 -10.32383 -10.32332
 Alpha  occ. eigenvalues --  -10.31003 -10.29551  -1.13269  -1.12815  -1.10755
 Alpha  occ. eigenvalues --   -1.10444  -1.07907  -1.06953  -1.02799  -0.96964
 Alpha  occ. eigenvalues --   -0.89263  -0.83091  -0.80528  -0.74107  -0.72201
 Alpha  occ. eigenvalues --   -0.69100  -0.66317  -0.63768  -0.61582  -0.59704
 Alpha  occ. eigenvalues --   -0.58478  -0.56270  -0.55277  -0.53397  -0.52902
 Alpha  occ. eigenvalues --   -0.51992  -0.51090  -0.50861  -0.48594  -0.48134
 Alpha  occ. eigenvalues --   -0.46940  -0.46432  -0.45679  -0.44621  -0.42608
 Alpha  occ. eigenvalues --   -0.41706  -0.40926  -0.39272  -0.38220  -0.37449
 Alpha  occ. eigenvalues --   -0.35256  -0.34201  -0.33463  -0.33430  -0.32502
 Alpha  occ. eigenvalues --   -0.31807  -0.31257  -0.30651  -0.30112
 Alpha virt. eigenvalues --   -0.07741  -0.02959  -0.02563  -0.00666   0.00012
 Alpha virt. eigenvalues --    0.00536   0.01466   0.02090   0.02932   0.03036
 Alpha virt. eigenvalues --    0.03364   0.04051   0.04485   0.05077   0.05653
 Alpha virt. eigenvalues --    0.05980   0.06439   0.07055   0.07322   0.08015
 Alpha virt. eigenvalues --    0.08060   0.08585   0.08892   0.09091   0.09349
 Alpha virt. eigenvalues --    0.10013   0.10154   0.10432   0.10546   0.10890
 Alpha virt. eigenvalues --    0.11235   0.11569   0.11592   0.11969   0.12376
 Alpha virt. eigenvalues --    0.12507   0.12983   0.13554   0.14167   0.14339
 Alpha virt. eigenvalues --    0.14900   0.15175   0.15667   0.16136   0.16429
 Alpha virt. eigenvalues --    0.16711   0.16986   0.17457   0.18254   0.18510
 Alpha virt. eigenvalues --    0.18605   0.19178   0.19310   0.19587   0.19709
 Alpha virt. eigenvalues --    0.20173   0.20591   0.21624   0.21674   0.21688
 Alpha virt. eigenvalues --    0.22442   0.22608   0.23119   0.23411   0.23580
 Alpha virt. eigenvalues --    0.23969   0.24202   0.24712   0.25182   0.25618
 Alpha virt. eigenvalues --    0.25900   0.26119   0.26619   0.26691   0.27003
 Alpha virt. eigenvalues --    0.27067   0.27570   0.27869   0.28161   0.28731
 Alpha virt. eigenvalues --    0.29118   0.29362   0.29468   0.29846   0.30059
 Alpha virt. eigenvalues --    0.30393   0.31036   0.31656   0.31935   0.32214
 Alpha virt. eigenvalues --    0.32785   0.33364   0.33655   0.33746   0.33984
 Alpha virt. eigenvalues --    0.34970   0.35638   0.35925   0.36139   0.36610
 Alpha virt. eigenvalues --    0.36913   0.37701   0.38339   0.38632   0.39305
 Alpha virt. eigenvalues --    0.39436   0.39848   0.40009   0.40351   0.41159
 Alpha virt. eigenvalues --    0.41933   0.42416   0.42923   0.43372   0.44125
 Alpha virt. eigenvalues --    0.44222   0.45037   0.45432   0.46000   0.46681
 Alpha virt. eigenvalues --    0.46939   0.48275   0.48792   0.49514   0.49651
 Alpha virt. eigenvalues --    0.50469   0.51220   0.51687   0.52403   0.53044
 Alpha virt. eigenvalues --    0.53523   0.53982   0.54404   0.54976   0.55028
 Alpha virt. eigenvalues --    0.55271   0.55661   0.56224   0.56853   0.56976
 Alpha virt. eigenvalues --    0.57461   0.58466   0.58596   0.58865   0.59475
 Alpha virt. eigenvalues --    0.59775   0.60463   0.61521   0.61858   0.62159
 Alpha virt. eigenvalues --    0.63021   0.63758   0.63909   0.64268   0.64733
 Alpha virt. eigenvalues --    0.65086   0.65284   0.66331   0.66820   0.67273
 Alpha virt. eigenvalues --    0.68254   0.68698   0.69532   0.70088   0.70469
 Alpha virt. eigenvalues --    0.71081   0.71666   0.72485   0.72765   0.73686
 Alpha virt. eigenvalues --    0.73879   0.74347   0.74747   0.76112   0.76468
 Alpha virt. eigenvalues --    0.76911   0.77469   0.77813   0.78484   0.79125
 Alpha virt. eigenvalues --    0.79569   0.80261   0.80913   0.82396   0.83247
 Alpha virt. eigenvalues --    0.84094   0.84220   0.85307   0.86659   0.87001
 Alpha virt. eigenvalues --    0.87203   0.88255   0.88911   0.89740   0.90199
 Alpha virt. eigenvalues --    0.90566   0.91564   0.92422   0.92634   0.94241
 Alpha virt. eigenvalues --    0.94512   0.95444   0.95711   0.96523   0.97127
 Alpha virt. eigenvalues --    0.97805   0.99703   1.00524   1.01045   1.02514
 Alpha virt. eigenvalues --    1.02677   1.03277   1.03865   1.04676   1.05392
 Alpha virt. eigenvalues --    1.06467   1.06710   1.07963   1.10185   1.10400
 Alpha virt. eigenvalues --    1.11251   1.12030   1.12411   1.13618   1.14435
 Alpha virt. eigenvalues --    1.15069   1.16125   1.16302   1.19013   1.19265
 Alpha virt. eigenvalues --    1.19759   1.20303   1.21229   1.22757   1.23453
 Alpha virt. eigenvalues --    1.24119   1.24551   1.26572   1.26877   1.27624
 Alpha virt. eigenvalues --    1.29066   1.29889   1.31063   1.31886   1.32045
 Alpha virt. eigenvalues --    1.34070   1.34803   1.36685   1.36716   1.37291
 Alpha virt. eigenvalues --    1.38603   1.39259   1.40544   1.40618   1.41973
 Alpha virt. eigenvalues --    1.42860   1.43939   1.46426   1.48270   1.48382
 Alpha virt. eigenvalues --    1.49730   1.49880   1.50891   1.52247   1.52690
 Alpha virt. eigenvalues --    1.53070   1.53808   1.54551   1.55584   1.56300
 Alpha virt. eigenvalues --    1.56460   1.58246   1.58741   1.60000   1.61341
 Alpha virt. eigenvalues --    1.61797   1.63245   1.63599   1.65460   1.66441
 Alpha virt. eigenvalues --    1.68431   1.68713   1.69640   1.72552   1.73510
 Alpha virt. eigenvalues --    1.73757   1.75187   1.75558   1.76028   1.76373
 Alpha virt. eigenvalues --    1.77051   1.78441   1.79420   1.79718   1.80293
 Alpha virt. eigenvalues --    1.82863   1.83553   1.85049   1.85613   1.86691
 Alpha virt. eigenvalues --    1.86954   1.88311   1.89680   1.91638   1.92123
 Alpha virt. eigenvalues --    1.93263   1.93577   1.94510   1.95243   1.96370
 Alpha virt. eigenvalues --    1.96864   1.99087   2.00239   2.00619   2.00880
 Alpha virt. eigenvalues --    2.02625   2.03743   2.05240   2.06547   2.06969
 Alpha virt. eigenvalues --    2.08748   2.09454   2.09710   2.11918   2.12809
 Alpha virt. eigenvalues --    2.13237   2.13647   2.15444   2.17654   2.18531
 Alpha virt. eigenvalues --    2.19795   2.20969   2.21479   2.22650   2.23885
 Alpha virt. eigenvalues --    2.25134   2.25984   2.26240   2.28829   2.29689
 Alpha virt. eigenvalues --    2.30407   2.31934   2.33629   2.34675   2.35939
 Alpha virt. eigenvalues --    2.38616   2.39484   2.40400   2.41608   2.42360
 Alpha virt. eigenvalues --    2.43146   2.45822   2.46617   2.47645   2.49039
 Alpha virt. eigenvalues --    2.49725   2.50335   2.50697   2.53972   2.56408
 Alpha virt. eigenvalues --    2.56746   2.59145   2.60717   2.62055   2.64386
 Alpha virt. eigenvalues --    2.65405   2.67064   2.70310   2.71175   2.72394
 Alpha virt. eigenvalues --    2.74510   2.76424   2.76566   2.80799   2.82936
 Alpha virt. eigenvalues --    2.85470   2.86620   2.87653   2.89909   2.93671
 Alpha virt. eigenvalues --    2.97048   2.98874   3.02333   3.05368   3.12650
 Alpha virt. eigenvalues --    3.17493   3.22534   3.24949   3.29246   3.31545
 Alpha virt. eigenvalues --    3.33447   3.36470   3.37330   3.38786   3.39687
 Alpha virt. eigenvalues --    3.41558   3.42312   3.42613   3.44248   3.46052
 Alpha virt. eigenvalues --    3.46830   3.49072   3.50149   3.51004   3.55585
 Alpha virt. eigenvalues --    3.56927   3.58952   3.60181   3.60818   3.61327
 Alpha virt. eigenvalues --    3.63618   3.64856   3.67115   3.68734   3.71206
 Alpha virt. eigenvalues --    3.71932   3.77987   3.80707   3.84482   3.89359
 Alpha virt. eigenvalues --    3.99703   4.03586   4.05321   4.23876   4.28532
 Alpha virt. eigenvalues --    4.66714
  Beta  occ. eigenvalues --  -19.28057 -19.27250 -19.25134 -19.24220 -19.24105
  Beta  occ. eigenvalues --  -19.23800 -14.47268 -14.45516 -10.39825 -10.38464
  Beta  occ. eigenvalues --  -10.34043 -10.33019 -10.32340 -10.32316 -10.31845
  Beta  occ. eigenvalues --  -10.31004 -10.29550  -1.12800  -1.12454  -1.10408
  Beta  occ. eigenvalues --   -1.09814  -1.07891  -1.06913  -1.01626  -0.96407
  Beta  occ. eigenvalues --   -0.87723  -0.83007  -0.80115  -0.74015  -0.72112
  Beta  occ. eigenvalues --   -0.68819  -0.66117  -0.63645  -0.61288  -0.59465
  Beta  occ. eigenvalues --   -0.58355  -0.56203  -0.55173  -0.52871  -0.52431
  Beta  occ. eigenvalues --   -0.51474  -0.50850  -0.50497  -0.48281  -0.47647
  Beta  occ. eigenvalues --   -0.46765  -0.46104  -0.44693  -0.43343  -0.42518
  Beta  occ. eigenvalues --   -0.41609  -0.39298  -0.38669  -0.37865  -0.37333
  Beta  occ. eigenvalues --   -0.34383  -0.33976  -0.32866  -0.32093  -0.31433
  Beta  occ. eigenvalues --   -0.31236  -0.30779  -0.30264
  Beta virt. eigenvalues --   -0.19647  -0.06456  -0.02952  -0.00887  -0.00513
  Beta virt. eigenvalues --    0.00038   0.00603   0.01501   0.02112   0.02935
  Beta virt. eigenvalues --    0.03071   0.03387   0.04088   0.04690   0.05113
  Beta virt. eigenvalues --    0.05690   0.06062   0.06698   0.07068   0.07404
  Beta virt. eigenvalues --    0.08013   0.08508   0.08728   0.08950   0.09296
  Beta virt. eigenvalues --    0.09376   0.10044   0.10175   0.10463   0.10606
  Beta virt. eigenvalues --    0.10912   0.11313   0.11600   0.11640   0.12006
  Beta virt. eigenvalues --    0.12565   0.12601   0.13097   0.13576   0.14321
  Beta virt. eigenvalues --    0.14491   0.15032   0.15298   0.15705   0.16198
  Beta virt. eigenvalues --    0.16614   0.16739   0.17044   0.17681   0.18426
  Beta virt. eigenvalues --    0.18613   0.18634   0.19205   0.19384   0.19678
  Beta virt. eigenvalues --    0.19721   0.20218   0.20645   0.21703   0.21771
  Beta virt. eigenvalues --    0.21796   0.22482   0.22679   0.23241   0.23477
  Beta virt. eigenvalues --    0.23756   0.24011   0.24367   0.24890   0.25416
  Beta virt. eigenvalues --    0.25772   0.26032   0.26145   0.26698   0.26740
  Beta virt. eigenvalues --    0.27095   0.27207   0.27677   0.27938   0.28212
  Beta virt. eigenvalues --    0.28831   0.29181   0.29417   0.29612   0.29890
  Beta virt. eigenvalues --    0.30231   0.30613   0.31080   0.31763   0.31988
  Beta virt. eigenvalues --    0.32288   0.32862   0.33458   0.33708   0.33775
  Beta virt. eigenvalues --    0.34080   0.35003   0.35683   0.35985   0.36228
  Beta virt. eigenvalues --    0.36680   0.36945   0.37772   0.38439   0.38766
  Beta virt. eigenvalues --    0.39369   0.39696   0.39908   0.40088   0.40484
  Beta virt. eigenvalues --    0.41228   0.42000   0.42551   0.43183   0.43482
  Beta virt. eigenvalues --    0.44195   0.44283   0.45164   0.45513   0.46053
  Beta virt. eigenvalues --    0.46771   0.47057   0.48340   0.49040   0.49570
  Beta virt. eigenvalues --    0.49819   0.50553   0.51293   0.51756   0.52531
  Beta virt. eigenvalues --    0.53158   0.53559   0.54043   0.54460   0.55007
  Beta virt. eigenvalues --    0.55186   0.55350   0.55729   0.56367   0.56952
  Beta virt. eigenvalues --    0.57148   0.57629   0.58600   0.58811   0.58990
  Beta virt. eigenvalues --    0.59568   0.59950   0.60532   0.61687   0.61965
  Beta virt. eigenvalues --    0.62408   0.63055   0.63893   0.64112   0.64592
  Beta virt. eigenvalues --    0.64959   0.65156   0.65410   0.66376   0.66903
  Beta virt. eigenvalues --    0.67340   0.68358   0.68786   0.69642   0.70181
  Beta virt. eigenvalues --    0.70545   0.71132   0.71739   0.72582   0.73003
  Beta virt. eigenvalues --    0.73796   0.74000   0.74670   0.74886   0.76284
  Beta virt. eigenvalues --    0.76569   0.77065   0.77835   0.78063   0.78529
  Beta virt. eigenvalues --    0.79216   0.79655   0.80402   0.81039   0.82490
  Beta virt. eigenvalues --    0.83315   0.84137   0.84339   0.85471   0.86758
  Beta virt. eigenvalues --    0.87083   0.87413   0.88337   0.89070   0.89894
  Beta virt. eigenvalues --    0.90441   0.90696   0.91765   0.92514   0.92831
  Beta virt. eigenvalues --    0.94379   0.94571   0.95585   0.95999   0.97005
  Beta virt. eigenvalues --    0.97450   0.98047   0.99998   1.00771   1.01310
  Beta virt. eigenvalues --    1.02736   1.02915   1.03386   1.04159   1.04958
  Beta virt. eigenvalues --    1.05744   1.06693   1.07118   1.08123   1.10350
  Beta virt. eigenvalues --    1.10543   1.11466   1.12216   1.12610   1.13743
  Beta virt. eigenvalues --    1.14531   1.15201   1.16242   1.16412   1.19153
  Beta virt. eigenvalues --    1.19550   1.19889   1.20467   1.21452   1.22953
  Beta virt. eigenvalues --    1.23666   1.24263   1.24679   1.26646   1.26975
  Beta virt. eigenvalues --    1.27774   1.29206   1.30011   1.31261   1.32017
  Beta virt. eigenvalues --    1.32326   1.34249   1.34996   1.36851   1.37183
  Beta virt. eigenvalues --    1.37865   1.39057   1.39659   1.40747   1.41119
  Beta virt. eigenvalues --    1.42102   1.43083   1.44276   1.46650   1.48378
  Beta virt. eigenvalues --    1.48528   1.49914   1.50221   1.51156   1.52474
  Beta virt. eigenvalues --    1.52925   1.53696   1.54185   1.54715   1.55987
  Beta virt. eigenvalues --    1.56531   1.56736   1.58469   1.58951   1.60048
  Beta virt. eigenvalues --    1.61487   1.61994   1.63301   1.63902   1.65615
  Beta virt. eigenvalues --    1.66604   1.68713   1.68824   1.69867   1.72759
  Beta virt. eigenvalues --    1.73706   1.73822   1.75281   1.75699   1.76246
  Beta virt. eigenvalues --    1.76480   1.77181   1.78643   1.79559   1.79777
  Beta virt. eigenvalues --    1.80432   1.82898   1.83719   1.85039   1.85840
  Beta virt. eigenvalues --    1.86932   1.87089   1.88652   1.89917   1.91779
  Beta virt. eigenvalues --    1.92268   1.93427   1.93809   1.94562   1.95502
  Beta virt. eigenvalues --    1.96539   1.97126   1.99236   2.00484   2.00805
  Beta virt. eigenvalues --    2.00994   2.02820   2.04086   2.05497   2.06672
  Beta virt. eigenvalues --    2.07077   2.08837   2.09739   2.09819   2.12139
  Beta virt. eigenvalues --    2.12878   2.13419   2.13822   2.15598   2.17783
  Beta virt. eigenvalues --    2.18678   2.19884   2.21144   2.21694   2.22922
  Beta virt. eigenvalues --    2.24006   2.25191   2.26196   2.26568   2.29097
  Beta virt. eigenvalues --    2.29787   2.30605   2.32139   2.33716   2.34788
  Beta virt. eigenvalues --    2.36134   2.39018   2.39891   2.41132   2.41716
  Beta virt. eigenvalues --    2.42580   2.43300   2.45953   2.46918   2.47786
  Beta virt. eigenvalues --    2.49508   2.50122   2.50483   2.51109   2.54089
  Beta virt. eigenvalues --    2.56530   2.56924   2.59325   2.61139   2.62938
  Beta virt. eigenvalues --    2.64545   2.65461   2.67225   2.70447   2.71410
  Beta virt. eigenvalues --    2.72465   2.74582   2.76520   2.76615   2.80858
  Beta virt. eigenvalues --    2.83046   2.85581   2.86876   2.87780   2.89974
  Beta virt. eigenvalues --    2.93776   2.97192   2.99189   3.02814   3.05608
  Beta virt. eigenvalues --    3.12805   3.17650   3.22989   3.25200   3.29297
  Beta virt. eigenvalues --    3.31726   3.35004   3.36749   3.38189   3.39877
  Beta virt. eigenvalues --    3.40761   3.42589   3.42667   3.43332   3.44309
  Beta virt. eigenvalues --    3.46216   3.46981   3.49183   3.50247   3.51069
  Beta virt. eigenvalues --    3.55931   3.57045   3.59359   3.60301   3.61195
  Beta virt. eigenvalues --    3.61371   3.63821   3.65112   3.67207   3.68928
  Beta virt. eigenvalues --    3.71786   3.72055   3.78623   3.80814   3.84628
  Beta virt. eigenvalues --    3.89661   3.99789   4.03632   4.05784   4.24062
  Beta virt. eigenvalues --    4.28676   4.66923
          Condensed to atoms (all electrons):
               1          2          3          4          5          6
     1  C   11.266748  -3.337635   0.978993   0.170712   0.373486  -0.341435
     2  C   -3.337635  10.874501  -2.794998  -0.570077  -1.195709   0.188042
     3  C    0.978993  -2.794998  15.227028   0.179572   0.115925  -0.183933
     4  O    0.170712  -0.570077   0.179572   8.746459  -0.079891   0.012226
     5  H    0.373486  -1.195709   0.115925  -0.079891   2.195244   0.024534
     6  O   -0.341435   0.188042  -0.183933   0.012226   0.024534   9.322346
     7  H    0.084087   0.166744  -1.141977  -0.020440   0.072849  -0.079561
     8  C    0.044649   0.981807  -3.568414   0.018084  -0.216177  -0.085783
     9  C   -2.220059   0.584527  -2.918460  -0.042275   0.209596   0.025513
    10  H   -1.010741   0.522868   0.016023  -0.024971  -0.110519   0.075948
    11  O   -0.678976   0.334569   0.088331  -0.036140  -0.051676   0.016237
    12  C    0.015074  -0.346646   0.600163   0.042871   0.012890  -0.049990
    13  H    0.540833  -0.273699   0.301422   0.033738   0.011733  -0.074940
    14  O   -0.106734   0.061858  -0.052106  -0.000602  -0.003115  -0.043669
    15  H   -0.004338   0.090049   0.023331  -0.000047   0.003090   0.079461
    16  H   -0.065177  -0.005337  -0.001591   0.000771   0.000295  -0.059842
    17  H    0.306635  -0.214082  -0.014226   0.010578   0.022155  -0.003383
    18  H   -0.233569   0.224619  -0.104717   0.270932  -0.020100   0.012175
    19  H    0.086064  -0.021916  -0.006273  -0.000038   0.002033   0.042137
    20  C   -0.589882   0.233802  -1.424124  -0.025360   0.025657   0.075401
    21  N    0.002873  -0.059402   0.292405   0.001173  -0.009731  -0.007963
    22  C   -0.053112  -0.011567  -0.317949   0.002440   0.001917  -0.002174
    23  N   -0.022442   0.007290  -0.091155  -0.000664  -0.002210  -0.002440
    24  C    0.270500  -0.664189  -0.336235   0.002348   0.100439  -0.082522
    25  H   -0.021824   0.062464   0.081402   0.001106  -0.025494   0.019019
    26  H    0.001128  -0.000030  -0.003634   0.000002   0.001654  -0.000154
    27  O    0.001354   0.000649   0.015632  -0.000030  -0.000006  -0.000153
    28  O   -0.006483   0.002384   0.081965   0.000257  -0.006848   0.003197
               7          8          9         10         11         12
     1  C    0.084087   0.044649  -2.220059  -1.010741  -0.678976   0.015074
     2  C    0.166744   0.981807   0.584527   0.522868   0.334569  -0.346646
     3  C   -1.141977  -3.568414  -2.918460   0.016023   0.088331   0.600163
     4  O   -0.020440   0.018084  -0.042275  -0.024971  -0.036140   0.042871
     5  H    0.072849  -0.216177   0.209596  -0.110519  -0.051676   0.012890
     6  O   -0.079561  -0.085783   0.025513   0.075948   0.016237  -0.049990
     7  H    2.136195   0.274158   0.161911  -0.008269  -0.006567  -0.012725
     8  C    0.274158  14.400798   0.561531  -0.150883  -0.029958  -0.186114
     9  C    0.161911   0.561531  11.200326  -0.626282   0.124377  -0.591160
    10  H   -0.008269  -0.150883  -0.626282   2.753621  -0.079499   0.000691
    11  O   -0.006567  -0.029958   0.124377  -0.079499   8.580264   0.006385
    12  C   -0.012725  -0.186114  -0.591160   0.000691   0.006385   5.088400
    13  H    0.012321  -0.063262  -1.429924   0.149154  -0.057444   0.050037
    14  O   -0.001562   0.027346   0.083380   0.035683   0.011683   0.092547
    15  H   -0.001336  -0.022390  -0.206292  -0.033499   0.022375   0.128019
    16  H   -0.000333   0.006812   0.376819   0.017503   0.003581   0.065802
    17  H    0.000808   0.020065   0.004201  -0.121423   0.298382  -0.001072
    18  H   -0.011431   0.011372   0.034550   0.024721   0.053153  -0.007069
    19  H    0.001680   0.019130  -0.102997  -0.005628  -0.003523  -0.052091
    20  C    0.004701  -3.183958  -0.040599   0.181774   0.014539  -0.046509
    21  N   -0.002288  -0.134693  -0.023566  -0.021818   0.001035   0.007703
    22  C    0.018851  -0.082157   0.005149  -0.012399   0.000954  -0.005664
    23  N   -0.002735   0.092415   0.007458   0.001033   0.000160  -0.001773
    24  C    0.008805  -3.934573   0.001666  -0.030229  -0.006483  -0.006223
    25  H   -0.008514  -0.353179   0.065716  -0.021922   0.008259   0.010994
    26  H   -0.000645   0.194828   0.000566   0.000990  -0.000013  -0.000157
    27  O    0.000541   0.021324  -0.000639   0.000164  -0.000007   0.000131
    28  O   -0.048057   0.017304  -0.006823  -0.000662   0.000271   0.000466
              13         14         15         16         17         18
     1  C    0.540833  -0.106734  -0.004338  -0.065177   0.306635  -0.233569
     2  C   -0.273699   0.061858   0.090049  -0.005337  -0.214082   0.224619
     3  C    0.301422  -0.052106   0.023331  -0.001591  -0.014226  -0.104717
     4  O    0.033738  -0.000602  -0.000047   0.000771   0.010578   0.270932
     5  H    0.011733  -0.003115   0.003090   0.000295   0.022155  -0.020100
     6  O   -0.074940  -0.043669   0.079461  -0.059842  -0.003383   0.012175
     7  H    0.012321  -0.001562  -0.001336  -0.000333   0.000808  -0.011431
     8  C   -0.063262   0.027346  -0.022390   0.006812   0.020065   0.011372
     9  C   -1.429924   0.083380  -0.206292   0.376819   0.004201   0.034550
    10  H    0.149154   0.035683  -0.033499   0.017503  -0.121423   0.024721
    11  O   -0.057444   0.011683   0.022375   0.003581   0.298382   0.053153
    12  C    0.050037   0.092547   0.128019   0.065802  -0.001072  -0.007069
    13  H    2.389329   0.012882  -0.051528  -0.058529  -0.008615  -0.001187
    14  O    0.012882   8.332008  -0.143424  -0.030121  -0.002606   0.000404
    15  H   -0.051528  -0.143424   1.631196  -0.308260  -0.002186   0.001984
    16  H   -0.058529  -0.030121  -0.308260   1.303714  -0.000840  -0.001122
    17  H   -0.008615  -0.002606  -0.002186  -0.000840   0.583065  -0.009786
    18  H   -0.001187   0.000404   0.001984  -0.001122  -0.009786   0.597251
    19  H    0.010306   0.267505   0.024816  -0.036619   0.000777  -0.000335
    20  C    0.016229   0.001327   0.004751  -0.007433  -0.014484   0.005075
    21  N   -0.001681   0.001223  -0.000958   0.001521   0.001040  -0.000359
    22  C   -0.000330   0.001693  -0.000638   0.000646  -0.000081  -0.000149
    23  N    0.000232  -0.000351   0.000038  -0.000279  -0.000161   0.000157
    24  C    0.009185  -0.006361  -0.004427   0.004170   0.003082  -0.010226
    25  H   -0.002365   0.008159   0.004982  -0.001075  -0.007257   0.003147
    26  H    0.000108  -0.000024  -0.000029   0.000044  -0.000004  -0.000031
    27  O   -0.000033   0.000014   0.000016  -0.000008   0.000011   0.000010
    28  O   -0.000576   0.000153   0.000053  -0.000163  -0.000024   0.000152
              19         20         21         22         23         24
     1  C    0.086064  -0.589882   0.002873  -0.053112  -0.022442   0.270500
     2  C   -0.021916   0.233802  -0.059402  -0.011567   0.007290  -0.664189
     3  C   -0.006273  -1.424124   0.292405  -0.317949  -0.091155  -0.336235
     4  O   -0.000038  -0.025360   0.001173   0.002440  -0.000664   0.002348
     5  H    0.002033   0.025657  -0.009731   0.001917  -0.002210   0.100439
     6  O    0.042137   0.075401  -0.007963  -0.002174  -0.002440  -0.082522
     7  H    0.001680   0.004701  -0.002288   0.018851  -0.002735   0.008805
     8  C    0.019130  -3.183958  -0.134693  -0.082157   0.092415  -3.934573
     9  C   -0.102997  -0.040599  -0.023566   0.005149   0.007458   0.001666
    10  H   -0.005628   0.181774  -0.021818  -0.012399   0.001033  -0.030229
    11  O   -0.003523   0.014539   0.001035   0.000954   0.000160  -0.006483
    12  C   -0.052091  -0.046509   0.007703  -0.005664  -0.001773  -0.006223
    13  H    0.010306   0.016229  -0.001681  -0.000330   0.000232   0.009185
    14  O    0.267505   0.001327   0.001223   0.001693  -0.000351  -0.006361
    15  H    0.024816   0.004751  -0.000958  -0.000638   0.000038  -0.004427
    16  H   -0.036619  -0.007433   0.001521   0.000646  -0.000279   0.004170
    17  H    0.000777  -0.014484   0.001040  -0.000081  -0.000161   0.003082
    18  H   -0.000335   0.005075  -0.000359  -0.000149   0.000157  -0.010226
    19  H    0.583263   0.004725  -0.005229  -0.002519   0.001392   0.002445
    20  C    0.004725  12.773990  -0.296539  -0.660320   0.366213  -1.620152
    21  N   -0.005229  -0.296539   7.872827   0.042685  -0.012772   0.043104
    22  C   -0.002519  -0.660320   0.042685   6.382008  -0.073326   0.121677
    23  N    0.001392   0.366213  -0.012772  -0.073326   7.174136  -0.276678
    24  C    0.002445  -1.620152   0.043104   0.121677  -0.276678  12.204234
    25  H   -0.007207  -0.154668  -0.169850  -0.043593  -0.013407  -0.070351
    26  H    0.000250  -0.072290   0.029327  -0.213253   0.446306  -0.323122
    27  O   -0.000146   0.112479  -0.080898   0.073192  -0.131788  -0.008166
    28  O   -0.000300  -0.013157   0.006370  -0.007090  -0.089630   0.028767
              25         26         27         28
     1  C   -0.021824   0.001128   0.001354  -0.006483
     2  C    0.062464  -0.000030   0.000649   0.002384
     3  C    0.081402  -0.003634   0.015632   0.081965
     4  O    0.001106   0.000002  -0.000030   0.000257
     5  H   -0.025494   0.001654  -0.000006  -0.006848
     6  O    0.019019  -0.000154  -0.000153   0.003197
     7  H   -0.008514  -0.000645   0.000541  -0.048057
     8  C   -0.353179   0.194828   0.021324   0.017304
     9  C    0.065716   0.000566  -0.000639  -0.006823
    10  H   -0.021922   0.000990   0.000164  -0.000662
    11  O    0.008259  -0.000013  -0.000007   0.000271
    12  C    0.010994  -0.000157   0.000131   0.000466
    13  H   -0.002365   0.000108  -0.000033  -0.000576
    14  O    0.008159  -0.000024   0.000014   0.000153
    15  H    0.004982  -0.000029   0.000016   0.000053
    16  H   -0.001075   0.000044  -0.000008  -0.000163
    17  H   -0.007257  -0.000004   0.000011  -0.000024
    18  H    0.003147  -0.000031   0.000010   0.000152
    19  H   -0.007207   0.000250  -0.000146  -0.000300
    20  C   -0.154668  -0.072290   0.112479  -0.013157
    21  N   -0.169850   0.029327  -0.080898   0.006370
    22  C   -0.043593  -0.213253   0.073192  -0.007090
    23  N   -0.013407   0.446306  -0.131788  -0.089630
    24  C   -0.070351  -0.323122  -0.008166   0.028767
    25  H    2.378588  -0.010353   0.003843   0.000463
    26  H   -0.010353   1.036888  -0.005464  -0.026041
    27  O    0.003843  -0.005464   8.575974   0.001640
    28  O    0.000463  -0.026041   0.001640   8.766246
          Atomic-Atomic Spin Densities.
               1          2          3          4          5          6
     1  C   -0.002672   0.013559  -0.018625   0.003427  -0.000038   0.004056
     2  C    0.013559   0.026720   0.035998  -0.001574   0.011712  -0.027728
     3  C   -0.018625   0.035998  -0.263025   0.007795   0.015351  -0.030450
     4  O    0.003427  -0.001574   0.007795  -0.000648  -0.003340  -0.001298
     5  H   -0.000038   0.011712   0.015351  -0.003340   0.000710  -0.006680
     6  O    0.004056  -0.027728  -0.030450  -0.001298  -0.006680   0.086027
     7  H    0.005374   0.005804  -0.001429  -0.003541   0.000158  -0.008258
     8  C    0.005817  -0.038827   0.018566   0.004153  -0.018088  -0.026891
     9  C    0.004127  -0.026561  -0.071303  -0.003068  -0.012249   0.023753
    10  H   -0.002437   0.002336   0.003618   0.000627   0.002437  -0.004392
    11  O   -0.002113   0.000592   0.003243  -0.000003   0.000779  -0.001285
    12  C   -0.000499   0.005169   0.022483   0.000348   0.001929  -0.006875
    13  H    0.001897   0.002251   0.005380  -0.000409  -0.000249   0.000182
    14  O    0.000494  -0.000246   0.002667   0.000021   0.000175  -0.001482
    15  H    0.000143   0.000216   0.000427  -0.000008  -0.000017   0.000003
    16  H    0.000248  -0.000025   0.001401   0.000035   0.000116  -0.000844
    17  H   -0.000088   0.000131   0.000322  -0.000093   0.000166  -0.000216
    18  H   -0.002928   0.001948  -0.001014  -0.000836   0.001468  -0.000242
    19  H   -0.000428   0.001614   0.002614   0.000012   0.000192  -0.002790
    20  C   -0.005122   0.015008   0.054548  -0.001557  -0.000721   0.025510
    21  N   -0.000242  -0.000005   0.014407  -0.000057   0.001769  -0.000945
    22  C    0.001260  -0.000204   0.010308  -0.000174  -0.000203  -0.000122
    23  N   -0.001030  -0.000520  -0.004691   0.000075  -0.000353   0.000775
    24  C    0.000886  -0.007650   0.073364  -0.000667   0.000010   0.009224
    25  H    0.003204   0.002999   0.014522  -0.000046   0.000199   0.002021
    26  H    0.000052  -0.000146   0.000068  -0.000012  -0.000034   0.000071
    27  O    0.000014  -0.000060  -0.000326   0.000002  -0.000000  -0.000062
    28  O   -0.000501  -0.000496   0.004001   0.000117   0.000176  -0.000482
               7          8          9         10         11         12
     1  C    0.005374   0.005817   0.004127  -0.002437  -0.002113  -0.000499
     2  C    0.005804  -0.038827  -0.026561   0.002336   0.000592   0.005169
     3  C   -0.001429   0.018566  -0.071303   0.003618   0.003243   0.022483
     4  O   -0.003541   0.004153  -0.003068   0.000627  -0.000003   0.000348
     5  H    0.000158  -0.018088  -0.012249   0.002437   0.000779   0.001929
     6  O   -0.008258  -0.026891   0.023753  -0.004392  -0.001285  -0.006875
     7  H   -0.012433   0.014532  -0.012969   0.001154  -0.000001   0.001855
     8  C    0.014532   0.558906  -0.014322  -0.003718  -0.000830   0.004981
     9  C   -0.012969  -0.014322   0.166815  -0.019636  -0.006463  -0.061675
    10  H    0.001154  -0.003718  -0.019636   0.006970   0.001806   0.005639
    11  O   -0.000001  -0.000830  -0.006463   0.001806   0.003878   0.002275
    12  C    0.001855   0.004981  -0.061675   0.005639   0.002275   0.027134
    13  H    0.000182  -0.003417  -0.018898   0.001333   0.000429   0.004944
    14  O    0.000116   0.001756  -0.003717   0.000690   0.000046   0.001404
    15  H   -0.000006  -0.000150  -0.003316   0.000304   0.000013   0.001880
    16  H    0.000144   0.000309  -0.000366   0.000212   0.000075  -0.000450
    17  H    0.000036  -0.000107  -0.000007  -0.000195  -0.000114  -0.000052
    18  H    0.000052  -0.001060  -0.000387   0.000045   0.000696   0.000221
    19  H    0.000280   0.003482  -0.008820   0.000659   0.000101   0.003136
    20  C   -0.006956   0.396622   0.032616   0.002278  -0.000843  -0.007370
    21  N    0.000534  -0.008009  -0.000808   0.000203   0.000037   0.000150
    22  C   -0.000391  -0.020708   0.001150   0.000339  -0.000048   0.000014
    23  N    0.000938  -0.025131   0.001642  -0.000287   0.000002  -0.000390
    24  C    0.011456   0.020238   0.012780   0.000961  -0.000246  -0.001382
    25  H   -0.001137   0.047840   0.005524  -0.000672  -0.000261  -0.000709
    26  H   -0.000048  -0.000141   0.000130   0.000014  -0.000002  -0.000017
    27  O   -0.000014   0.003574  -0.000203  -0.000019   0.000000   0.000036
    28  O   -0.000415  -0.036829   0.000870  -0.000188   0.000009  -0.000074
              13         14         15         16         17         18
     1  C    0.001897   0.000494   0.000143   0.000248  -0.000088  -0.002928
     2  C    0.002251  -0.000246   0.000216  -0.000025   0.000131   0.001948
     3  C    0.005380   0.002667   0.000427   0.001401   0.000322  -0.001014
     4  O   -0.000409   0.000021  -0.000008   0.000035  -0.000093  -0.000836
     5  H   -0.000249   0.000175  -0.000017   0.000116   0.000166   0.001468
     6  O    0.000182  -0.001482   0.000003  -0.000844  -0.000216  -0.000242
     7  H    0.000182   0.000116  -0.000006   0.000144   0.000036   0.000052
     8  C   -0.003417   0.001756  -0.000150   0.000309  -0.000107  -0.001060
     9  C   -0.018898  -0.003717  -0.003316  -0.000366  -0.000007  -0.000387
    10  H    0.001333   0.000690   0.000304   0.000212  -0.000195   0.000045
    11  O    0.000429   0.000046   0.000013   0.000075  -0.000114   0.000696
    12  C    0.004944   0.001404   0.001880  -0.000450  -0.000052   0.000221
    13  H    0.005656   0.000178   0.000177   0.000107   0.000103   0.000180
    14  O    0.000178  -0.000066   0.000147  -0.000110   0.000010   0.000015
    15  H    0.000177   0.000147   0.000208   0.000016   0.000006   0.000009
    16  H    0.000107  -0.000110   0.000016   0.000157  -0.000009   0.000005
    17  H    0.000103   0.000010   0.000006  -0.000009   0.000031   0.000134
    18  H    0.000180   0.000015   0.000009   0.000005   0.000134   0.003077
    19  H    0.000296   0.000569   0.000151  -0.000075   0.000023   0.000040
    20  C   -0.000207  -0.000979  -0.000160  -0.000433  -0.000214   0.000126
    21  N   -0.000000  -0.000345   0.000008  -0.000029   0.000031  -0.000013
    22  C    0.000025  -0.000060  -0.000002  -0.000006   0.000010  -0.000009
    23  N    0.000023  -0.000065   0.000002  -0.000034  -0.000005   0.000005
    24  C    0.000376  -0.000572  -0.000026  -0.000135  -0.000046  -0.000171
    25  H   -0.000189  -0.000312  -0.000070  -0.000017  -0.000045  -0.000049
    26  H    0.000006  -0.000006  -0.000000  -0.000002  -0.000001  -0.000001
    27  O   -0.000008   0.000011  -0.000001   0.000004  -0.000000  -0.000001
    28  O   -0.000009  -0.000025   0.000006  -0.000024   0.000006   0.000010
              19         20         21         22         23         24
     1  C   -0.000428  -0.005122  -0.000242   0.001260  -0.001030   0.000886
     2  C    0.001614   0.015008  -0.000005  -0.000204  -0.000520  -0.007650
     3  C    0.002614   0.054548   0.014407   0.010308  -0.004691   0.073364
     4  O    0.000012  -0.001557  -0.000057  -0.000174   0.000075  -0.000667
     5  H    0.000192  -0.000721   0.001769  -0.000203  -0.000353   0.000010
     6  O   -0.002790   0.025510  -0.000945  -0.000122   0.000775   0.009224
     7  H    0.000280  -0.006956   0.000534  -0.000391   0.000938   0.011456
     8  C    0.003482   0.396622  -0.008009  -0.020708  -0.025131   0.020238
     9  C   -0.008820   0.032616  -0.000808   0.001150   0.001642   0.012780
    10  H    0.000659   0.002278   0.000203   0.000339  -0.000287   0.000961
    11  O    0.000101  -0.000843   0.000037  -0.000048   0.000002  -0.000246
    12  C    0.003136  -0.007370   0.000150   0.000014  -0.000390  -0.001382
    13  H    0.000296  -0.000207  -0.000000   0.000025   0.000023   0.000376
    14  O    0.000569  -0.000979  -0.000345  -0.000060  -0.000065  -0.000572
    15  H    0.000151  -0.000160   0.000008  -0.000002   0.000002  -0.000026
    16  H   -0.000075  -0.000433  -0.000029  -0.000006  -0.000034  -0.000135
    17  H    0.000023  -0.000214   0.000031   0.000010  -0.000005  -0.000046
    18  H    0.000040   0.000126  -0.000013  -0.000009   0.000005  -0.000171
    19  H    0.001720  -0.000199  -0.000242   0.000193  -0.000209  -0.000093
    20  C   -0.000199  -0.953405  -0.052891   0.074779   0.004604   0.148663
    21  N   -0.000242  -0.052891   0.480752   0.003390   0.002376   0.001610
    22  C    0.000193   0.074779   0.003390  -0.196238   0.031950   0.002537
    23  N   -0.000209   0.004604   0.002376   0.031950  -0.037738   0.018551
    24  C   -0.000093   0.148663   0.001610   0.002537   0.018551  -0.446961
    25  H    0.000174  -0.082694  -0.012795  -0.001788  -0.000537   0.003414
    26  H   -0.000016   0.008183   0.000361  -0.006069  -0.005441  -0.000166
    27  O    0.000054  -0.005695  -0.014263  -0.003901  -0.003560  -0.002472
    28  O   -0.000096   0.007044   0.000980   0.000265  -0.000964  -0.000472
              25         26         27         28
     1  C    0.003204   0.000052   0.000014  -0.000501
     2  C    0.002999  -0.000146  -0.000060  -0.000496
     3  C    0.014522   0.000068  -0.000326   0.004001
     4  O   -0.000046  -0.000012   0.000002   0.000117
     5  H    0.000199  -0.000034  -0.000000   0.000176
     6  O    0.002021   0.000071  -0.000062  -0.000482
     7  H   -0.001137  -0.000048  -0.000014  -0.000415
     8  C    0.047840  -0.000141   0.003574  -0.036829
     9  C    0.005524   0.000130  -0.000203   0.000870
    10  H   -0.000672   0.000014  -0.000019  -0.000188
    11  O   -0.000261  -0.000002   0.000000   0.000009
    12  C   -0.000709  -0.000017   0.000036  -0.000074
    13  H   -0.000189   0.000006  -0.000008  -0.000009
    14  O   -0.000312  -0.000006   0.000011  -0.000025
    15  H   -0.000070  -0.000000  -0.000001   0.000006
    16  H   -0.000017  -0.000002   0.000004  -0.000024
    17  H   -0.000045  -0.000001  -0.000000   0.000006
    18  H   -0.000049  -0.000001  -0.000001   0.000010
    19  H    0.000174  -0.000016   0.000054  -0.000096
    20  C   -0.082694   0.008183  -0.005695   0.007044
    21  N   -0.012795   0.000361  -0.014263   0.000980
    22  C   -0.001788  -0.006069  -0.003901   0.000265
    23  N   -0.000537  -0.005441  -0.003560  -0.000964
    24  C    0.003414  -0.000166  -0.002472  -0.000472
    25  H    0.020395   0.000201  -0.000027   0.000668
    26  H    0.000201   0.004832  -0.000289  -0.001414
    27  O   -0.000027  -0.000289   0.253398  -0.000314
    28  O    0.000668  -0.001414  -0.000314   0.188741
 Mulliken charges and spin densities:
               1          2
     1  C    0.549272   0.007835
     2  C    1.159115   0.022012
     3  C    0.957601  -0.099782
     4  O   -0.692736  -0.000719
     5  H   -0.452021  -0.004625
     6  O   -0.878294   0.030581
     7  H   -0.597209  -0.004982
     8  C    1.319916   0.882546
     9  C    0.761791  -0.015362
    10  H   -0.521429   0.000080
    11  O   -0.614270   0.001771
    12  C    1.185020   0.004104
    13  H   -0.513394   0.000338
    14  O   -0.547188   0.000314
    15  H   -0.234808  -0.000043
    16  H   -0.204949   0.000271
    17  H    0.149431  -0.000183
    18  H    0.160382   0.001320
    19  H    0.198297   0.002342
    20  C    0.328812  -0.349467
    21  N   -0.475539   0.415962
    22  C    0.835109  -0.103703
    23  N   -0.375018  -0.020012
    24  C    0.579515  -0.156987
    25  H   -0.737085  -0.000187
    26  H   -0.056847   0.000115
    27  O   -0.579638   0.225876
    28  O   -0.703835   0.160588
 Sum of Mulliken charges =  -0.00000   1.00000
 Mulliken charges and spin densities with hydrogens summed into heavy atoms:
               1          2
     1  C    0.027843   0.007914
     2  C    0.707094   0.017387
     3  C    0.360392  -0.104764
     4  O   -0.532354   0.000601
     6  O   -0.878294   0.030581
     8  C    1.319916   0.882546
     9  C    0.248396  -0.015023
    11  O   -0.464838   0.001587
    12  C    0.745263   0.004331
    14  O   -0.348891   0.002655
    20  C   -0.408273  -0.349654
    21  N   -0.475539   0.415962
    22  C    0.835109  -0.103703
    23  N   -0.431865  -0.019897
    24  C    0.579515  -0.156987
    27  O   -0.579638   0.225876
    28  O   -0.703835   0.160588
 Electronic spatial extent (au):  <R**2>=           4294.8736
 Charge=             -0.0000 electrons
 Dipole moment (field-independent basis, Debye):
    X=              3.9979    Y=             -0.6307    Z=             -2.0825  Tot=              4.5517
 Quadrupole moment (field-independent basis, Debye-Ang):
   XX=           -106.5480   YY=           -116.0378   ZZ=            -95.2614
   XY=              6.5308   XZ=             -9.6011   YZ=              6.4329
 Traceless Quadrupole moment (field-independent basis, Debye-Ang):
   XX=             -0.5990   YY=            -10.0887   ZZ=             10.6876
   XY=              6.5308   XZ=             -9.6011   YZ=              6.4329
 Octapole moment (field-independent basis, Debye-Ang**2):
  XXX=            100.5806  YYY=             -7.4793  ZZZ=            -20.9753  XYY=              9.1125
  XXY=            -40.9031  XXZ=             21.5958  XZZ=             37.5105  YZZ=              3.7666
  YYZ=             -3.9504  XYZ=            -17.3397
 Hexadecapole moment (field-independent basis, Debye-Ang**3):
 XXXX=          -4037.9506 YYYY=          -1234.4227 ZZZZ=           -556.9841 XXXY=            212.1870
 XXXZ=           -198.3028 YYYX=            -35.9741 YYYZ=             13.4755 ZZZX=            -76.0764
 ZZZY=             24.5756 XXYY=           -861.8590 XXZZ=           -663.5156 YYZZ=           -295.4711
 XXYZ=             63.8773 YYXZ=            -12.5786 ZZXY=              1.8880
 N-N= 1.286320597736D+03 E-N=-4.701796363505D+03  KE= 9.046200714120D+02
                          Isotropic Fermi Contact Couplings
        Atom                 a.u.       MegaHertz       Gauss      10(-4) cm-1
     1  C(13)             -0.00031      -0.34798      -0.12417      -0.11607
     2  C(13)              0.01450      16.29555       5.81466       5.43561
     3  C(13)             -0.01862     -20.92904      -7.46800      -6.98118
     4  O(17)              0.00341      -2.06739      -0.73770      -0.68961
     5  H(1)               0.00013       0.56893       0.20301       0.18978
     6  O(17)              0.02680     -16.24358      -5.79611      -5.41827
     7  H(1)               0.00039       1.75628       0.62668       0.58583
     8  C(13)              0.07536      84.72372      30.23153      28.26079
     9  C(13)             -0.00081      -0.91089      -0.32503      -0.30384
    10  H(1)              -0.00008      -0.36543      -0.13039      -0.12189
    11  O(17)              0.00013      -0.07978      -0.02847      -0.02661
    12  C(13)             -0.00000      -0.00308      -0.00110      -0.00103
    13  H(1)               0.00081       3.60057       1.28477       1.20102
    14  O(17)              0.00017      -0.10259      -0.03661      -0.03422
    15  H(1)               0.00006       0.26617       0.09497       0.08878
    16  H(1)              -0.00003      -0.12633      -0.04508      -0.04214
    17  H(1)              -0.00003      -0.15347      -0.05476      -0.05119
    18  H(1)               0.00056       2.48650       0.88725       0.82941
    19  H(1)               0.00003       0.15393       0.05492       0.05134
[...]
 .00028228,-0.00005203,0.00004663,-0.08446750,-0.03016482,-0.06389443,0
 .12874368,0.06243972,0.10073229,-0.00097028,0.00053707,-0.00003641,0.0
 0017621,-0.00207408,0.00140534,-0.00133666,0.00256128,-0.00272639,0.00
 126656,0.00111607,-0.00030344,0.00000536,-0.00005889,0.00013690,0.0015
 5459,-0.00059701,0.00057565,0.00109382,-0.00023713,0.00011004,0.006907
 35,0.02039480,0.00866499,-0.00120378,0.00003048,0.00040509,-0.00002076
 ,0.00006175,0.00017273,0.00130000,0.00011923,-0.00067431,-0.00025424,-
 0.00003197,-0.00027659,0.00025135,0.00007651,0.00000085,0.00083622,-0.
 00037836,0.00033679,0.00008641,-0.00003766,-0.00003410,0.00002636,0.00
 001237,0.00013480,-0.00013524,-0.00001456,0.00024816,-0.00008878,-0.00
 000248,0.00004026,-0.00047246,0.00044553,-0.00042823,-0.07369189,-0.00
 415661,-0.01405294,-0.10510807,0.03807602,-0.00084737,0.83983487,0.000
 49465,-0.00014612,0.00052673,-0.00030826,0.00187886,-0.00141143,-0.000
 92966,-0.00504318,-0.00080045,-0.00020126,-0.00073745,0.00024480,0.000
 06104,0.00009251,0.00024073,0.00047429,-0.00072034,0.00013611,-0.00155
 427,0.00036101,-0.00057415,0.00951950,-0.00738492,0.00253050,0.0005279
 1,-0.00034523,-0.00007160,-0.00005157,-0.00001094,-0.00020127,-0.00048
 679,-0.00034224,0.00021898,0.00045390,0.00046412,0.00021303,-0.0001396
 7,-0.00001796,0.00003461,-0.00075707,-0.00019554,-0.00025265,-0.000065
 97,-0.00005485,-0.00000066,-0.00004121,-0.00006866,-0.00005997,-0.0000
 2357,0.00013587,-0.00008311,-0.00016110,0.00009735,-0.00005693,0.00038
 544,-0.00013786,0.00028047,-0.00998361,0.01142552,0.00215023,0.0963724
 7,-0.16900123,0.00177642,0.11002741,0.57603603,0.00009630,0.00015846,0
 .00030854,-0.00002054,-0.00012061,-0.00009012,-0.00054583,0.00055850,0
 .00156450,-0.00009763,-0.00003100,-0.00010736,-0.00000403,0.00005329,-
 0.00011867,0.00113296,-0.00033870,-0.00029092,0.00018682,-0.00001768,-
 0.00011536,0.00447309,0.00442160,-0.00527232,-0.00044075,0.00011428,0.
 00032129,-0.00007612,-0.00008526,-0.00006865,0.00007937,-0.00009529,-0
 .00018061,0.00002103,0.00003209,-0.00003639,0.00011081,0.00002199,-0.0
 0008253,0.00001501,-0.00001563,-0.00007710,0.00004054,-0.00001802,-0.0
 0000310,-0.00002502,0.00001640,-0.00000903,0.00001760,0.00003538,0.000
 02781,-0.00003453,-0.00001321,0.00001623,-0.00017728,0.00010131,0.0000
 1104,-0.01719031,0.00185556,-0.00882862,0.01161726,-0.00995195,-0.0768
 5228,0.15201449,0.08943329,0.25958963,0.00034537,-0.00009767,-0.000388
 98,0.00036468,-0.00007255,-0.00053591,0.00196194,0.00527958,0.00123669
 ,-0.00049180,-0.00016502,0.00025836,-0.00002465,-0.00010487,0.00001235
 ,-0.00322926,0.00086064,-0.00037416,0.00086340,-0.00026945,0.00035855,
 -0.04587502,-0.00129219,-0.01252985,0.00077332,0.00011792,-0.00073327,
 0.00001626,-0.00003104,-0.00000262,-0.00049389,0.00007742,0.00039829,-
 0.00016794,-0.00032244,0.00012286,-0.00021150,-0.00004015,0.00005560,-
 0.00007364,0.00042034,-0.00003746,-0.00003389,0.00009716,0.00001961,0.
 00001790,0.00002060,-0.00004549,0.00006125,-0.00005779,-0.00011528,0.0
 0013986,-0.00001369,-0.00001022,0.00006595,-0.00028004,0.00011519,-0.0
 0007312,-0.00101330,-0.00083019,0.00449359,0.03120173,0.00450338,-0.12
 662158,0.03450554,-0.00941360,0.78356702,-0.00023745,-0.00032817,-0.00
 022874,-0.00007985,-0.00080556,0.00077393,0.00154042,-0.00368422,-0.00
 067033,0.00004193,0.00076235,-0.00012302,0.00004110,-0.00010381,-0.000
 31828,0.00158049,0.00087273,0.00036065,0.00116028,-0.00036434,0.000851
 51,0.01448348,0.02036420,0.00428956,-0.00019898,0.00010469,0.00046162,
 -0.00001898,0.00007389,0.00012007,0.00005284,0.00037352,-0.00002764,-0
 .00024323,-0.00034221,-0.00020970,0.00018580,0.00000579,-0.00002671,0.
 00052700,0.00023295,0.00018089,0.00005204,-0.00000003,0.00000405,0.000
 03250,0.00007151,0.00003907,0.00002234,-0.00010941,0.00000658,0.000163
 26,-0.00003704,0.00000317,-0.00027419,0.00003214,-0.00019685,-0.009471
 20,-0.00687592,-0.00306008,0.02272689,-0.04012500,-0.00496028,0.001076
 14,-0.24142651,-0.03300008,-0.08700112,0.71988724,0.00000324,-0.000069
 63,-0.00017562,-0.00034350,-0.00033852,-0.00019981,0.00011993,-0.00020
 688,0.00136471,-0.00005001,0.00014925,0.00018599,-0.00002430,-0.000090
 50,-0.00002197,-0.00018130,0.00044918,0.00013023,0.00027749,0.00009671
 ,0.00025942,-0.00994356,0.00174116,0.00863283,0.00021640,0.00001162,-0
 .00004124,-0.00000633,0.00003046,0.00002594,-0.00011717,0.00007764,0.0
 0015080,-0.00006507,-0.00012636,-0.00001803,-0.00002043,-0.00000583,0.
 00001649,0.00008226,0.00012430,0.00004980,-0.00000663,0.00002301,0.000
 00431,0.00001544,0.00000930,0.00000489,-0.00000461,-0.00002766,-0.0000
 3605,0.00003608,-0.00000048,-0.00002672,-0.00002445,-0.00006320,-0.000
 02918,-0.00187623,-0.00154648,-0.00080409,0.00306563,-0.00338558,0.014
 11636,-0.01667573,-0.02604262,-0.06473673,0.14017084,0.09990399,0.1094
 6210,-0.00069384,0.00059649,0.00025033,-0.00167228,-0.00092550,0.00019
 819,-0.02272208,0.01962743,-0.00375267,0.00113061,0.00052639,0.0000122
 9,-0.00005492,-0.00003145,0.00053868,-0.00157669,-0.00272536,0.0005600
 8,-0.00122382,0.00059477,-0.00074241,-0.18714247,0.05609599,-0.0154131
 6,-0.00106238,0.00018557,-0.00077898,-0.00002297,0.00003636,0.00015083
 ,0.00108293,-0.00012548,-0.00058577,-0.00028306,0.00002764,-0.00001121
 ,-0.00002469,0.00014222,0.00004543,0.00050403,-0.00044606,0.00018670,0
 .00005109,0.00002504,-0.00004640,0.00001309,-0.00004959,0.00008596,-0.
 00012194,0.00006166,0.00023135,-0.00021456,-0.00000901,-0.00002503,-0.
 00026265,0.00043864,-0.00027311,0.03107666,0.01486371,0.00737506,-0.02
 548138,0.00938309,-0.00234297,0.00720957,-0.08360717,-0.01103724,-0.27
 485884,-0.00257987,-0.04869994,0.58797478,0.00113409,0.00123051,0.0002
 5122,0.00019975,0.00033730,-0.00233712,0.00250675,0.01894213,0.0042171
 8,-0.00100101,-0.00229922,0.00057783,-0.00028281,0.00043771,0.00117318
 ,-0.00740903,-0.00121686,-0.00221946,-0.00290358,-0.00127773,-0.003022
 16,0.04619293,-0.11415931,0.00605214,0.00129364,-0.00078868,-0.0017808
 1,0.00002438,-0.00037045,-0.00025395,-0.00030889,-0.00085887,0.0002943
 8,0.00027429,0.00024070,0.00046492,-0.00067401,-0.00000630,0.00014878,
 -0.00077805,0.00000382,-0.00025283,-0.00009857,0.00009613,0.00002636,-
 0.00000974,-0.00011552,-0.00007988,0.00002598,0.00016385,-0.00006161,-
 0.00026622,-0.00009229,0.00000819,0.00045279,-0.00031967,0.00027762,0.
 01529137,-0.03794781,-0.00612982,0.00891177,0.01156624,0.00530717,-0.0
 3133201,-0.01352062,-0.00738863,-0.03868134,-0.14192900,-0.02505635,0.
 02505017,0.89858750,-0.00019856,0.00025218,0.00019904,0.00020697,0.000
 28477,-0.00125960,-0.00648951,0.00311859,0.00566312,-0.00042965,-0.000
 39241,-0.00016876,0.00015854,0.00015613,0.00002183,-0.00216466,-0.0001
 9553,0.00008445,-0.00066859,0.00035291,-0.00022938,-0.01463250,0.00636
 801,-0.07998619,-0.00054898,0.00026401,-0.00008462,0.00001293,-0.00000
 171,-0.00001859,0.00014245,0.00000600,-0.00006355,-0.00000983,0.000086
 27,0.00002446,0.00002112,-0.00004876,-0.00001376,-0.00000901,-0.000108
 48,-0.00009003,-0.00000862,0.00000296,0.00000746,-0.00001576,0.0000166
 4,0.00000328,0.00000722,0.00003968,0.00003980,0.00002175,-0.00017643,0
 .00006244,-0.00002682,0.00009103,0.00000568,0.00756667,-0.00559389,0.0
 1023005,-0.00280945,0.00537273,-0.00522409,-0.00162624,-0.01867096,-0.
 01439222,-0.05641489,-0.01773189,-0.06731009,0.09410084,0.13086222,0.2
 2881110,-0.00016675,-0.00024142,0.00017457,0.00007991,0.00009139,-0.00
 006016,-0.00042876,-0.00004977,0.00044674,-0.00014684,0.00006854,-0.00
 000542,-0.00004196,0.00004768,-0.00007469,-0.00108429,-0.00114815,-0.0
 0034089,0.00008150,0.00011690,-0.00004491,0.00876187,-0.00397703,-0.00
 123572,-0.00038820,-0.00008393,0.00000607,-0.00017819,-0.00030210,0.00
 025917,0.00002394,0.00014757,-0.00010220,-0.00093427,-0.00095206,-0.00
 040731,0.00002147,0.00012138,-0.00001177,0.00059342,0.00006555,0.00036
 642,0.00007564,0.00004965,0.00001652,0.00011108,0.00014788,0.00011321,
 0.00001314,-0.00001069,0.00003586,0.00001535,-0.00007541,0.00001119,-0
 .00042687,0.00143843,-0.00129181,-0.20064341,0.14153289,-0.00476516,-0
 .03094558,0.01317122,-0.00296349,0.00049937,-0.00181044,-0.00390646,0.
 00007008,0.00058832,0.00043546,-0.00077095,-0.00112561,-0.00141869,0.2
 2743909,-0.00031386,-0.00068343,-0.00025723,-0.00005624,-0.00025410,-0
 .00017453,0.00162125,-0.00121585,0.00116932,-0.00009368,0.00020328,0.0
 0005765,0.00004680,0.00000147,-0.00007788,0.00041495,0.00183661,0.0004
 8110,0.00006171,0.00012131,-0.00000183,0.02316620,-0.01549140,0.000442
 90,-0.00128992,0.00008504,0.00004318,-0.00028341,0.00025109,0.00041743
 ,0.00036067,0.00033284,-0.00011408,0.00004287,0.00075234,0.00002794,0.
 00026880,-0.00001580,0.00000225,0.00033701,-0.00154321,-0.00006619,-0.
 00001046,-0.00008380,-0.00003566,-0.00007683,-0.00009264,-0.00003231,-
 0.00004041,-0.00000996,0.00007932,0.00000035,-0.00009815,0.00002877,0.
 00081191,0.00049425,0.00076170,0.14117155,-0.18816126,0.00196631,-0.01
 221507,0.01452962,0.00102473,-0.00212302,0.00080158,-0.00328495,-0.000
 26291,0.00086690,0.00034909,-0.00496379,-0.00249038,-0.00272098,-0.147
 48578,0.19151233,0.00030074,0.00027092,0.00028395,0.00021538,0.0002413
 2,0.00019890,0.00087985,-0.00027144,-0.00212741,0.00010069,-0.00003454
 ,-0.00014360,-0.00000026,0.00006775,-0.00005263,-0.00035649,-0.0000300
 7,-0.00053133,-0.00021152,0.00014648,-0.00007951,0.00396320,-0.0045171
 1,0.00903646,-0.00050485,0.00011757,0.00031237,0.00026767,0.00008524,-
 0.00019879,-0.00011509,-0.00016471,-0.00012241,-0.00015857,-0.00018761
 ,-0.00027170,0.00011198,0.00003189,-0.00009653,-0.00001408,-0.00002311
 ,-0.00023422,0.00006646,0.00005090,0.00003049,-0.00007291,0.00000037,-
 0.00001608,0.00003177,0.00004894,-0.00002833,-0.00000633,0.00004921,0.
 00001152,-0.00109670,0.00091284,-0.00016165,-0.00489948,0.00131508,-0.
 04712551,-0.00754637,0.00717585,-0.00329900,-0.00379811,-0.00358478,0.
 01288776,0.00030323,0.00050589,-0.00108208,-0.00246379,-0.00197259,0.0
 0518469,0.01426635,-0.00082931,0.03139822,-0.00006423,0.00003195,0.000
 00827,-0.00006995,-0.00007125,-0.00013543,0.00021132,0.00137445,0.0001
 5167,0.00007742,0.00000841,0.00003878,-0.00001071,-0.00000437,0.000081
 07,-0.00036398,-0.00003016,-0.00000322,-0.00003829,-0.00002100,-0.0000
 6684,-0.00303739,-0.00391987,-0.00233749,-0.00003083,0.00000172,-0.000
 12508,0.00000354,0.00001087,0.00001312,0.00009273,-0.00000288,-0.00003
 099,-0.00005468,-0.00002763,-0.00000267,-0.00001548,0.00001221,0.00001
 117,0.00007132,-0.00001142,0.00002999,0.00000480,0.00001144,-0.0000044
 3,0.00000474,-0.00000375,0.00001283,-0.00002195,0.00000254,0.00001734,
 -0.00002416,-0.00001699,0.00000795,-0.00004093,0.00002709,-0.00003046,
 -0.00055670,-0.00064289,-0.00003705,0.00253740,-0.00379220,-0.00142135
 ,0.01204023,-0.00044799,0.00283461,-0.30526076,0.18301507,-0.02829375,
 -0.02094979,0.02165364,-0.00082067,-0.00007825,0.00001480,0.00016369,0
 .31356710,0.00006262,-0.00002400,-0.00005099,0.00011360,0.00010538,-0.
 00011109,-0.00017197,0.00070593,0.00006314,-0.00011428,-0.00011062,0.0
 0004046,-0.00001033,0.00000387,0.00000040,-0.00059275,0.00012491,-0.00
 004170,0.00005203,0.00003834,-0.00001909,-0.00375179,-0.00034728,-0.00
 173846,0.00012081,0.00001424,-0.00013196,0.00000025,-0.00001194,0.0000
 0047,-0.00008804,-0.00000469,0.00006857,-0.00003851,-0.00005230,0.0000
 1430,-0.00004182,-0.00000447,0.00001071,0.00001813,0.00004603,0.000006
 50,-0.00000404,0.00001851,0.00000413,0.00000593,0.00000389,-0.00000306
 ,0.00000861,-0.00000142,-0.00001728,0.00000977,0.00000322,-0.00000678,
 -0.00000461,-0.00002727,-0.00000922,-0.00156484,-0.00036706,-0.0002375
 9,-0.00068130,-0.00593891,-0.00228105,0.02935987,-0.01410919,0.0039633
 0,0.18231165,-0.20856107,0.00469032,-0.00961350,0.01812148,0.00107153,
 0.00018024,0.00006567,0.00018983,-0.19642733,0.20843101,0.00000915,0.0
 0001716,-0.00003402,0.00006965,-0.00006572,0.00013308,-0.00016113,0.00
 048878,0.00032929,-0.00004170,-0.00002668,-0.00005127,-0.00000856,-0.0
 0000058,-0.00001778,-0.00002503,-0.00000706,-0.00009855,-0.00002794,0.
 00000597,0.00000292,-0.00258675,-0.00188406,0.00448090,-0.00001948,0.0
 0000813,0.00000533,-0.00000577,-0.00001456,0.00001379,0.00001126,0.000
 01178,-0.00002962,-0.00001628,-0.00003234,0.00000368,-0.00001007,0.000
 00571,0.00000125,0.00002413,0.00002513,-0.00000281,0.00000400,0.000001
 46,-0.00000111,-0.00000303,0.00000706,-0.00000509,0.00001297,-0.000009
 64,0.00001098,0.00001191,-0.00000912,0.00001177,-0.00001046,-0.0000113
 8,0.00000585,-0.00021786,-0.00008148,-0.00078011,-0.00060003,-0.002891
 68,0.00465416,0.00781520,-0.00253415,0.00006642,-0.02786531,0.00491273
 ,-0.02351335,-0.00713840,0.00753756,0.00083372,0.00021365,0.00021488,-
 0.00088740,0.02801621,-0.00738354,0.02170491,0.00065453,-0.00038839,-0
 .00011375,0.00005901,0.00125222,-0.00083659,0.00091139,-0.00123864,0.0
 0135293,-0.00087034,-0.00062313,0.00021721,0.00001797,-0.00000450,-0.0
 0012904,-0.00154454,0.00042736,-0.00040917,-0.00030652,0.00009730,0.00
 010540,-0.00533899,-0.00710253,-0.00328314,0.00100374,-0.00002651,-0.0
 0036759,0.00000886,-0.00003424,-0.00010814,-0.00093650,-0.00000420,0.0
 0053008,0.00013894,-0.00006866,0.00018127,-0.00020569,-0.00005747,0.00
 002945,-0.00057934,0.00043780,-0.00022448,-0.00006486,0.00003719,0.000
 02400,-0.00001590,-0.00000162,-0.00009117,0.00009740,-0.00002440,-0.00
 018477,0.00011112,0.00000533,-0.00004462,0.00029885,-0.00044395,0.0003
 3832,0.00964922,0.02031389,0.00565918,-0.10622219,0.01227394,-0.023372
 36,-0.55764748,-0.17305087,-0.13088751,-0.03178685,-0.05134998,-0.0196
 7071,0.01490583,-0.00063124,0.00172462,-0.00205604,-0.00087335,-0.0002
 5334,-0.00266187,-0.00126167,0.00000677,0.68626705,-0.00009762,-0.0001
 1301,-0.00015952,0.00000141,-0.00033982,0.00025120,0.00047928,0.001143
 10,0.00054172,-0.00005599,0.00017519,-0.00002678,-0.00001077,-0.000035
 87,-0.00008089,-0.00035831,0.00040515,-0.00015877,0.00042996,-0.000097
 07,0.00021732,-0.00488032,-0.00252398,-0.00188331,-0.00004308,0.000096
 39,-0.00002954,0.00001729,0.00002214,0.00007054,0.00002327,0.00015034,
 -0.00000421,-0.00016668,-0.00019995,-0.00006156,0.00001973,0.00000587,
 -0.00000026,0.00023850,0.00014048,0.00007715,0.00001914,0.00002479,0.0
 0000340,0.00001456,0.00002696,0.00001270,0.00001282,-0.00005440,0.0000
 0691,0.00005986,-0.00004520,0.00001246,-0.00011620,-0.00000893,-0.0000
 7275,0.01021124,0.00414486,0.00242725,0.01236244,0.02411906,0.00314541
 ,-0.15987983,-0.15546289,-0.04781535,-0.07989662,-0.04241812,-0.027868
 44,0.02492614,-0.00151660,0.00405361,0.00031647,0.00036157,0.00068911,
 -0.00050815,0.00416400,0.00127718,0.20464547,0.17377313,0.00009682,-0.
 00014294,-0.00009544,-0.00003077,0.00021600,-0.00023717,0.00018445,0.0
 0001491,0.00024139,-0.00016290,-0.00007989,0.00009834,0.00002083,-0.00
 002640,-0.00000464,-0.00047009,0.00007431,-0.00002846,0.00005347,-0.00
 000233,0.00005556,-0.00171230,-0.00177948,-0.00158522,0.00025488,-0.00
 001048,-0.00013219,0.00001007,0.00002653,-0.00000598,-0.00018589,0.000
 03289,0.00015422,-0.00000523,-0.00003303,0.00002543,-0.00005204,-0.000
 01030,0.00002131,-0.00007272,0.00008342,0.00000396,-0.00001835,0.00001
 268,0.00000340,0.00000927,-0.00000225,-0.00000502,0.00000163,-0.000018
 49,-0.00004902,0.00002410,-0.00000960,-0.00001960,0.00007038,-0.000081
 81,0.00002848,0.00336338,0.00464467,0.00423316,-0.02346311,0.00261605,
 0.01673320,-0.12795024,-0.04982704,-0.11097728,-0.02534748,-0.02208453
 ,0.01228101,0.00609462,-0.00148576,0.00768531,0.00008949,0.00024788,-0
 .00173848,0.00003394,0.00104592,-0.00301375,0.17101582,0.06794193,0.07
 861846,0.00029789,-0.00060877,-0.00043580,0.00075823,0.00050055,-0.000
 34511,0.00033952,-0.00209373,-0.00095770,-0.00049304,-0.00009472,0.000
 19056,-0.00002900,-0.00007037,-0.00028190,-0.00068249,0.00195338,0.000
 52150,-0.00013238,0.00172494,0.00139627,0.01607982,0.02721920,0.003471
 90,0.00076610,0.00039324,-0.00002925,0.00001190,0.00003659,0.00001400,
 -0.00068847,0.00018447,0.00043245,-0.00013945,-0.00025475,0.00006721,-
 0.00005399,-0.00006591,-0.00000574,-0.00009123,0.00035461,-0.00003958,
 -0.00002659,0.00007302,0.00001689,0.00001032,0.00004508,-0.00004640,0.
 00006645,-0.00005849,-0.00013798,0.00015283,0.00009372,-0.00003891,0.0
 0004136,-0.00024226,0.00010171,-0.00761081,0.00247244,-0.00083899,0.00
 450405,-0.00441152,-0.00023484,-0.00553705,0.02079833,0.00121697,-0.00
 353791,-0.07583503,-0.01841904,-0.10480929,-0.03750943,-0.01567067,0.0
 0050450,0.00176989,0.00082689,0.00466936,0.00212328,0.00254291,-0.0038
 8682,-0.00776399,-0.00185204,0.09951618,-0.00083512,-0.00049120,-0.000
 43372,-0.00058359,-0.00136553,0.00188121,-0.00441811,-0.00252158,-0.00
 184942,0.00062725,0.00163966,-0.00035203,0.00011067,-0.00028891,-0.000
 71798,0.00179896,0.00076782,0.00066131,0.00176488,0.00001162,0.0014213
 2,0.02118739,-0.07338984,-0.01217293,-0.00104754,0.00054896,0.00054335
 ,-0.00003798,0.00021209,0.00027484,0.00044328,0.00062275,-0.00024330,-
 0.00049633,-0.00050067,-0.00034297,0.00033279,0.00004222,-0.00003336,0
 .00100276,0.00011214,0.00034217,0.00009245,0.00001322,-0.00000913,0.00
 003905,0.00010205,0.00008262,-0.00002271,-0.00014801,0.00008060,0.0002
 0995,-0.00001817,0.00000576,-0.00050992,0.00029432,-0.00039821,0.01358
 076,0.00676181,0.00427590,-0.00337615,-0.00716919,-0.00209084,-0.00297
 092,0.01743287,0.00141090,-0.04529037,-0.05653750,-0.02282750,-0.04750
 453,-0.63081807,-0.10675823,-0.00082170,-0.00207592,-0.00028394,-0.000
 23633,-0.00228626,0.00043845,-0.00230513,-0.00593720,-0.00136285,0.069
 26622,0.75498649,-0.00005017,-0.00012704,0.00021745,-0.00007476,0.0003
 8353,-0.00041226,-0.00056731,0.00006852,-0.00211305,0.00024243,0.00004
 475,0.00021146,-0.00003375,0.00006164,0.00041799,-0.00042894,0.0007031
 5,0.00029624,0.00087627,0.00073373,0.00030317,0.00163066,-0.00992414,0
 .01864756,0.00043221,0.00007607,-0.00025993,0.00001404,0.00003710,0.00
 002347,-0.00000530,0.00002725,0.00005828,-0.00015269,-0.00009573,0.000
 04063,0.00000372,-0.00000989,-0.00000782,0.00012553,0.00005330,0.00009
 371,-0.00000324,0.00004705,-0.00000200,0.00002673,-0.00002717,0.000023
 23,-0.00004048,0.00000617,-0.00000726,-0.00003963,0.00002991,-0.000006
 46,-0.00005883,-0.00001324,-0.00007040,0.00063252,0.00170613,0.0008852
 7,0.00012281,-0.00226783,-0.00035238,-0.00263117,0.00638586,0.00744605
 ,-0.01291022,-0.02977558,0.01131008,-0.01651925,-0.10515778,-0.0900155
 4,0.00019398,0.00028050,-0.00114772,0.00188881,0.00086225,-0.00382319,
 -0.00120864,-0.00256652,-0.00229099,0.02853470,0.13845800,0.06053441\\
 -0.00000029,-0.00000861,-0.00000427,-0.00000434,0.00001026,0.00000530,
 0.00002421,-0.00000184,0.00000696,-0.00000360,0.00000044,-0.00000980,-
 0.00000067,-0.00000069,0.00000102,-0.00000702,0.00000912,-0.00000337,-
 0.00000387,-0.00000066,-0.00000092,0.00001589,-0.00003439,-0.00000738,
 -0.00000189,0.00000419,0.00000154,0.00000050,0.00000151,-0.00000293,0.
 00000050,-0.00000298,0.00000518,-0.00000080,-0.00000246,0.00000639,-0.
 00000205,0.00000105,0.00000108,-0.00000201,-0.00000177,-0.00000073,0.0
 0000067,0.00000003,-0.00000173,0.00000216,-0.00000285,-0.00000309,0.00
 000061,0.00000052,-0.00000051,0.00000137,-0.00000308,0.00000583,0.0000
 0185,0.00000039,0.00000149,0.00001407,0.00000257,0.00000596,-0.0000154
 9,0.00000804,0.00000228,0.00000368,-0.00002272,-0.00001239,0.00002201,
 0.00002427,0.00000889,-0.00004885,0.00003159,-0.00000949,-0.00000434,0
 .00000148,-0.00000030,-0.00000463,-0.00000306,-0.00000005,0.00000647,0
 .00000514,0.00000386,0.00000588,-0.00001549,0.00000120\\\@
 The archive entry for this job was punched.


 THE ... SCIENTISTS WERE WRONG ... THE MOST PERSISTENT PRINCIPLES 
 OF THE UNIVERSE WERE ACCIDENT AND ERROR.

                          -- FRANK HERBERT IN DUNE
 Job cpu time:       0 days 17 hours  3 minutes 30.1 seconds.
 Elapsed time:       0 days  0 hours 25 minutes 48.4 seconds.
 File lengths (MBytes):  RWF=   1167 Int=      0 D2E=      0 Chk=     28 Scr=      1
 Normal termination of Gaussian 16 at Mon Oct 28 09:23:45 2024.
