 Entering Gaussian System, Link 0=g16
 Input=PseudoUridineAmNsllgPBE0aVDZ.gjf
 Output=PseudoUridineAmNsllgPBE0aVDZ.log
 Initial command:
 /sw/contrib/chem-src/g16/c01/g16/l1.exe "/scr/Gau-16116.inp" -scrdir="/scr/"
 Entering Link 1 = /sw/contrib/chem-src/g16/c01/g16/l1.exe PID=     16117.
  
 Copyright (c) 1988-2019, Gaussian, Inc.  All Rights Reserved.
  
 This is part of the Gaussian(R) 16 program.  It is based on
 the Gaussian(R) 09 system (copyright 2009, Gaussian, Inc.),
 the Gaussian(R) 03 system (copyright 2003, Gaussian, Inc.),
 the Gaussian(R) 98 system (copyright 1998, Gaussian, Inc.),
 the Gaussian(R) 94 system (copyright 1995, Gaussian, Inc.),
 the Gaussian 92(TM) system (copyright 1992, Gaussian, Inc.),
 the Gaussian 90(TM) system (copyright 1990, Gaussian, Inc.),
 the Gaussian 88(TM) system (copyright 1988, Gaussian, Inc.),
 the Gaussian 86(TM) system (copyright 1986, Carnegie Mellon
 University), and the Gaussian 82(TM) system (copyright 1983,
 Carnegie Mellon University). Gaussian is a federally registered
 trademark of Gaussian, Inc.
  
 This software contains proprietary and confidential information,
 including trade secrets, belonging to Gaussian, Inc.
  
 This software is provided under written license and may be
 used, copied, transmitted, or stored only in accord with that
 written license.
  
 The following legend is applicable only to US Government
 contracts under FAR:
  
                    RESTRICTED RIGHTS LEGEND
  
 Use, reproduction and disclosure by the US Government is
 subject to restrictions as set forth in subparagraphs (a)
 and (c) of the Commercial Computer Software - Restricted
 Rights clause in FAR 52.227-19.
  
 Gaussian, Inc.
 340 Quinnipiac St., Bldg. 40, Wallingford CT 06492
  
  
 ---------------------------------------------------------------
 Warning -- This program may not be used in any manner that
 competes with the business of Gaussian, Inc. or will provide
 assistance to any competitor of Gaussian, Inc.  The licensee
 of this program is prohibited from giving any competitor of
 Gaussian, Inc. access to this program.  By using this program,
 the user acknowledges that Gaussian, Inc. is engaged in the
 business of creating and licensing software in the field of
 computational chemistry and represents and warrants to the
 licensee that it is not a competitor of Gaussian, Inc. and that
 it will not use this program in any manner prohibited above.
 ---------------------------------------------------------------
  

 Cite this work as:
 Gaussian 16, Revision C.01,
 M. J. Frisch, G. W. Trucks, H. B. Schlegel, G. E. Scuseria, 
 M. A. Robb, J. R. Cheeseman, G. Scalmani, V. Barone, 
 G. A. Petersson, H. Nakatsuji, X. Li, M. Caricato, A. V. Marenich, 
 J. Bloino, B. G. Janesko, R. Gomperts, B. Mennucci, H. P. Hratchian, 
 J. V. Ortiz, A. F. Izmaylov, J. L. Sonnenberg, D. Williams-Young, 
 F. Ding, F. Lipparini, F. Egidi, J. Goings, B. Peng, A. Petrone, 
 T. Henderson, D. Ranasinghe, V. G. Zakrzewski, J. Gao, N. Rega, 
 G. Zheng, W. Liang, M. Hada, M. Ehara, K. Toyota, R. Fukuda, 
 J. Hasegawa, M. Ishida, T. Nakajima, Y. Honda, O. Kitao, H. Nakai, 
 T. Vreven, K. Throssell, J. A. Montgomery, Jr., J. E. Peralta, 
 F. Ogliaro, M. J. Bearpark, J. J. Heyd, E. N. Brothers, K. N. Kudin, 
 V. N. Staroverov, T. A. Keith, R. Kobayashi, J. Normand, 
 K. Raghavachari, A. P. Rendell, J. C. Burant, S. S. Iyengar, 
 J. Tomasi, M. Cossi, J. M. Millam, M. Klene, C. Adamo, R. Cammi, 
 J. W. Ochterski, R. L. Martin, K. Morokuma, O. Farkas, 
 J. B. Foresman, and D. J. Fox, Gaussian, Inc., Wallingford CT, 2019.
 
 ******************************************
 Gaussian 16:  EM64L-G16RevC.01  3-Jul-2019
                27-Oct-2024 
 ******************************************
 %nprocshared=40
 Will use up to   40 processors via shared memory.
 %mem=50gb
 ------------------------------------------------------
 # PBE1PBE/aug-cc-pVDZ opt freq EmpiricalDispersion=GD3
 ------------------------------------------------------
 1/18=20,19=15,26=3,38=1/1,3;
 2/9=110,12=2,17=6,18=5,40=1/2;
 3/5=16,7=10,11=2,25=1,30=1,71=1,74=-13,124=31/1,2,3;
 4//1;
 5/5=2,38=5/2;
 6/7=2,8=2,9=2,10=2,28=1/1;
 7//1,2,3,16;
 1/18=20,19=15,26=3/3(2);
 2/9=110/2;
 99//99;
 2/9=110/2;
 3/5=16,7=10,11=2,25=1,30=1,71=1,74=-13,124=31/1,2,3;
 4/5=5,16=3,69=1/1;
 5/5=2,38=5/2;
 7//1,2,3,16;
 1/18=20,19=15,26=3/3(-5);
 2/9=110/2;
 6/7=2,8=2,9=2,10=2,19=2,28=1/1;
 99/9=1/99;
 ----
 blah
 ----
 Symbolic Z-matrix:
 Charge = -1 Multiplicity = 1
 C                    -2.09251  -0.19569   0.79799 
 C                    -1.2542   -1.37695   0.31304 
 C                    -0.4886   -0.7508   -0.86133 
 O                    -2.17762  -2.36744  -0.10764 
 H                    -0.57935  -1.77267   1.08303 
 O                    -1.28614   0.32765  -1.34181 
 H                    -0.37388  -1.50161  -1.65796 
 C                     0.86913  -0.25316  -0.45744 
 C                    -2.4343    0.50433  -0.51935 
 H                    -1.45066   0.45841   1.40442 
 O                    -3.20254  -0.54138   1.57925 
 C                    -2.75077   1.98211  -0.4112 
 H                    -3.30588  -0.00349  -0.97164 
 O                    -1.73412   2.72884   0.24445 
 H                    -3.72385   2.0987    0.09105 
 H                    -2.83961   2.39891  -1.4229 
 H                    -3.5502   -1.36507   1.21196 
 H                    -1.69241  -3.17416  -0.30371 
 H                    -1.90259   2.71108   1.19008 
 C                     1.16983   1.05997  -0.34174 
 N                     2.4202    1.4804    0.02445 
 C                     3.47189   0.62658   0.29971 
 N                     3.13471  -0.70645   0.17805 
 C                     1.89603  -1.24246  -0.17575 
 H                     0.42273   1.83151  -0.52608 
 H                     3.87683  -1.36628   0.37784 
 O                     4.57823   1.01655   0.61886 
 O                     1.73224  -2.45428  -0.22531 
 

 GradGradGradGradGradGradGradGradGradGradGradGradGradGradGradGradGradGrad
 Berny optimization.
 Initialization pass.
                           ----------------------------
                           !    Initial Parameters    !
                           ! (Angstroms and Degrees)  !
 --------------------------                            --------------------------
 ! Name  Definition              Value          Derivative Info.                !
 --------------------------------------------------------------------------------
 ! R1    R(1,2)                  1.5275         estimate D2E/DX2                !
 ! R2    R(1,9)                  1.5304         estimate D2E/DX2                !
 ! R3    R(1,10)                 1.0989         estimate D2E/DX2                !
 ! R4    R(1,11)                 1.4007         estimate D2E/DX2                !
 ! R5    R(2,3)                  1.5354         estimate D2E/DX2                !
 ! R6    R(2,4)                  1.418          estimate D2E/DX2                !
 ! R7    R(2,5)                  1.0977         estimate D2E/DX2                !
 ! R8    R(3,6)                  1.4248         estimate D2E/DX2                !
 ! R9    R(3,7)                  1.1007         estimate D2E/DX2                !
 ! R10   R(3,8)                  1.5014         estimate D2E/DX2                !
 ! R11   R(4,18)                 0.9616         estimate D2E/DX2                !
 ! R12   R(6,9)                  1.4234         estimate D2E/DX2                !
 ! R13   R(8,20)                 1.3521         estimate D2E/DX2                !
 ! R14   R(8,24)                 1.4535         estimate D2E/DX2                !
 ! R15   R(9,12)                 1.5151         estimate D2E/DX2                !
 ! R16   R(9,13)                 1.1055         estimate D2E/DX2                !
 ! R17   R(11,17)                0.9666         estimate D2E/DX2                !
 ! R18   R(12,14)                1.4216         estimate D2E/DX2                !
 ! R19   R(12,15)                1.1012         estimate D2E/DX2                !
 ! R20   R(12,16)                1.0978         estimate D2E/DX2                !
 ! R21   R(14,19)                0.9607         estimate D2E/DX2                !
 ! R22   R(20,21)                1.369          estimate D2E/DX2                !
 ! R23   R(20,25)                1.0897         estimate D2E/DX2                !
 ! R24   R(21,22)                1.3823         estimate D2E/DX2                !
 ! R25   R(22,23)                1.3804         estimate D2E/DX2                !
 ! R26   R(22,27)                1.2157         estimate D2E/DX2                !
 ! R27   R(23,24)                1.3953         estimate D2E/DX2                !
 ! R28   R(23,26)                1.0129         estimate D2E/DX2                !
 ! R29   R(24,28)                1.2238         estimate D2E/DX2                !
 ! A1    A(2,1,9)              101.7132         estimate D2E/DX2                !
 ! A2    A(2,1,10)             108.358          estimate D2E/DX2                !
 ! A3    A(2,1,11)             114.9064         estimate D2E/DX2                !
 ! A4    A(9,1,10)             109.4624         estimate D2E/DX2                !
 ! A5    A(9,1,11)             114.5819         estimate D2E/DX2                !
 ! A6    A(10,1,11)            107.5763         estimate D2E/DX2                !
 ! A7    A(1,2,3)              101.6023         estimate D2E/DX2                !
 ! A8    A(1,2,4)              106.0792         estimate D2E/DX2                !
 ! A9    A(1,2,5)              113.1718         estimate D2E/DX2                !
 ! A10   A(3,2,4)              112.4993         estimate D2E/DX2                !
 ! A11   A(3,2,5)              112.148          estimate D2E/DX2                !
 ! A12   A(4,2,5)              110.8942         estimate D2E/DX2                !
 ! A13   A(2,3,6)              106.7087         estimate D2E/DX2                !
 ! A14   A(2,3,7)              109.1092         estimate D2E/DX2                !
 ! A15   A(2,3,8)              112.3546         estimate D2E/DX2                !
 ! A16   A(6,3,7)              109.305          estimate D2E/DX2                !
 ! A17   A(6,3,8)              110.2451         estimate D2E/DX2                !
 ! A18   A(7,3,8)              109.0589         estimate D2E/DX2                !
 ! A19   A(2,4,18)             108.5365         estimate D2E/DX2                !
 ! A20   A(3,6,9)              110.5261         estimate D2E/DX2                !
 ! A21   A(3,8,20)             123.0956         estimate D2E/DX2                !
 ! A22   A(3,8,24)             117.7387         estimate D2E/DX2                !
 ! A23   A(20,8,24)            119.1653         estimate D2E/DX2                !
 ! A24   A(1,9,6)              105.0967         estimate D2E/DX2                !
 ! A25   A(1,9,12)             115.552          estimate D2E/DX2                !
 ! A26   A(1,9,13)             108.5496         estimate D2E/DX2                !
 ! A27   A(6,9,12)             109.3176         estimate D2E/DX2                !
 ! A28   A(6,9,13)             110.0322         estimate D2E/DX2                !
 ! A29   A(12,9,13)            108.2133         estimate D2E/DX2                !
 ! A30   A(1,11,17)            106.4639         estimate D2E/DX2                !
 ! A31   A(9,12,14)            113.3193         estimate D2E/DX2                !
 ! A32   A(9,12,15)            108.6863         estimate D2E/DX2                !
 ! A33   A(9,12,16)            108.7492         estimate D2E/DX2                !
 ! A34   A(14,12,15)           111.4658         estimate D2E/DX2                !
 ! A35   A(14,12,16)           106.467          estimate D2E/DX2                !
 ! A36   A(15,12,16)           107.9754         estimate D2E/DX2                !
 ! A37   A(12,14,19)           108.5932         estimate D2E/DX2                !
 ! A38   A(8,20,21)            121.6186         estimate D2E/DX2                !
 ! A39   A(8,20,25)            121.3788         estimate D2E/DX2                !
 ! A40   A(21,20,25)           116.9996         estimate D2E/DX2                !
 ! A41   A(20,21,22)           123.9475         estimate D2E/DX2                !
 ! A42   A(21,22,23)           113.147          estimate D2E/DX2                !
 ! A43   A(21,22,27)           123.1279         estimate D2E/DX2                !
 ! A44   A(23,22,27)           123.7249         estimate D2E/DX2                !
 ! A45   A(22,23,24)           127.6025         estimate D2E/DX2                !
 ! A46   A(22,23,26)           115.6401         estimate D2E/DX2                !
 ! A47   A(24,23,26)           116.7555         estimate D2E/DX2                !
 ! A48   A(8,24,23)            114.5119         estimate D2E/DX2                !
 ! A49   A(8,24,28)            124.8592         estimate D2E/DX2                !
 ! A50   A(23,24,28)           120.628          estimate D2E/DX2                !
 ! D1    D(9,1,2,3)             36.1624         estimate D2E/DX2                !
 ! D2    D(9,1,2,4)            -81.5956         estimate D2E/DX2                !
 ! D3    D(9,1,2,5)            156.5943         estimate D2E/DX2                !
 ! D4    D(10,1,2,3)           -79.1352         estimate D2E/DX2                !
 ! D5    D(10,1,2,4)           163.1068         estimate D2E/DX2                !
 ! D6    D(10,1,2,5)            41.2967         estimate D2E/DX2                !
 ! D7    D(11,1,2,3)           160.5419         estimate D2E/DX2                !
 ! D8    D(11,1,2,4)            42.7839         estimate D2E/DX2                !
 ! D9    D(11,1,2,5)           -79.0263         estimate D2E/DX2                !
 ! D10   D(2,1,9,6)            -34.9361         estimate D2E/DX2                !
 ! D11   D(2,1,9,12)          -155.5162         estimate D2E/DX2                !
 ! D12   D(2,1,9,13)            82.7583         estimate D2E/DX2                !
 ! D13   D(10,1,9,6)            79.5461         estimate D2E/DX2                !
 ! D14   D(10,1,9,12)          -41.034          estimate D2E/DX2                !
 ! D15   D(10,1,9,13)         -162.7596         estimate D2E/DX2                !
 ! D16   D(11,1,9,6)          -159.5332         estimate D2E/DX2                !
 ! D17   D(11,1,9,12)           79.8867         estimate D2E/DX2                !
 ! D18   D(11,1,9,13)          -41.8389         estimate D2E/DX2                !
 ! D19   D(2,1,11,17)          -36.2325         estimate D2E/DX2                !
 ! D20   D(9,1,11,17)           81.0605         estimate D2E/DX2                !
 ! D21   D(10,1,11,17)        -156.9852         estimate D2E/DX2                !
 ! D22   D(1,2,3,6)            -25.993          estimate D2E/DX2                !
 ! D23   D(1,2,3,7)           -143.9819         estimate D2E/DX2                !
 ! D24   D(1,2,3,8)             94.9441         estimate D2E/DX2                !
 ! D25   D(4,2,3,6)             87.0286         estimate D2E/DX2                !
 ! D26   D(4,2,3,7)            -30.9603         estimate D2E/DX2                !
 ! D27   D(4,2,3,8)           -152.0343         estimate D2E/DX2                !
 ! D28   D(5,2,3,6)           -147.1422         estimate D2E/DX2                !
 ! D29   D(5,2,3,7)             94.8689         estimate D2E/DX2                !
 ! D30   D(5,2,3,8)            -26.2051         estimate D2E/DX2                !
 ! D31   D(1,2,4,18)          -172.0933         estimate D2E/DX2                !
 ! D32   D(3,2,4,18)            77.6676         estimate D2E/DX2                !
 ! D33   D(5,2,4,18)           -48.8381         estimate D2E/DX2                !
 ! D34   D(2,3,6,9)              4.3443         estimate D2E/DX2                !
 ! D35   D(7,3,6,9)            122.2045         estimate D2E/DX2                !
 ! D36   D(8,3,6,9)           -117.9295         estimate D2E/DX2                !
 ! D37   D(2,3,8,20)          -107.5658         estimate D2E/DX2                !
 ! D38   D(2,3,8,24)            72.1769         estimate D2E/DX2                !
 ! D39   D(6,3,8,20)            11.3167         estimate D2E/DX2                !
 ! D40   D(6,3,8,24)          -168.9406         estimate D2E/DX2                !
 ! D41   D(7,3,8,20)           131.3313         estimate D2E/DX2                !
 ! D42   D(7,3,8,24)           -48.926          estimate D2E/DX2                !
 ! D43   D(3,6,9,1)             19.4045         estimate D2E/DX2                !
 ! D44   D(3,6,9,12)           144.0128         estimate D2E/DX2                !
 ! D45   D(3,6,9,13)           -97.2796         estimate D2E/DX2                !
 ! D46   D(3,8,20,21)         -179.767          estimate D2E/DX2                !
 ! D47   D(3,8,20,25)            0.8927         estimate D2E/DX2                !
 ! D48   D(24,8,20,21)           0.4939         estimate D2E/DX2                !
 ! D49   D(24,8,20,25)        -178.8464         estimate D2E/DX2                !
 ! D50   D(3,8,24,23)          179.3023         estimate D2E/DX2                !
 ! D51   D(3,8,24,28)           -1.0528         estimate D2E/DX2                !
 ! D52   D(20,8,24,23)          -0.9446         estimate D2E/DX2                !
 ! D53   D(20,8,24,28)         178.7002         estimate D2E/DX2                !
 ! D54   D(1,9,12,14)           53.9838         estimate D2E/DX2                !
 ! D55   D(1,9,12,15)          -70.5203         estimate D2E/DX2                !
 ! D56   D(1,9,12,16)          172.1673         estimate D2E/DX2                !
 ! D57   D(6,9,12,14)          -64.2777         estimate D2E/DX2                !
 ! D58   D(6,9,12,15)          171.2182         estimate D2E/DX2                !
 ! D59   D(6,9,12,16)           53.9058         estimate D2E/DX2                !
 ! D60   D(13,9,12,14)         175.8895         estimate D2E/DX2                !
 ! D61   D(13,9,12,15)          51.3853         estimate D2E/DX2                !
 ! D62   D(13,9,12,16)         -65.927          estimate D2E/DX2                !
 ! D63   D(9,12,14,19)         -87.54           estimate D2E/DX2                !
 ! D64   D(15,12,14,19)         35.4433         estimate D2E/DX2                !
 ! D65   D(16,12,14,19)        152.9611         estimate D2E/DX2                !
 ! D66   D(8,20,21,22)           0.2506         estimate D2E/DX2                !
 ! D67   D(25,20,21,22)        179.6185         estimate D2E/DX2                !
 ! D68   D(20,21,22,23)         -0.4417         estimate D2E/DX2                !
 ! D69   D(20,21,22,27)        179.7108         estimate D2E/DX2                !
 ! D70   D(21,22,23,24)         -0.1221         estimate D2E/DX2                !
 ! D71   D(21,22,23,26)       -179.5919         estimate D2E/DX2                !
 ! D72   D(27,22,23,24)        179.7244         estimate D2E/DX2                !
 ! D73   D(27,22,23,26)          0.2545         estimate D2E/DX2                !
 ! D74   D(22,23,24,8)           0.7929         estimate D2E/DX2                !
 ! D75   D(22,23,24,28)       -178.8685         estimate D2E/DX2                !
 ! D76   D(26,23,24,8)        -179.7424         estimate D2E/DX2                !
 ! D77   D(26,23,24,28)          0.5963         estimate D2E/DX2                !
 --------------------------------------------------------------------------------
 Trust Radius=3.00D-01 FncErr=1.00D-07 GrdErr=1.00D-06 EigMax=2.50D+02 EigMin=1.00D-04
 Number of steps in this run=    166 maximum allowed number of steps=    168.
 GradGradGradGradGradGradGradGradGradGradGradGradGradGradGradGradGradGrad

                          Input orientation:                          
 ---------------------------------------------------------------------
 Center     Atomic      Atomic             Coordinates (Angstroms)
 Number     Number       Type             X           Y           Z
 ---------------------------------------------------------------------
      1          6           0       -2.092511   -0.195694    0.797987
      2          6           0       -1.254201   -1.376946    0.313037
      3          6           0       -0.488602   -0.750795   -0.861334
      4          8           0       -2.177622   -2.367441   -0.107639
      5          1           0       -0.579354   -1.772669    1.083028
      6          8           0       -1.286140    0.327650   -1.341811
      7          1           0       -0.373882   -1.501610   -1.657958
      8          6           0        0.869129   -0.253155   -0.457443
      9          6           0       -2.434300    0.504333   -0.519346
     10          1           0       -1.450655    0.458413    1.404415
     11          8           0       -3.202540   -0.541382    1.579245
     12          6           0       -2.750774    1.982106   -0.411197
     13          1           0       -3.305883   -0.003487   -0.971637
     14          8           0       -1.734122    2.728841    0.244450
     15          1           0       -3.723846    2.098703    0.091051
     16          1           0       -2.839608    2.398907   -1.422900
     17          1           0       -3.550197   -1.365071    1.211959
     18          1           0       -1.692414   -3.174163   -0.303713
     19          1           0       -1.902589    2.711081    1.190075
     20          6           0        1.169825    1.059967   -0.341743
     21          7           0        2.420198    1.480404    0.024449
     22          6           0        3.471891    0.626576    0.299705
     23          7           0        3.134708   -0.706451    0.178050
     24          6           0        1.896027   -1.242460   -0.175752
     25          1           0        0.422731    1.831507   -0.526080
     26          1           0        3.876825   -1.366284    0.377843
     27          8           0        4.578227    1.016546    0.618858
     28          8           0        1.732242   -2.454277   -0.225313
 ---------------------------------------------------------------------
                    Distance matrix (angstroms):
                    1          2          3          4          5
     1  C    0.000000
     2  C    1.527513   0.000000
     3  C    2.373606   1.535368   0.000000
     4  O    2.354546   1.418011   2.456499   0.000000
     5  H    2.204029   1.097680   2.198410   2.079880   0.000000
     6  O    2.345817   2.375961   1.424770   3.095390   3.284925
     7  H    3.269674   2.162250   1.100679   2.531132   2.762009
     8  C    3.217253   2.522910   1.501402   3.724951   2.603858
     9  C    1.530433   2.371646   2.340522   2.912468   3.345619
    10  H    1.098904   2.144351   2.742508   3.286372   2.416647
    11  O    1.400724   2.469307   3.655918   2.688964   2.939967
    12  C    2.576480   3.747996   3.576142   4.397637   4.587604
    13  H    2.154248   2.783195   2.916798   2.758214   3.845207
    14  O    2.997958   4.134310   3.857712   5.127646   4.722319
    15  H    2.902632   4.269492   4.415142   4.730405   5.085211
    16  H    3.496062   4.447927   3.970291   4.988608   5.365675
    17  H    1.914070   2.465725   3.748232   2.151754   3.001444
    18  H    3.200796   1.949974   2.762755   0.961599   2.264098
    19  H    2.939242   4.231024   4.265234   5.248913   4.676155
    20  C    3.676752   3.499026   2.509823   4.796596   3.621247
    21  N    4.875675   4.663576   3.771469   5.996941   4.549768
    22  C    5.646856   5.133247   4.350939   6.406798   4.773108
    23  N    5.288574   4.441881   3.769703   5.573272   3.968635
    24  C    4.237018   3.190758   2.529469   4.226682   2.827218
    25  H    3.491295   3.716233   2.758842   4.956621   4.072283
    26  H    6.097522   5.131446   4.579447   6.155838   4.529897
    27  O    6.782356   6.311858   5.566616   7.590827   5.881821
    28  O    4.558188   3.220140   2.870283   3.912598   2.742229
                    6          7          8          9         10
     6  O    0.000000
     7  H    2.068419   0.000000
     8  C    2.400963   2.131889   0.000000
     9  C    1.423354   3.092825   3.389729   0.000000
    10  H    2.754255   3.791999   3.058471   2.161139   0.000000
    11  O    3.600052   4.404864   4.561761   2.467346   2.024662
    12  C    2.397586   4.397761   4.254671   1.515145   2.703405
    13  H    2.079914   3.363337   4.213960   1.105489   3.049729
    14  O    2.912496   4.833852   4.020183   2.453991   2.565291
    15  H    3.336485   5.219535   5.189172   2.139516   3.095622
    16  H    2.590356   4.620508   4.660501   2.137778   3.699786
    17  H    3.809593   4.282995   4.853216   2.781603   2.787510
    18  H    3.674969   2.523874   3.888113   3.758753   4.021412
    19  H    3.531459   5.309897   4.379889   2.841579   2.307531
    20  C    2.751034   3.267588   1.352070   3.651026   3.205909
    21  N    4.114906   4.419252   2.375555   4.981423   4.234652
    22  C    5.042102   4.811610   2.849837   5.963965   5.047784
    23  N    4.787822   4.038986   2.396284   5.741621   4.887375
    24  C    3.735121   2.723340   1.453476   4.681995   4.073104
    25  H    2.418107   3.609073   2.133026   3.150248   3.020227
    26  H    5.699371   4.715009   3.314060   6.643377   5.724108
    27  O    6.221704   6.004031   4.065461   7.122739   6.105410
    28  O    4.253976   2.719523   2.375665   5.118584   4.612007
                   11         12         13         14         15
    11  O    0.000000
    12  C    3.245604   0.000000
    13  H    2.609025   2.136544   0.000000
    14  O    3.825217   1.421643   3.378597   0.000000
    15  H    3.075147   1.101234   2.392321   2.092751   0.000000
    16  H    4.217807   1.097797   2.488483   2.027563   1.778777
    17  H    0.966555   3.804906   2.584897   4.581956   3.644766
    18  H    3.571771   5.264864   3.619750   5.928548   5.664421
    19  H    3.524180   1.953175   3.743142   0.960679   2.213558
    20  C    5.037071   4.028183   4.643238   3.400246   5.021384
    21  N    6.174155   5.213487   5.998510   4.343428   6.175436
    22  C    6.895606   6.408151   6.924703   5.614726   7.347743
    23  N    6.492404   6.497265   6.580057   5.959123   7.410548
    24  C    5.437546   5.660920   5.406325   5.396831   6.543510
    25  H    4.817218   3.179153   4.179508   2.459866   4.200755
    26  H    7.227810   7.467220   7.434353   6.947702   8.358145
    27  O    7.993111   7.463751   8.107363   6.551174   8.388925
    28  O    5.591750   6.309792   5.652086   6.253085   7.113270
                   16         17         18         19         20
    16  H    0.000000
    17  H    4.649188   0.000000
    18  H    5.798943   3.003570   0.000000
    19  H    2.793402   4.396602   6.075498   0.000000
    20  C    4.363166   5.529322   5.110941   3.809511   0.000000
    21  N    5.532091   6.719563   6.219828   4.643246   1.369049
    22  C    6.778167   7.355854   6.440480   5.832920   2.428743
    23  N    6.920892   6.796374   5.442684   6.170744   2.692802
    24  C    6.102554   5.621577   4.077347   5.650261   2.419936
    25  H    3.430610   5.387304   5.438751   3.020919   1.089680
    26  H    7.907579   7.473714   5.894859   7.119428   3.705718
    27  O    7.816903   8.490886   7.598297   6.722999   3.541447
    28  O    6.774173   5.581781   3.500379   6.472731   3.560868
                   21         22         23         24         25
    21  N    0.000000
    22  C    1.382334   0.000000
    23  N    2.305743   1.380382   0.000000
    24  C    2.780076   2.490522   1.395282   0.000000
    25  H    2.101483   3.380999   3.780456   3.426748   0.000000
    26  H    3.217185   2.035084   1.012934   2.060427   4.793090
    27  O    2.285952   1.215695   2.290585   3.595652   4.386706
    28  O    4.002172   3.576825   2.276952   1.223839   4.491461
                   26         27         28
    26  H    0.000000
    27  O    2.495582   0.000000
    28  O    2.479266   4.567151   0.000000
 Stoichiometry    C9H11N2O6(1-)
 Framework group  C1[X(C9H11N2O6)]
 Deg. of freedom    78
 Full point group                 C1      NOp   1
 Largest Abelian subgroup         C1      NOp   1
 Largest concise Abelian subgroup C1      NOp   1
                         Standard orientation:                         
 ---------------------------------------------------------------------
 Center     Atomic      Atomic             Coordinates (Angstroms)
 Number     Number       Type             X           Y           Z
 ---------------------------------------------------------------------
      1          6           0       -2.069419   -0.205974    0.797746
      2          6           0       -1.214604   -1.374905    0.311756
      3          6           0       -0.457322   -0.736812   -0.861579
      4          8           0       -2.124023   -2.377632   -0.110441
      5          1           0       -0.534623   -1.762121    1.081555
      6          8           0       -1.269572    0.331017   -1.341119
      7          1           0       -0.331884   -1.485030   -1.659031
      8          6           0        0.893214   -0.220843   -0.456567
      9          6           0       -2.420390    0.490781   -0.518908
     10          1           0       -1.436939    0.456272    1.405191
     11          8           0       -3.174841   -0.567953    1.578158
     12          6           0       -2.757392    1.963890   -0.409165
     13          1           0       -3.284665   -0.028562   -0.972138
     14          8           0       -1.751457    2.723901    0.247757
     15          1           0       -3.732182    2.066379    0.092830
     16          1           0       -2.851617    2.380600   -1.420418
     17          1           0       -3.510888   -1.395959    1.209774
     18          1           0       -1.627586   -3.177310   -0.307261
     19          1           0       -1.920024    2.702697    1.193293
     20          6           0        1.175605    1.096191   -0.339218
     21          7           0        2.419880    1.533519    0.027962
     22          6           0        3.483220    0.694053    0.302644
     23          7           0        3.164624   -0.643383    0.179303
     24          6           0        1.933640   -1.196124   -0.175618
     25          1           0        0.417942    1.857500   -0.522956
     26          1           0        3.915754   -1.293083    0.378624
     27          8           0        4.583913    1.098972    0.622693
     28          8           0        1.786715   -2.410039   -0.226655
 ---------------------------------------------------------------------
 Rotational constants (GHZ):           0.7874645           0.3250832           0.2577759
 Standard basis: Aug-CC-pVDZ (5D, 7F)
 There are   524 symmetry adapted cartesian basis functions of A   symmetry.
 There are   490 symmetry adapted basis functions of A   symmetry.
   490 basis functions,   852 primitive gaussians,   524 cartesian basis functions
    64 alpha electrons       64 beta electrons
       nuclear repulsion energy      1296.5849412941 Hartrees.
 NAtoms=   28 NActive=   28 NUniq=   28 SFac= 1.00D+00 NAtFMM=   60 NAOKFM=F Big=F
 Integral buffers will be    131072 words long.
 Raffenetti 2 integral format.
 Two-electron integral symmetry is turned on.
 Nuclear repulsion after empirical dispersion term =     1296.5651515479 Hartrees.
 One-electron integrals computed using PRISM.
 NBasis=   490 RedAO= T EigKep=  3.20D-06  NBF=   490
 NBsUse=   490 1.00D-06 EigRej= -1.00D+00 NBFU=   490
 ExpMin= 2.97D-02 ExpMax= 1.17D+04 ExpMxC= 4.01D+02 IAcc=3 IRadAn=         5 AccDes= 0.00D+00
 Harris functional with IExCor= 1009 and IRadAn=       5 diagonalized for initial guess.
 HarFok:  IExCor= 1009 AccDes= 0.00D+00 IRadAn=         5 IDoV= 1 UseB2=F ITyADJ=14
 ICtDFT=  3500011 ScaDFX=  1.000000  1.000000  1.000000  1.000000
 FoFCou: FMM=F IPFlag=           0 FMFlag=      100000 FMFlg1=           0
         NFxFlg=           0 DoJE=T BraDBF=F KetDBF=T FulRan=T
         wScrn=  0.000000 ICntrl=       500 IOpCl=  0 I1Cent=   200000004 NGrid=           0
         NMat0=    1 NMatS0=      1 NMatT0=    0 NMatD0=    1 NMtDS0=    0 NMtDT0=    0
 Petite list used in FoFCou.
 Requested convergence on RMS density matrix=1.00D-08 within 128 cycles.
 Requested convergence on MAX density matrix=1.00D-06.
 Requested convergence on             energy=1.00D-06.
 No special actions if energy rises.
 SCF Done:  E(RPBE1PBE) =  -909.673200248     A.U. after   14 cycles
            NFock= 14  Conv=0.52D-08     -V/T= 2.0052

 **********************************************************************

            Population analysis using the SCF Density.

 **********************************************************************

 Orbital symmetries:
       Occupied  (A) (A) (A) (A) (A) (A) (A) (A) (A) (A) (A) (A)
                 (A) (A) (A) (A) (A) (A) (A) (A) (A) (A) (A) (A)
                 (A) (A) (A) (A) (A) (A) (A) (A) (A) (A) (A) (A)
                 (A) (A) (A) (A) (A) (A) (A) (A) (A) (A) (A) (A)
                 (A) (A) (A) (A) (A) (A) (A) (A) (A) (A) (A) (A)
                 (A) (A) (A) (A)
       Virtual   (A) (A) (A) (A) (A) (A) (A) (A) (A) (A) (A) (A)
                 (A) (A) (A) (A) (A) (A) (A) (A) (A) (A) (A) (A)
                 (A) (A) (A) (A) (A) (A) (A) (A) (A) (A) (A) (A)
                 (A) (A) (A) (A) (A) (A) (A) (A) (A) (A) (A) (A)
                 (A) (A) (A) (A) (A) (A) (A) (A) (A) (A) (A) (A)
                 (A) (A) (A) (A) (A) (A) (A) (A) (A) (A) (A) (A)
                 (A) (A) (A) (A) (A) (A) (A) (A) (A) (A) (A) (A)
                 (A) (A) (A) (A) (A) (A) (A) (A) (A) (A) (A) (A)
                 (A) (A) (A) (A) (A) (A) (A) (A) (A) (A) (A) (A)
                 (A) (A) (A) (A) (A) (A) (A) (A) (A) (A) (A) (A)
                 (A) (A) (A) (A) (A) (A) (A) (A) (A) (A) (A) (A)
                 (A) (A) (A) (A) (A) (A) (A) (A) (A) (A) (A) (A)
                 (A) (A) (A) (A) (A) (A) (A) (A) (A) (A) (A) (A)
                 (A) (A) (A) (A) (A) (A) (A) (A) (A) (A) (A) (A)
                 (A) (A) (A) (A) (A) (A) (A) (A) (A) (A) (A) (A)
                 (A) (A) (A) (A) (A) (A) (A) (A) (A) (A) (A) (A)
                 (A) (A) (A) (A) (A) (A) (A) (A) (A) (A) (A) (A)
                 (A) (A) (A) (A) (A) (A) (A) (A) (A) (A) (A) (A)
                 (A) (A) (A) (A) (A) (A) (A) (A) (A) (A) (A) (A)
                 (A) (A) (A) (A) (A) (A) (A) (A) (A) (A) (A) (A)
                 (A) (A) (A) (A) (A) (A) (A) (A) (A) (A) (A) (A)
                 (A) (A) (A) (A) (A) (A) (A) (A) (A) (A) (A) (A)
                 (A) (A) (A) (A) (A) (A) (A) (A) (A) (A) (A) (A)
                 (A) (A) (A) (A) (A) (A) (A) (A) (A) (A) (A) (A)
                 (A) (A) (A) (A) (A) (A) (A) (A) (A) (A) (A) (A)
                 (A) (A) (A) (A) (A) (A) (A) (A) (A) (A) (A) (A)
                 (A) (A) (A) (A) (A) (A) (A) (A) (A) (A) (A) (A)
                 (A) (A) (A) (A) (A) (A) (A) (A) (A) (A) (A) (A)
                 (A) (A) (A) (A) (A) (A) (A) (A) (A) (A) (A) (A)
                 (A) (A) (A) (A) (A) (A) (A) (A) (A) (A) (A) (A)
                 (A) (A) (A) (A) (A) (A) (A) (A) (A) (A) (A) (A)
                 (A) (A) (A) (A) (A) (A) (A) (A) (A) (A) (A) (A)
                 (A) (A) (A) (A) (A) (A) (A) (A) (A) (A) (A) (A)
                 (A) (A) (A) (A) (A) (A) (A) (A) (A) (A) (A) (A)
                 (A) (A) (A) (A) (A) (A) (A) (A) (A) (A) (A) (A)
                 (A) (A) (A) (A) (A) (A)
 The electronic state is 1-A.
 Alpha  occ. eigenvalues --  -19.14456 -19.14010 -19.13879 -19.12189 -19.04871
 Alpha  occ. eigenvalues --  -19.02398 -14.28647 -14.20465 -10.19041 -10.19008
 Alpha  occ. eigenvalues --  -10.18762 -10.18689 -10.18236 -10.18086 -10.16762
 Alpha  occ. eigenvalues --  -10.11889 -10.07800  -0.99660  -0.97249  -0.96342
 Alpha  occ. eigenvalues --   -0.95724  -0.93704  -0.91267  -0.81421  -0.74645
 Alpha  occ. eigenvalues --   -0.70110  -0.69684  -0.64002  -0.58610  -0.53531
 Alpha  occ. eigenvalues --   -0.52566  -0.51021  -0.48831  -0.46298  -0.45041
 Alpha  occ. eigenvalues --   -0.43214  -0.40645  -0.39545  -0.38846  -0.37368
 Alpha  occ. eigenvalues --   -0.36855  -0.34171  -0.33123  -0.32700  -0.32428
 Alpha  occ. eigenvalues --   -0.31529  -0.30645  -0.28770  -0.28066  -0.27654
 Alpha  occ. eigenvalues --   -0.26507  -0.25970  -0.25560  -0.24481  -0.21821
 Alpha  occ. eigenvalues --   -0.20344  -0.18707  -0.17711  -0.16685  -0.14306
 Alpha  occ. eigenvalues --   -0.14144  -0.11996  -0.09760  -0.06323
 Alpha virt. eigenvalues --    0.07135   0.08256   0.08786   0.09883   0.11240
 Alpha virt. eigenvalues --    0.11382   0.11497   0.12285   0.12658   0.13453
 Alpha virt. eigenvalues --    0.14226   0.14657   0.15292   0.16195   0.16297
 Alpha virt. eigenvalues --    0.16479   0.16931   0.17259   0.17580   0.17740
 Alpha virt. eigenvalues --    0.18316   0.18966   0.19139   0.19698   0.20175
 Alpha virt. eigenvalues --    0.20253   0.20549   0.20674   0.21267   0.21779
 Alpha virt. eigenvalues --    0.22196   0.22261   0.22753   0.22969   0.23319
 Alpha virt. eigenvalues --    0.23561   0.24089   0.24762   0.25375   0.25587
 Alpha virt. eigenvalues --    0.25947   0.26653   0.27417   0.27589   0.27924
 Alpha virt. eigenvalues --    0.28514   0.28759   0.29282   0.30016   0.30211
 Alpha virt. eigenvalues --    0.30697   0.30993   0.31403   0.32099   0.32440
 Alpha virt. eigenvalues --    0.32888   0.33085   0.33425   0.33902   0.34291
 Alpha virt. eigenvalues --    0.34564   0.34937   0.35390   0.35655   0.35863
 Alpha virt. eigenvalues --    0.36175   0.36538   0.37120   0.37444   0.37620
 Alpha virt. eigenvalues --    0.37802   0.38066   0.38562   0.38746   0.38967
 Alpha virt. eigenvalues --    0.39326   0.39661   0.40182   0.40468   0.40752
 Alpha virt. eigenvalues --    0.41212   0.41605   0.41997   0.42551   0.42693
 Alpha virt. eigenvalues --    0.42768   0.43473   0.43743   0.43920   0.44361
 Alpha virt. eigenvalues --    0.44697   0.45772   0.46190   0.46345   0.46655
 Alpha virt. eigenvalues --    0.47638   0.47914   0.48236   0.48897   0.49577
 Alpha virt. eigenvalues --    0.49846   0.49988   0.50840   0.51429   0.51889
 Alpha virt. eigenvalues --    0.52265   0.52920   0.53065   0.53736   0.55040
 Alpha virt. eigenvalues --    0.55469   0.55793   0.55984   0.56830   0.57584
 Alpha virt. eigenvalues --    0.57989   0.58490   0.58748   0.59406   0.59686
 Alpha virt. eigenvalues --    0.60431   0.60979   0.61299   0.61944   0.62789
 Alpha virt. eigenvalues --    0.63633   0.64229   0.64712   0.65409   0.65965
 Alpha virt. eigenvalues --    0.66840   0.66937   0.67244   0.67886   0.68363
 Alpha virt. eigenvalues --    0.69480   0.70287   0.70401   0.70670   0.71236
 Alpha virt. eigenvalues --    0.71784   0.72494   0.73273   0.73465   0.74057
 Alpha virt. eigenvalues --    0.74439   0.74518   0.74988   0.75816   0.76412
 Alpha virt. eigenvalues --    0.76730   0.77582   0.77720   0.78263   0.78608
 Alpha virt. eigenvalues --    0.79174   0.79423   0.80350   0.80920   0.81181
 Alpha virt. eigenvalues --    0.81458   0.81897   0.83199   0.83698   0.84207
 Alpha virt. eigenvalues --    0.85077   0.85585   0.86054   0.86796   0.87003
 Alpha virt. eigenvalues --    0.87454   0.87751   0.88767   0.88888   0.89880
 Alpha virt. eigenvalues --    0.90144   0.90790   0.91699   0.92510   0.93457
 Alpha virt. eigenvalues --    0.93917   0.94192   0.94934   0.95789   0.96982
 Alpha virt. eigenvalues --    0.97718   0.99199   0.99334   1.00194   1.00488
 Alpha virt. eigenvalues --    1.01275   1.02518   1.03085   1.03358   1.04350
 Alpha virt. eigenvalues --    1.05028   1.05424   1.05959   1.07031   1.08235
 Alpha virt. eigenvalues --    1.08448   1.09547   1.10685   1.11622   1.12989
 Alpha virt. eigenvalues --    1.14703   1.15142   1.15692   1.16637   1.17056
 Alpha virt. eigenvalues --    1.17411   1.18882   1.19258   1.20036   1.21032
 Alpha virt. eigenvalues --    1.21951   1.22606   1.22931   1.23266   1.24395
 Alpha virt. eigenvalues --    1.25111   1.26685   1.27406   1.28019   1.28507
 Alpha virt. eigenvalues --    1.30143   1.30658   1.30935   1.31403   1.32056
 Alpha virt. eigenvalues --    1.33554   1.35331   1.35976   1.36177   1.37328
 Alpha virt. eigenvalues --    1.38100   1.38632   1.39219   1.41763   1.42914
 Alpha virt. eigenvalues --    1.44048   1.44544   1.45345   1.46502   1.46944
 Alpha virt. eigenvalues --    1.48624   1.50761   1.51339   1.52124   1.52844
 Alpha virt. eigenvalues --    1.55294   1.55887   1.56587   1.57781   1.58240
 Alpha virt. eigenvalues --    1.59312   1.59621   1.60321   1.61613   1.62446
 Alpha virt. eigenvalues --    1.62925   1.65124   1.65763   1.66263   1.68123
 Alpha virt. eigenvalues --    1.69661   1.70806   1.71201   1.72313   1.72847
 Alpha virt. eigenvalues --    1.74017   1.74986   1.76300   1.76850   1.78295
 Alpha virt. eigenvalues --    1.78568   1.79646   1.80003   1.80974   1.81576
 Alpha virt. eigenvalues --    1.83338   1.83846   1.86524   1.87334   1.87871
 Alpha virt. eigenvalues --    1.88226   1.89407   1.90445   1.91140   1.92165
 Alpha virt. eigenvalues --    1.92651   1.94108   1.95321   1.96794   1.97245
 Alpha virt. eigenvalues --    1.98007   1.98635   2.00234   2.01211   2.01776
 Alpha virt. eigenvalues --    2.02826   2.04030   2.04426   2.04998   2.06759
 Alpha virt. eigenvalues --    2.07703   2.09650   2.09801   2.11111   2.13442
 Alpha virt. eigenvalues --    2.14114   2.14474   2.15400   2.16549   2.18037
 Alpha virt. eigenvalues --    2.19223   2.20002   2.20548   2.21824   2.22769
 Alpha virt. eigenvalues --    2.24393   2.24919   2.26513   2.27112   2.27249
 Alpha virt. eigenvalues --    2.29949   2.30087   2.32337   2.32602   2.33391
 Alpha virt. eigenvalues --    2.34183   2.35229   2.36171   2.36346   2.37957
 Alpha virt. eigenvalues --    2.39594   2.40742   2.42418   2.42838   2.44566
 Alpha virt. eigenvalues --    2.45194   2.46033   2.48678   2.51079   2.51711
 Alpha virt. eigenvalues --    2.53496   2.54011   2.54823   2.56866   2.58115
 Alpha virt. eigenvalues --    2.58815   2.60253   2.60853   2.65055   2.65751
 Alpha virt. eigenvalues --    2.66462   2.67181   2.69661   2.70224   2.72526
 Alpha virt. eigenvalues --    2.72704   2.74310   2.77423   2.78210   2.79489
 Alpha virt. eigenvalues --    2.81060   2.83345   2.83648   2.86133   2.87922
 Alpha virt. eigenvalues --    2.89202   2.89868   2.93886   2.94832   2.97775
 Alpha virt. eigenvalues --    2.99756   3.04044   3.05579   3.06236   3.09474
 Alpha virt. eigenvalues --    3.12260   3.14317   3.15792   3.24173   3.25647
 Alpha virt. eigenvalues --    3.28817   3.38110   3.43216   3.45401   3.47984
 Alpha virt. eigenvalues --    3.51320   3.54630   3.55996   3.57525   3.59017
 Alpha virt. eigenvalues --    3.60267   3.60677   3.61066   3.61633   3.63043
 Alpha virt. eigenvalues --    3.63211   3.64440   3.64991   3.66294   3.67616
 Alpha virt. eigenvalues --    3.69272   3.71439   3.72538   3.75718   3.76938
 Alpha virt. eigenvalues --    3.77388   3.80631   3.82264   3.83548   3.86044
 Alpha virt. eigenvalues --    3.87458   3.92661   3.96894   4.00155   4.08182
 Alpha virt. eigenvalues --    4.11568   4.12693   4.20086   4.25986   4.44219
 Alpha virt. eigenvalues --    4.69027
          Condensed to atoms (all electrons):
               1          2          3          4          5          6
     1  C    8.373095  -1.688834   1.402091   0.035832   0.316858   0.151465
     2  C   -1.688834   9.313483  -2.688490  -0.601979  -1.181759  -0.105895
     3  C    1.402091  -2.688490  13.673802   0.066671   0.529629  -0.115137
     4  O    0.035832  -0.601979   0.066671   8.750013  -0.057576   0.021430
     5  H    0.316858  -1.181759   0.529629  -0.057576   2.241497   0.003752
     6  O    0.151465  -0.105895  -0.115137   0.021430   0.003752   9.493126
     7  H   -0.111302   0.177864  -0.830369   0.011754   0.081306  -0.247984
     8  C   -0.160535   1.057044  -2.296935   0.017241  -0.322178   0.046516
     9  C   -1.923204   0.633493  -2.403888   0.147900   0.053404  -0.178929
    10  H   -0.481676   0.050459   0.041637   0.022198  -0.179487   0.025747
    11  O   -0.316641  -0.004006  -0.044879  -0.008782   0.026695  -0.016709
    12  C   -0.374136  -0.071425   0.229099   0.005710   0.027610  -0.151372
    13  H    0.382480  -0.129894   0.358936  -0.019656  -0.003792  -0.082503
    14  O   -0.031496   0.022442  -0.002387  -0.001837  -0.002644   0.016130
    15  H    0.066294   0.056592  -0.014474  -0.003134   0.002390   0.095040
    16  H   -0.042413  -0.027952  -0.029703   0.000539  -0.000023  -0.096497
    17  H   -0.137745   0.014072   0.025668   0.019606  -0.006314   0.003335
    18  H   -0.024306   0.116039  -0.095904   0.343703  -0.102953   0.003998
    19  H   -0.067827   0.003535  -0.003827  -0.000239   0.000027  -0.018376
    20  C    0.009811  -0.392159  -1.957790   0.045470   0.003758   0.117799
    21  N    0.014474  -0.013627   0.256580  -0.000455   0.000818   0.015169
    22  C   -0.026143   0.039841  -0.257745   0.000411  -0.004986  -0.002140
    23  N    0.001751   0.000682  -0.273407   0.000186  -0.015251   0.007784
    24  C   -0.140423   0.135287  -0.506187  -0.004208   0.041579  -0.096931
    25  H   -0.024361   0.026985   0.150020   0.003298   0.016754  -0.116127
    26  H   -0.000842   0.001862   0.012901   0.000031   0.000099  -0.000154
    27  O    0.000534  -0.002077   0.009163   0.000008  -0.000723   0.000358
    28  O   -0.004836   0.035903  -0.069013  -0.003220  -0.020993   0.004833
               7          8          9         10         11         12
     1  C   -0.111302  -0.160535  -1.923204  -0.481676  -0.316641  -0.374136
     2  C    0.177864   1.057044   0.633493   0.050459  -0.004006  -0.071425
     3  C   -0.830369  -2.296935  -2.403888   0.041637  -0.044879   0.229099
     4  O    0.011754   0.017241   0.147900   0.022198  -0.008782   0.005710
     5  H    0.081306  -0.322178   0.053404  -0.179487   0.026695   0.027610
     6  O   -0.247984   0.046516  -0.178929   0.025747  -0.016709  -0.151372
     7  H    1.929964   0.211118   0.301778  -0.022411   0.007305   0.004249
     8  C    0.211118  12.823078   0.461720  -0.053079   0.014874  -0.084127
     9  C    0.301778   0.461720   9.278333  -0.309415   0.271131  -0.053488
    10  H   -0.022411  -0.053079  -0.309415   2.342011  -0.175409  -0.061323
    11  O    0.007305   0.014874   0.271131  -0.175409   8.547376   0.016126
    12  C    0.004249  -0.084127  -0.053488  -0.061323   0.016126   5.189097
    13  H    0.003590  -0.120483  -1.157100   0.118428  -0.039531  -0.041999
    14  O   -0.002587   0.035235  -0.060735  -0.000147   0.008226   0.150208
    15  H   -0.001528   0.031847   0.018462  -0.034471  -0.000906  -0.009815
    16  H    0.000976  -0.015940   0.256359   0.029681   0.000628   0.108445
    17  H   -0.002186  -0.019247  -0.016505   0.035829   0.350958  -0.004463
    18  H   -0.022780   0.041735  -0.031492   0.006475   0.000298  -0.003900
    19  H    0.001205  -0.009333   0.054392   0.015657   0.000840   0.023828
    20  C   -0.029369  -3.661493   0.034610   0.126974  -0.002977  -0.111813
    21  N   -0.005700   0.109649  -0.012915  -0.003174  -0.000101  -0.000469
    22  C   -0.007519   0.254275   0.009918  -0.006288   0.000508  -0.009082
    23  N    0.018503  -0.029838   0.001699   0.009678  -0.000044  -0.004234
    24  C   -0.050645  -3.461775   0.029694  -0.030267   0.004926   0.029851
    25  H    0.033818   0.238086  -0.042685  -0.032418   0.001216   0.074324
    26  H   -0.000682   0.140426   0.000177  -0.000225   0.000010   0.000133
    27  O    0.000266   0.001231   0.000055   0.000254  -0.000008   0.000130
    28  O    0.028517   0.142821   0.002003   0.005304  -0.000687  -0.001422
              13         14         15         16         17         18
     1  C    0.382480  -0.031496   0.066294  -0.042413  -0.137745  -0.024306
     2  C   -0.129894   0.022442   0.056592  -0.027952   0.014072   0.116039
     3  C    0.358936  -0.002387  -0.014474  -0.029703   0.025668  -0.095904
     4  O   -0.019656  -0.001837  -0.003134   0.000539   0.019606   0.343703
     5  H   -0.003792  -0.002644   0.002390  -0.000023  -0.006314  -0.102953
     6  O   -0.082503   0.016130   0.095040  -0.096497   0.003335   0.003998
     7  H    0.003590  -0.002587  -0.001528   0.000976  -0.002186  -0.022780
     8  C   -0.120483   0.035235   0.031847  -0.015940  -0.019247   0.041735
     9  C   -1.157100  -0.060735   0.018462   0.256359  -0.016505  -0.031492
    10  H    0.118428  -0.000147  -0.034471   0.029681   0.035829   0.006475
    11  O   -0.039531   0.008226  -0.000906   0.000628   0.350958   0.000298
    12  C   -0.041999   0.150208  -0.009815   0.108445  -0.004463  -0.003900
    13  H    2.339162   0.023844  -0.119146  -0.012590   0.003004   0.002597
    14  O    0.023844   8.346787  -0.032505  -0.171952   0.000721   0.000166
    15  H   -0.119146  -0.032505   1.663584  -0.403580   0.003108   0.000388
    16  H   -0.012590  -0.171952  -0.403580   1.592729  -0.001583  -0.000874
    17  H    0.003004   0.000721   0.003108  -0.001583   0.647746  -0.001509
    18  H    0.002597   0.000166   0.000388  -0.000874  -0.001509   0.628069
    19  H    0.004406   0.315778  -0.078827   0.035433  -0.000153  -0.000145
    20  C    0.027358  -0.066311  -0.033306   0.036902  -0.004157   0.007902
    21  N   -0.001411   0.014151   0.000812  -0.002655   0.000327  -0.000256
    22  C    0.000402  -0.000108  -0.000764   0.000755  -0.000157   0.001005
    23  N    0.000383   0.000071   0.000007  -0.000631  -0.000249   0.002423
    24  C   -0.001389  -0.002482   0.000264   0.003564   0.004469  -0.006492
    25  H    0.005326  -0.020336  -0.003315   0.012405   0.000415  -0.000664
    26  H    0.000055  -0.000020  -0.000037   0.000100   0.000015  -0.000231
    27  O   -0.000003   0.000030   0.000034  -0.000059  -0.000007   0.000006
    28  O   -0.000499  -0.000143   0.000037  -0.000168  -0.000196   0.005560
              19         20         21         22         23         24
     1  C   -0.067827   0.009811   0.014474  -0.026143   0.001751  -0.140423
     2  C    0.003535  -0.392159  -0.013627   0.039841   0.000682   0.135287
     3  C   -0.003827  -1.957790   0.256580  -0.257745  -0.273407  -0.506187
     4  O   -0.000239   0.045470  -0.000455   0.000411   0.000186  -0.004208
     5  H    0.000027   0.003758   0.000818  -0.004986  -0.015251   0.041579
     6  O   -0.018376   0.117799   0.015169  -0.002140   0.007784  -0.096931
     7  H    0.001205  -0.029369  -0.005700  -0.007519   0.018503  -0.050645
     8  C   -0.009333  -3.661493   0.109649   0.254275  -0.029838  -3.461775
     9  C    0.054392   0.034610  -0.012915   0.009918   0.001699   0.029694
    10  H    0.015657   0.126974  -0.003174  -0.006288   0.009678  -0.030267
    11  O    0.000840  -0.002977  -0.000101   0.000508  -0.000044   0.004926
    12  C    0.023828  -0.111813  -0.000469  -0.009082  -0.004234   0.029851
    13  H    0.004406   0.027358  -0.001411   0.000402   0.000383  -0.001389
    14  O    0.315778  -0.066311   0.014151  -0.000108   0.000071  -0.002482
    15  H   -0.078827  -0.033306   0.000812  -0.000764   0.000007   0.000264
    16  H    0.035433   0.036902  -0.002655   0.000755  -0.000631   0.003564
    17  H   -0.000153  -0.004157   0.000327  -0.000157  -0.000249   0.004469
    18  H   -0.000145   0.007902  -0.000256   0.001005   0.002423  -0.006492
    19  H    0.541313   0.003948   0.000386   0.001351  -0.000868   0.003137
    20  C    0.003948  14.922297  -0.831783  -0.482879   0.598799  -2.206782
    21  N    0.000386  -0.831783   8.155191   0.075391  -0.065891   0.193503
    22  C    0.001351  -0.482879   0.075391   6.203276  -0.008732  -0.335704
    23  N   -0.000868   0.598799  -0.065891  -0.008732   7.370654  -0.374749
    24  C    0.003137  -2.206782   0.193503  -0.335704  -0.374749  12.340409
    25  H    0.006670  -0.935104  -0.047163  -0.033549  -0.035209   0.156305
    26  H    0.000067  -0.143560   0.053010  -0.213985   0.370246  -0.201455
    27  O   -0.000072   0.081441  -0.129139   0.124628  -0.115637   0.028345
    28  O   -0.000169  -0.041404  -0.001654   0.030173  -0.124194  -0.053805
              25         26         27         28
     1  C   -0.024361  -0.000842   0.000534  -0.004836
     2  C    0.026985   0.001862  -0.002077   0.035903
     3  C    0.150020   0.012901   0.009163  -0.069013
     4  O    0.003298   0.000031   0.000008  -0.003220
     5  H    0.016754   0.000099  -0.000723  -0.020993
     6  O   -0.116127  -0.000154   0.000358   0.004833
     7  H    0.033818  -0.000682   0.000266   0.028517
     8  C    0.238086   0.140426   0.001231   0.142821
     9  C   -0.042685   0.000177   0.000055   0.002003
    10  H   -0.032418  -0.000225   0.000254   0.005304
    11  O    0.001216   0.000010  -0.000008  -0.000687
    12  C    0.074324   0.000133   0.000130  -0.001422
    13  H    0.005326   0.000055  -0.000003  -0.000499
    14  O   -0.020336  -0.000020   0.000030  -0.000143
    15  H   -0.003315  -0.000037   0.000034   0.000037
    16  H    0.012405   0.000100  -0.000059  -0.000168
    17  H    0.000415   0.000015  -0.000007  -0.000196
    18  H   -0.000664  -0.000231   0.000006   0.005560
    19  H    0.006670   0.000067  -0.000072  -0.000169
    20  C   -0.935104  -0.143560   0.081441  -0.041404
    21  N   -0.047163   0.053010  -0.129139  -0.001654
    22  C   -0.033549  -0.213985   0.124628   0.030173
    23  N   -0.035209   0.370246  -0.115637  -0.124194
    24  C    0.156305  -0.201455   0.028345  -0.053805
    25  H    2.283650  -0.006469   0.004050  -0.008709
    26  H   -0.006469   1.154737  -0.007646  -0.034923
    27  O    0.004050  -0.007646   8.709964  -0.004056
    28  O   -0.008709  -0.034923  -0.004056   8.992589
 Mulliken charges:
               1
     1  C    0.802034
     2  C    1.222515
     3  C    0.833939
     4  O   -0.790917
     5  H   -0.447499
     6  O   -0.777729
     7  H   -0.477150
     8  C    0.608067
     9  C    0.635228
    10  H   -0.440544
    11  O   -0.640435
    12  C    1.124259
    13  H   -0.539977
    14  O   -0.538101
    15  H   -0.203051
    16  H   -0.271896
    17  H    0.085195
    18  H    0.131143
    19  H    0.167863
    20  C    0.883819
    21  N   -0.773068
    22  C    0.647846
    23  N   -0.333931
    24  C    0.501960
    25  H   -0.707211
    26  H   -0.123642
    27  O   -0.701067
    28  O   -0.877650
 Sum of Mulliken charges =  -1.00000
 Mulliken charges with hydrogens summed into heavy atoms:
               1
     1  C    0.361490
     2  C    0.775016
     3  C    0.356788
     4  O   -0.659774
     6  O   -0.777729
     8  C    0.608067
     9  C    0.095251
    11  O   -0.555240
    12  C    0.649311
    14  O   -0.370238
    20  C    0.176608
    21  N   -0.773068
    22  C    0.647846
    23  N   -0.457573
    24  C    0.501960
    27  O   -0.701067
    28  O   -0.877650
 Electronic spatial extent (au):  <R**2>=           4211.7148
 Charge=             -1.0000 electrons
 Dipole moment (field-independent basis, Debye):
    X=            -11.3280    Y=             -3.1379    Z=             -0.0335  Tot=             11.7546
 Quadrupole moment (field-independent basis, Debye-Ang):
   XX=           -154.7250   YY=           -120.4643   ZZ=           -105.2654
   XY=            -14.9984   XZ=             -2.8317   YZ=              0.1291
 Traceless Quadrupole moment (field-independent basis, Debye-Ang):
   XX=            -27.9068   YY=              6.3539   ZZ=             21.5529
   XY=            -14.9984   XZ=             -2.8317   YZ=              0.1291
 Octapole moment (field-independent basis, Debye-Ang**2):
  XXX=           -216.1451  YYY=            -29.2815  ZZZ=              2.4612  XYY=            -64.3264
  XXY=            -66.5756  XXZ=            -38.5371  XZZ=             -0.9958  YZZ=              3.5235
  YYZ=              7.3642  XYZ=            -16.4550
 Hexadecapole moment (field-independent basis, Debye-Ang**3):
 XXXX=          -4653.3718 YYYY=          -1495.4199 ZZZZ=           -418.5820 XXXY=           -364.8581
 XXXZ=            -96.8462 YYYX=             41.8750 YYYZ=             14.5471 ZZZX=              7.4057
 ZZZY=             16.4918 XXYY=           -968.4785 XXZZ=           -733.4521 YYZZ=           -274.5585
 XXYZ=            -49.2943 YYXZ=            -20.2095 ZZXY=            -26.4363
 N-N= 1.296565151548D+03 E-N=-4.743272848272D+03  KE= 9.049542632842D+02
 Calling FoFJK, ICntrl=      2127 FMM=F ISym2X=0 I1Cent= 0 IOpClX= 0 NMat=1 NMatS=1 NMatT=0.
 ***** Axes restored to original set *****
 -------------------------------------------------------------------
 Center     Atomic                   Forces (Hartrees/Bohr)
 Number     Number              X              Y              Z
 -------------------------------------------------------------------
      1        6           0.004579551    0.000567109   -0.002022057
      2        6           0.003235826    0.005708116   -0.002100111
      3        6           0.011871822   -0.005373519    0.005802702
      4        8          -0.007888808   -0.006623136    0.000495463
      5        1           0.000538025    0.000311735   -0.001349546
      6        8          -0.011649990    0.003082562    0.000203153
      7        1          -0.002775589   -0.002023436   -0.001087848
      8        6          -0.005916974   -0.034721367   -0.001662847
      9        6           0.007360178   -0.000660325   -0.003321729
     10        1           0.000298454   -0.000594922   -0.000998945
     11        8          -0.006259216   -0.001257271    0.003515406
     12        6           0.002823829    0.000642489    0.001885633
     13        1          -0.002100843   -0.000708825   -0.000086050
     14        8          -0.005618150    0.001771141   -0.000892342
     15        1          -0.001389103    0.000057612    0.000441581
     16        1           0.000313279    0.000046913   -0.000578834
     17        1           0.001670003    0.000250975   -0.000737973
     18        1           0.001608278    0.002203845   -0.000166744
     19        1           0.001629552   -0.001326890   -0.000454645
     20        6           0.057603912    0.015418531    0.017059700
     21        7          -0.011222514    0.019756232   -0.002733681
     22        6          -0.063531385    0.023426936   -0.017364742
     23        7           0.005018657   -0.019778962    0.000901260
     24        6          -0.003965644    0.038801575   -0.000977972
     25        1           0.001328997    0.000983186   -0.000134409
     26        1          -0.002203020   -0.003338420   -0.000602155
     27        8           0.028539358   -0.004134545    0.007974196
     28        8          -0.003898485   -0.032487338   -0.001006463
 -------------------------------------------------------------------
 Cartesian Forces:  Max     0.063531385 RMS     0.013434041

 GradGradGradGradGradGradGradGradGradGradGradGradGradGradGradGradGradGrad
 Berny optimization.
 FormGI is forming the generalized inverse of G from B-inverse, IUseBI=4.
 Internal  Forces:  Max     0.037048728 RMS     0.007469882
 Search for a local minimum.
 Step number   1 out of a maximum of  166
 All quantities printed in internal units (Hartrees-Bohrs-Radians)
 Mixed Optimization -- RFO/linear search
 Second derivative matrix not updated -- first step.
 ITU=  0
     Eigenvalues ---    0.00547   0.00566   0.00747   0.00868   0.01405
     Eigenvalues ---    0.01454   0.01514   0.01555   0.01682   0.01713
     Eigenvalues ---    0.01844   0.01941   0.01944   0.02298   0.02546
     Eigenvalues ---    0.03085   0.03705   0.04382   0.04867   0.04895
     Eigenvalues ---    0.05013   0.05477   0.05675   0.05953   0.06062
     Eigenvalues ---    0.06146   0.07108   0.07922   0.08135   0.09793
     Eigenvalues ---    0.11671   0.13195   0.14023   0.15975   0.15999
     Eigenvalues ---    0.16000   0.16000   0.16000   0.16000   0.16636
     Eigenvalues ---    0.18806   0.19893   0.22086   0.22928   0.23849
     Eigenvalues ---    0.24999   0.25000   0.25000   0.25000   0.26366
     Eigenvalues ---    0.28548   0.28653   0.30839   0.32231   0.33082
     Eigenvalues ---    0.33546   0.33607   0.33804   0.33927   0.33940
     Eigenvalues ---    0.34850   0.36926   0.39425   0.40268   0.42214
     Eigenvalues ---    0.42761   0.43926   0.45485   0.45501   0.46763
     Eigenvalues ---    0.48114   0.50313   0.53463   0.54087   0.55131
     Eigenvalues ---    0.55328   0.93702   0.97316
 RFO step:  Lambda=-2.30945265D-02 EMin= 5.47392016D-03
 Linear search not attempted -- first point.
 Iteration  1 RMS(Cart)=  0.09518070 RMS(Int)=  0.00257901
 Iteration  2 RMS(Cart)=  0.00370998 RMS(Int)=  0.00010247
 Iteration  3 RMS(Cart)=  0.00000791 RMS(Int)=  0.00010239
 Iteration  4 RMS(Cart)=  0.00000000 RMS(Int)=  0.00010239
 Variable       Old X    -DE/DX   Delta X   Delta X   Delta X     New X
                                 (Linear)    (Quad)   (Total)
    R1        2.88658  -0.00180   0.00000  -0.00604  -0.00606   2.88053
    R2        2.89210   0.00040   0.00000  -0.00135  -0.00137   2.89072
    R3        2.07663  -0.00073   0.00000  -0.00202  -0.00202   2.07460
    R4        2.64699   0.00543   0.00000   0.01137   0.01137   2.65835
    R5        2.90142  -0.00240   0.00000  -0.00610  -0.00605   2.89537
    R6        2.67965   0.00708   0.00000   0.01571   0.01571   2.69536
    R7        2.07431  -0.00073   0.00000  -0.00201  -0.00201   2.07231
    R8        2.69242   0.00824   0.00000   0.02011   0.02013   2.71256
    R9        2.07998   0.00188   0.00000   0.00523   0.00523   2.08521
   R10        2.83724   0.00328   0.00000   0.00949   0.00949   2.84673
   R11        1.81716  -0.00100   0.00000  -0.00175  -0.00175   1.81541
   R12        2.68975  -0.00331   0.00000  -0.00776  -0.00780   2.68195
   R13        2.55504   0.03705   0.00000   0.06503   0.06520   2.62024
   R14        2.74667  -0.01940   0.00000  -0.04704  -0.04708   2.69959
   R15        2.86321   0.00166   0.00000   0.00500   0.00500   2.86821
   R16        2.08907   0.00202   0.00000   0.00570   0.00570   2.09477
   R17        1.82652  -0.00053   0.00000  -0.00095  -0.00095   1.82558
   R18        2.68651  -0.00324   0.00000  -0.00728  -0.00728   2.67924
   R19        2.08103   0.00143   0.00000   0.00400   0.00400   2.08503
   R20        2.07454   0.00053   0.00000   0.00145   0.00145   2.07599
   R21        1.81542  -0.00071   0.00000  -0.00123  -0.00123   1.81419
   R22        2.58713  -0.02721   0.00000  -0.05198  -0.05177   2.53536
   R23        2.05920  -0.00019   0.00000  -0.00052  -0.00052   2.05868
   R24        2.61223  -0.01421   0.00000  -0.02897  -0.02892   2.58331
   R25        2.60854   0.01960   0.00000   0.03830   0.03814   2.64668
   R26        2.29733   0.02674   0.00000   0.02684   0.02684   2.32417
   R27        2.63670  -0.01029   0.00000  -0.01998  -0.02019   2.61651
   R28        1.91417   0.00044   0.00000   0.00092   0.00092   1.91509
   R29        2.31272   0.03273   0.00000   0.03409   0.03409   2.34681
    A1        1.77523   0.00006   0.00000  -0.00823  -0.00825   1.76698
    A2        1.89120   0.00084   0.00000   0.00794   0.00792   1.89913
    A3        2.00549  -0.00125   0.00000  -0.00786  -0.00790   1.99759
    A4        1.91048   0.00035   0.00000   0.00440   0.00443   1.91491
    A5        1.99983  -0.00049   0.00000  -0.00366  -0.00380   1.99603
    A6        1.87756   0.00056   0.00000   0.00778   0.00781   1.88537
    A7        1.77329   0.00194   0.00000   0.00813   0.00817   1.78146
    A8        1.85143  -0.00289   0.00000  -0.00971  -0.00977   1.84166
    A9        1.97522   0.00146   0.00000   0.00922   0.00922   1.98445
   A10        1.96348   0.00225   0.00000   0.01401   0.01406   1.97754
   A11        1.95735  -0.00259   0.00000  -0.01518  -0.01521   1.94214
   A12        1.93547   0.00004   0.00000  -0.00459  -0.00453   1.93094
   A13        1.86242  -0.00332   0.00000  -0.01214  -0.01225   1.85017
   A14        1.90432  -0.00026   0.00000  -0.02009  -0.02034   1.88397
   A15        1.96096  -0.00260   0.00000  -0.00899  -0.00911   1.95184
   A16        1.90773  -0.00115   0.00000  -0.01247  -0.01300   1.89473
   A17        1.92414   0.00740   0.00000   0.05311   0.05309   1.97723
   A18        1.90344  -0.00016   0.00000  -0.00044  -0.00069   1.90274
   A19        1.89432  -0.00425   0.00000  -0.02322  -0.02322   1.87110
   A20        1.92904   0.00064   0.00000  -0.00089  -0.00085   1.92820
   A21        2.14842   0.01582   0.00000   0.05752   0.05747   2.20589
   A22        2.05493  -0.01220   0.00000  -0.04508  -0.04513   2.00980
   A23        2.07983  -0.00361   0.00000  -0.01245  -0.01235   2.06747
   A24        1.83428  -0.00034   0.00000   0.00008  -0.00006   1.83422
   A25        2.01676   0.00029   0.00000   0.00438   0.00420   2.02096
   A26        1.89455  -0.00014   0.00000  -0.00711  -0.00713   1.88741
   A27        1.90795   0.00182   0.00000   0.02040   0.02040   1.92836
   A28        1.92042   0.00006   0.00000   0.00064   0.00070   1.92113
   A29        1.88868  -0.00164   0.00000  -0.01781  -0.01781   1.87087
   A30        1.85815  -0.00313   0.00000  -0.01712  -0.01712   1.84103
   A31        1.97779   0.00441   0.00000   0.01887   0.01887   1.99666
   A32        1.89693  -0.00185   0.00000  -0.00957  -0.00956   1.88737
   A33        1.89803  -0.00057   0.00000  -0.00063  -0.00067   1.89736
   A34        1.94545  -0.00118   0.00000  -0.00439  -0.00436   1.94109
   A35        1.85820  -0.00143   0.00000  -0.00386  -0.00391   1.85429
   A36        1.88453   0.00051   0.00000  -0.00092  -0.00094   1.88358
   A37        1.89531   0.00093   0.00000   0.00507   0.00507   1.90038
   A38        2.12264   0.02162   0.00000   0.08532   0.08565   2.20829
   A39        2.11846  -0.00920   0.00000  -0.03381  -0.03399   2.08447
   A40        2.04203  -0.01242   0.00000  -0.05144  -0.05162   1.99041
   A41        2.16329  -0.02924   0.00000  -0.11472  -0.11435   2.04894
   A42        1.97479   0.02095   0.00000   0.07363   0.07350   2.04829
   A43        2.14899   0.00494   0.00000   0.01964   0.01971   2.16869
   A44        2.15941  -0.02589   0.00000  -0.09327  -0.09321   2.06620
   A45        2.22708  -0.00120   0.00000  -0.00377  -0.00414   2.22294
   A46        2.01830   0.00445   0.00000   0.02289   0.02308   2.04138
   A47        2.03777  -0.00325   0.00000  -0.01913  -0.01895   2.01882
   A48        1.99861  -0.00852   0.00000  -0.02799  -0.02828   1.97033
   A49        2.17920   0.00490   0.00000   0.01633   0.01647   2.19568
   A50        2.10536   0.00362   0.00000   0.01163   0.01177   2.11712
    D1        0.63115   0.00205   0.00000   0.01565   0.01564   0.64679
    D2       -1.42411  -0.00017   0.00000   0.00031   0.00030  -1.42381
    D3        2.73309   0.00087   0.00000   0.00708   0.00709   2.74017
    D4       -1.38117   0.00131   0.00000   0.01148   0.01148  -1.36969
    D5        2.84675  -0.00092   0.00000  -0.00386  -0.00386   2.84289
    D6        0.72076   0.00013   0.00000   0.00290   0.00293   0.72369
    D7        2.80198   0.00079   0.00000   0.00084   0.00087   2.80286
    D8        0.74672  -0.00144   0.00000  -0.01449  -0.01446   0.73226
    D9       -1.37927  -0.00039   0.00000  -0.00773  -0.00767  -1.38694
   D10       -0.60975  -0.00092   0.00000  -0.01810  -0.01804  -0.62779
   D11       -2.71427  -0.00314   0.00000  -0.04644  -0.04638  -2.76065
   D12        1.44440  -0.00109   0.00000  -0.02074  -0.02067   1.42374
   D13        1.38834   0.00020   0.00000  -0.01140  -0.01138   1.37697
   D14       -0.71618  -0.00202   0.00000  -0.03974  -0.03972  -0.75590
   D15       -2.84069   0.00003   0.00000  -0.01403  -0.01400  -2.85469
   D16       -2.78438   0.00086   0.00000  -0.00055  -0.00055  -2.78493
   D17        1.39429  -0.00137   0.00000  -0.02889  -0.02889   1.36540
   D18       -0.73023   0.00069   0.00000  -0.00318  -0.00318  -0.73340
   D19       -0.63238   0.00087   0.00000   0.01612   0.01608  -0.61630
   D20        1.41477  -0.00035   0.00000  -0.00358  -0.00355   1.41122
   D21       -2.73991   0.00019   0.00000   0.00538   0.00539  -2.73452
   D22       -0.45366  -0.00103   0.00000  -0.00478  -0.00475  -0.45841
   D23       -2.51296   0.00230   0.00000   0.02717   0.02708  -2.48588
   D24        1.65709   0.00438   0.00000   0.04744   0.04726   1.70435
   D25        1.51894  -0.00242   0.00000  -0.00603  -0.00588   1.51305
   D26       -0.54036   0.00090   0.00000   0.02593   0.02594  -0.51442
   D27       -2.65350   0.00298   0.00000   0.04619   0.04613  -2.60737
   D28       -2.56812  -0.00266   0.00000  -0.01320  -0.01308  -2.58119
   D29        1.65577   0.00066   0.00000   0.01876   0.01875   1.67452
   D30       -0.45736   0.00275   0.00000   0.03902   0.03893  -0.41843
   D31       -3.00360   0.00003   0.00000  -0.01239  -0.01242  -3.01601
   D32        1.35555  -0.00171   0.00000  -0.02308  -0.02308   1.33247
   D33       -0.85238  -0.00003   0.00000  -0.01011  -0.01008  -0.86246
   D34        0.07582   0.00023   0.00000  -0.00904  -0.00910   0.06673
   D35        2.13287  -0.00252   0.00000  -0.04607  -0.04596   2.08691
   D36       -2.05826   0.00111   0.00000  -0.02173  -0.02182  -2.08008
   D37       -1.87738  -0.00077   0.00000  -0.02723  -0.02731  -1.90469
   D38        1.25972  -0.00088   0.00000  -0.03003  -0.03014   1.22958
   D39        0.19751  -0.00165   0.00000  -0.01261  -0.01261   0.18490
   D40       -2.94857  -0.00176   0.00000  -0.01540  -0.01544  -2.96401
   D41        2.29216   0.00137   0.00000   0.00429   0.00442   2.29659
   D42       -0.85392   0.00126   0.00000   0.00150   0.00159  -0.85233
   D43        0.33867   0.00016   0.00000   0.01744   0.01747   0.35615
   D44        2.51350   0.00134   0.00000   0.03439   0.03445   2.54795
   D45       -1.69785   0.00048   0.00000   0.02541   0.02551  -1.67234
   D46       -3.13753  -0.00013   0.00000  -0.00305  -0.00308  -3.14060
   D47        0.01558  -0.00045   0.00000  -0.00936  -0.00940   0.00618
   D48        0.00862   0.00000   0.00000  -0.00014  -0.00010   0.00852
   D49       -3.12146  -0.00032   0.00000  -0.00645  -0.00642  -3.12788
   D50        3.12942   0.00016   0.00000   0.00418   0.00413   3.13354
   D51       -0.01838  -0.00002   0.00000  -0.00068  -0.00076  -0.01914
   D52       -0.01649   0.00011   0.00000   0.00169   0.00174  -0.01475
   D53        3.11891  -0.00007   0.00000  -0.00316  -0.00315   3.11575
   D54        0.94220   0.00064   0.00000   0.00986   0.00987   0.95206
   D55       -1.23081   0.00045   0.00000   0.00946   0.00950  -1.22131
   D56        3.00489   0.00119   0.00000   0.01623   0.01627   3.02115
   D57       -1.12186  -0.00045   0.00000  -0.00803  -0.00814  -1.13000
   D58        2.98832  -0.00064   0.00000  -0.00844  -0.00851   2.97981
   D59        0.94083   0.00010   0.00000  -0.00166  -0.00174   0.93909
   D60        3.06985  -0.00061   0.00000  -0.01009  -0.01005   3.05980
   D61        0.89684  -0.00080   0.00000  -0.01049  -0.01041   0.88643
   D62       -1.15064  -0.00006   0.00000  -0.00371  -0.00365  -1.15429
   D63       -1.52786   0.00145   0.00000   0.03352   0.03352  -1.49434
   D64        0.61860   0.00140   0.00000   0.03162   0.03162   0.65022
   D65        2.66967   0.00053   0.00000   0.02585   0.02585   2.69553
   D66        0.00437  -0.00009   0.00000  -0.00188  -0.00187   0.00250
   D67        3.13493   0.00023   0.00000   0.00422   0.00421   3.13915
   D68       -0.00771   0.00010   0.00000   0.00211   0.00208  -0.00563
   D69        3.13655   0.00017   0.00000   0.00239   0.00234   3.13888
   D70       -0.00213   0.00002   0.00000  -0.00024  -0.00030  -0.00243
   D71       -3.13447   0.00010   0.00000   0.00131   0.00126  -3.13321
   D72        3.13678   0.00001   0.00000  -0.00033  -0.00036   3.13642
   D73        0.00444   0.00009   0.00000   0.00122   0.00120   0.00564
   D74        0.01384  -0.00000   0.00000  -0.00115  -0.00121   0.01263
   D75       -3.12184   0.00016   0.00000   0.00346   0.00341  -3.11844
   D76       -3.13710  -0.00005   0.00000  -0.00252  -0.00256  -3.13966
   D77        0.01041   0.00012   0.00000   0.00209   0.00205   0.01246
         Item               Value     Threshold  Converged?
 Maximum Force            0.037049     0.000450     NO 
 RMS     Force            0.007470     0.000300     NO 
 Maximum Displacement     0.397682     0.001800     NO 
 RMS     Displacement     0.095691     0.001200     NO 
 Predicted change in Energy=-1.263166D-02
 GradGradGradGradGradGradGradGradGradGradGradGradGradGradGradGradGradGrad

                          Input orientation:                          
 ---------------------------------------------------------------------
 Center     Atomic      Atomic             Coordinates (Angstroms)
 Number     Number       Type             X           Y           Z
 ---------------------------------------------------------------------
      1          6           0       -2.076249   -0.167626    0.804109
      2          6           0       -1.208463   -1.322094    0.316597
      3          6           0       -0.457201   -0.684876   -0.856898
      4          8           0       -2.120852   -2.342322   -0.084748
      5          1           0       -0.513317   -1.701822    1.074982
      6          8           0       -1.298951    0.373745   -1.337745
      7          1           0       -0.360099   -1.444677   -1.651170
      8          6           0        0.917003   -0.216942   -0.454511
      9          6           0       -2.450730    0.503179   -0.518684
     10          1           0       -1.456457    0.513124    1.402168
     11          8           0       -3.176624   -0.557354    1.589094
     12          6           0       -2.875107    1.957409   -0.424803
     13          1           0       -3.297946   -0.057412   -0.962244
     14          8           0       -1.936901    2.800730    0.222275
     15          1           0       -3.858242    1.996776    0.074479
     16          1           0       -2.996120    2.355546   -1.441507
     17          1           0       -3.475689   -1.396506    1.215404
     18          1           0       -1.601108   -3.123907   -0.289410
     19          1           0       -2.087472    2.763651    1.169697
     20          6           0        1.330448    1.099472   -0.317780
     21          7           0        2.553665    1.519294    0.039330
     22          6           0        3.497217    0.563505    0.294170
     23          7           0        3.107158   -0.775730    0.168157
     24          6           0        1.858613   -1.257445   -0.187086
     25          1           0        0.621776    1.905358   -0.505231
     26          1           0        3.809242   -1.479337    0.365742
     27          8           0        4.656069    0.806102    0.627123
     28          8           0        1.628900   -2.476692   -0.241227
 ---------------------------------------------------------------------
                    Distance matrix (angstroms):
                    1          2          3          4          5
     1  C    0.000000
     2  C    1.524309   0.000000
     3  C    2.376512   1.532165   0.000000
     4  O    2.349757   1.426323   2.472059   0.000000
     5  H    2.206781   1.096617   2.183915   2.083118   0.000000
     6  O    2.341968   2.370844   1.435422   3.102022   3.278177
     7  H    3.256444   2.146358   1.103446   2.521843   2.742535
     8  C    3.247478   2.516660   1.506424   3.725927   2.567106
     9  C    1.529705   2.360624   2.345213   2.897239   3.339965
    10  H    1.097832   2.146623   2.745377   3.287235   2.429516
    11  O    1.406739   2.465306   3.659837   2.665054   2.944031
    12  C    2.581506   3.752668   3.607582   4.378610   4.606232
    13  H    2.150510   2.756953   2.911124   2.715945   3.822110
    14  O    3.028050   4.187744   3.937459   5.155491   4.798611
    15  H    2.896981   4.253804   4.430102   4.676713   5.086172
    16  H    3.500765   4.451031   4.004004   4.967580   5.381380
    17  H    1.907287   2.440022   3.729896   2.102510   2.981373
    18  H    3.187654   1.941119   2.753078   0.960675   2.251040
    19  H    2.954008   4.265413   4.319399   5.257918   4.735755
    20  C    3.803913   3.565457   2.582680   4.879725   3.631322
    21  N    4.986650   4.722707   3.837564   6.064534   4.566677
    22  C    5.644299   5.069459   4.303584   6.336412   4.671805
    23  N    5.257559   4.352600   3.709938   5.463539   3.845493
    24  C    4.201584   3.108831   2.477797   4.125964   2.723296
    25  H    3.645679   3.800214   2.827928   5.073618   4.098446
    26  H    6.045804   5.020408   4.508719   6.009467   4.386005
    27  O    6.804673   6.246469   5.529092   7.506397   5.763056
    28  O    4.489169   3.113662   2.818061   3.755420   2.630955
                    6          7          8          9         10
     6  O    0.000000
     7  H    2.070348   0.000000
     8  C    2.457533   2.137830   0.000000
     9  C    1.419228   3.073664   3.444463   0.000000
    10  H    2.747973   3.789176   3.100575   2.162949   0.000000
    11  O    3.599859   4.384001   4.588027   2.468680   2.034659
    12  C    2.413653   4.404933   4.371360   1.517792   2.726967
    13  H    2.079153   3.321155   4.248416   1.108505   3.050743
    14  O    2.954809   4.900978   4.208225   2.468153   2.618418
    15  H    3.343437   5.201775   5.289928   2.136296   3.119704
    16  H    2.611260   4.629715   4.785853   2.140167   3.721769
    17  H    3.793487   4.233966   4.845177   2.768827   2.785474
    18  H    3.663861   2.492851   3.849492   3.732316   4.013771
    19  H    3.552559   5.352675   4.533085   2.844700   2.348849
    20  C    2.912173   3.332953   1.386570   3.833176   3.326990
    21  N    4.248678   4.486974   2.436607   5.136909   4.353249
    22  C    5.069752   4.764035   2.797700   6.003536   5.076326
    23  N    4.796126   3.972318   2.344512   5.744343   4.900051
    24  C    3.735640   2.664823   1.428563   4.666925   4.080482
    25  H    2.593861   3.674234   2.143336   3.377363   3.145717
    26  H    5.694683   4.631688   3.260598   6.625695   5.724654
    27  O    6.285691   5.951350   4.024570   7.204945   6.168428
    28  O    4.230798   2.647472   2.378814   5.059644   4.599910
                   11         12         13         14         15
    11  O    0.000000
    12  C    3.235850   0.000000
    13  H    2.602688   2.127708   0.000000
    14  O    3.831688   1.417791   3.380015   0.000000
    15  H    3.046677   1.103352   2.368209   2.087998   0.000000
    16  H    4.207388   1.098565   2.478540   2.021956   1.780501
    17  H    0.966054   3.781497   2.562599   4.579406   3.600336
    18  H    3.549398   5.240341   3.568663   5.956165   5.607893
    19  H    3.520116   1.952645   3.737488   0.960028   2.218834
    20  C    5.166714   4.293507   4.814119   3.723105   5.280296
    21  N    6.288914   5.466162   6.142516   4.673407   6.429756
    22  C    6.890087   6.562500   6.938181   5.877073   7.497020
    23  N    6.446135   6.603721   6.543633   6.183568   7.497490
    24  C    5.385031   5.727120   5.350799   5.571560   6.583373
    25  H    4.987884   3.498195   4.407443   2.806739   4.518294
    26  H    7.151850   7.557560   7.368686   7.166430   8.423687
    27  O    8.008463   7.690948   8.157089   6.899978   8.614907
    28  O    5.488806   6.323055   5.535936   6.385996   7.086629
                   16         17         18         19         20
    16  H    0.000000
    17  H    4.622451   0.000000
    18  H    5.770424   2.960141   0.000000
    19  H    2.794741   4.385902   6.085136   0.000000
    20  C    4.643240   5.628456   5.141182   4.082187   0.000000
    21  N    5.804507   6.799864   6.239352   4.936223   1.341654
    22  C    6.956106   7.301489   6.319058   6.065965   2.314440
    23  N    7.045985   6.694472   5.281200   6.365098   2.628538
[...]
 539,0.00001688,0.00007171,-0.00001746,-0.00061590,0.00017851,-0.000017
 32,-0.00006480,-0.00013973,-0.00020207,-0.01716778,0.01612153,-0.06924
 445,0.07530091,-0.10383499,0.12271426,-0.00030843,0.00003563,-0.000470
 42,0.00073268,-0.00076225,0.00164960,-0.00439372,0.00232185,-0.0014125
 2,0.00232018,0.00050090,-0.00092132,-0.00026163,-0.00000850,0.00015008
 ,0.00354911,-0.00156744,-0.00018011,0.00177068,0.00027181,0.00049112,0
 .00447145,0.01508109,-0.00560254,-0.00217938,0.00000283,0.00031622,0.0
 0053814,-0.00009541,-0.00010327,0.00147579,0.00051139,0.00015613,0.000
 02142,0.00044282,-0.00009745,0.00042994,0.00003076,0.00020018,0.000404
 85,-0.00080715,-0.00024214,0.00020951,-0.00009362,-0.00014429,-0.00008
 809,-0.00013414,0.00012573,-0.00085088,-0.00028563,-0.00007238,-0.0030
 8257,-0.00056466,0.00098900,-0.00044212,0.00076268,0.00036631,-0.06696
 149,0.02826892,-0.01616094,-0.15047462,0.05379155,-0.02540723,0.941704
 72,-0.00009145,-0.00003699,0.00054173,-0.00107096,0.00235979,-0.001415
 67,0.00100781,-0.00394838,0.00137330,0.00319371,-0.00230738,-0.0001939
 0,0.00011899,-0.00019449,-0.00018260,-0.00026000,0.00033003,0.00044220
 ,-0.00150862,-0.00030896,-0.00057420,0.00228397,-0.05611951,0.02006290
 ,0.00066962,-0.00013751,0.00002142,-0.00025558,0.00006486,-0.00002078,
 -0.00026317,-0.00055032,0.00010598,0.00004201,0.00000799,0.00002820,-0
 .00005393,-0.00005439,-0.00003768,-0.00011561,-0.00002919,0.00004589,-
 0.00005189,0.00001256,0.00002900,0.00002991,-0.00000953,-0.00000015,-0
 .00016394,0.00021037,-0.00022308,-0.00422373,0.00099254,0.00092439,0.0
 0007093,0.00005006,-0.00011016,0.06088846,0.03398738,-0.00835085,0.064
 52831,-0.21397306,0.05239044,-0.02941838,0.50098521,0.00009642,-0.0000
 2621,-0.00026253,0.00042496,-0.00103576,0.00090240,-0.00058961,0.00176
 218,-0.00082039,-0.00143875,0.00103473,-0.00023194,-0.00002989,0.00002
 105,-0.00001463,0.00044958,-0.00035883,-0.00015081,0.00056345,-0.00006
 881,0.00018025,-0.00016627,0.02018391,-0.01056383,-0.00043235,0.000064
 38,0.00003743,0.00015673,-0.00003782,0.00000391,0.00016011,0.00023799,
 -0.00009811,0.00003574,0.00007120,0.00007259,0.00005818,0.00001813,0.0
 0001343,0.00002095,-0.00012260,-0.00016017,0.00002800,-0.00001516,-0.0
 0003688,-0.00002473,-0.00000187,-0.00000407,0.00001277,-0.00008670,0.0
 0012147,0.00185049,-0.00026599,0.00021977,-0.00001376,0.00008509,0.000
 14678,-0.02768747,-0.01077773,-0.00429343,-0.02921762,0.05167089,-0.10
 109781,0.08358808,-0.09874004,0.26749561,0.00022719,0.00011566,-0.0002
 1875,0.00043839,-0.00251881,0.00019450,0.00257767,0.00343871,-0.000978
 01,-0.00584812,0.00233143,0.00106695,0.00002238,0.00037034,0.00013119,
 -0.00230694,0.00037213,-0.00026256,-0.00008742,-0.00016489,0.00013795,
 -0.04008919,0.03884288,-0.01864050,0.00078316,0.00012201,-0.00028078,-
 0.00009917,-0.00000386,0.00009982,-0.00065674,0.00025852,-0.00020345,-
 0.00007158,-0.00027239,-0.00001458,-0.00024300,0.00004370,-0.00008631,
 -0.00010604,0.00045295,0.00015883,-0.00007876,0.00004991,0.00006675,0.
 00003193,0.00008566,-0.00005383,0.00077700,-0.00003179,0.00034754,0.00
 871127,-0.00062664,-0.00221907,0.00016956,-0.00043056,-0.00019376,-0.0
 3575769,-0.01837352,0.00352370,0.04505166,0.00071306,0.00328807,-0.140
 80929,0.01676686,-0.01536066,0.76883149,0.00008828,-0.00020291,-0.0003
 1687,-0.00035102,-0.00343753,0.00097795,0.00028279,-0.00445777,0.00250
 209,-0.00774569,0.00378384,0.00106331,0.00010223,0.00041228,-0.0000637
 6,0.00258611,0.00040613,-0.00029466,0.00016265,0.00024146,0.00027768,0
 .02690074,0.03031851,-0.00334029,-0.00033346,-0.00054683,0.00033290,0.
 00001677,0.00003998,0.00002457,-0.00048863,0.00068190,-0.00025088,0.00
 018878,-0.00005360,-0.00004128,0.00010503,0.00007081,-0.00004956,0.000
 00790,0.00029539,-0.00001979,0.00003072,-0.00006715,-0.00002863,-0.000
 01680,0.00009758,-0.00002291,0.00079769,-0.00014844,0.00043621,0.01047
 004,-0.00166175,-0.00266025,-0.00005112,-0.00024159,0.00007771,-0.0252
 0611,-0.01714603,0.00294193,0.02402374,-0.05298323,0.02682015,-0.03722
 596,-0.18773522,0.03992826,-0.05873824,0.67219719,-0.00003687,0.000065
 81,0.00012197,-0.00073907,0.00009366,-0.00014995,0.00066652,0.00407410
 ,0.00339267,0.00117031,-0.00051071,-0.00036024,-0.00008811,-0.00006224
 ,-0.00008795,-0.00136327,-0.00021438,0.00015878,0.00079638,-0.00020124
 ,-0.00015395,-0.01506854,-0.00321670,0.01020345,0.00000146,0.00015478,
 -0.00024636,-0.00003116,0.00000193,0.00000478,0.00009899,-0.00019685,0
 .00003333,-0.00009825,-0.00002202,-0.00004415,-0.00010938,0.00001942,0
 .00002411,0.00001674,-0.00004304,0.00009057,-0.00000901,0.00002899,0.0
 0002008,0.00001306,-0.00002908,0.00001476,-0.00019953,0.00006835,-0.00
 010064,-0.00151592,0.00079506,0.00123274,0.00003183,0.00003186,-0.0000
 9772,0.00585209,0.00346552,-0.00220583,-0.00567265,0.02456989,0.006870
 76,0.00501780,0.04652986,-0.07476374,0.09082450,-0.22355073,0.15313114
 ,-0.00022150,0.00052114,-0.00014838,-0.00151846,0.00367921,-0.00087942
 ,-0.01987114,0.02557203,-0.01026500,0.00251486,-0.00032070,-0.00009808
 ,-0.00011818,-0.00010066,0.00030053,-0.00548469,-0.00153293,0.00055670
 ,-0.00062854,0.00025233,-0.00104586,-0.18475261,0.05456802,-0.03096730
 ,-0.00073804,0.00139156,-0.00084168,0.00014259,-0.00005110,-0.00003291
 ,0.00083076,-0.00033868,0.00033205,-0.00056496,-0.00002579,-0.00012118
 ,-0.00010090,-0.00002773,0.00012658,0.00031513,-0.00032692,0.00003708,
 0.00006938,0.00013285,0.00003489,-0.00002077,-0.00008724,0.00004710,-0
 .00087254,0.00002401,-0.00032809,-0.00614074,-0.00804724,0.00290970,-0
 .00036457,0.00034050,0.00012492,0.07301626,0.02011244,-0.00053066,-0.0
 5596779,0.02920006,-0.01606239,-0.00635671,-0.09760817,0.03542139,-0.2
 9139949,0.02270739,-0.02948796,0.65564221,-0.00026999,0.00052503,0.001
 77570,-0.00455858,0.01552988,-0.00423789,0.00901343,0.01199217,-0.0013
 0644,0.02824940,-0.01454462,-0.00222809,0.00003954,-0.00119524,-0.0006
 0859,-0.00743702,-0.00341969,0.00138781,-0.00466102,-0.00200355,-0.002
 04707,0.08630265,-0.18064186,0.04584340,0.00245017,0.00104758,-0.00109
 283,-0.00057376,-0.00005204,-0.00005157,0.00072865,-0.00353260,0.00085
 950,-0.00025550,-0.00002433,0.00046702,-0.00065879,-0.00014825,0.00002
 553,-0.00061606,-0.00047512,0.00006719,-0.00029356,0.00021498,0.000111
 58,0.00007654,-0.00026980,-0.00005587,-0.00295566,0.00104809,-0.001841
 81,-0.03922935,0.00119088,0.00853036,0.00110620,-0.00001178,-0.0004119
 6,-0.02166931,-0.05650242,0.01860993,0.03690193,-0.00591151,0.00517685
 ,-0.03510930,0.03529355,-0.01961812,-0.02948843,-0.14021606,0.02703375
 ,0.05710310,0.77983916,0.00028918,-0.00036492,-0.00017866,0.00144164,-
 0.00379190,0.00238336,-0.00694966,-0.00149431,-0.00179707,-0.00769178,
 0.00433532,0.00079950,0.00001812,0.00019306,0.00020728,0.00257688,0.00
 049499,-0.00022056,0.00152626,0.00088505,0.00143314,-0.04064666,0.0408
 0361,-0.09963188,-0.00065707,0.00014189,0.00100354,0.00009795,0.000026
 85,-0.00004541,-0.00026390,0.00106377,-0.00046272,-0.00007414,-0.00001
 514,-0.00008211,0.00044615,0.00006783,-0.00008905,0.00024551,0.0001153
 0,-0.00013653,0.00007233,-0.00004328,-0.00003641,-0.00002166,0.0001173
 7,0.00000742,0.00095652,-0.00032988,0.00063010,0.01145203,0.00065389,-
 0.00368806,-0.00048844,0.00011934,0.00024638,0.01401158,0.02292538,-0.
 00453826,-0.01769678,0.00369418,-0.00609362,0.01263352,-0.02528486,-0.
 00191462,-0.01054980,0.03184764,-0.06780233,0.01983744,-0.20219247,0.2
 8075911,-0.00004874,-0.00006968,0.00001056,0.00005413,0.00002544,0.000
 14822,-0.00008499,0.00018849,0.00022935,-0.00005692,0.00018043,-0.0001
 1941,-0.00001153,-0.00001357,-0.00000026,-0.00273069,-0.00164604,-0.00
 002575,0.00013169,0.00019031,-0.00000714,0.01055150,-0.00900374,0.0034
 7221,-0.00063359,-0.00006145,0.00021188,0.00001560,0.00001872,-0.00003
 278,0.00005296,0.00009923,-0.00001187,0.00004523,0.00006268,0.00005254
 ,0.00014753,0.00000601,0.00002887,0.00003269,-0.00013528,-0.00015850,0
 .00002393,-0.00002449,-0.00004250,-0.00003032,0.00002769,-0.00000140,-
 0.00000035,-0.00002241,0.00000622,0.00012669,-0.00001639,-0.00002241,0
 .00002137,0.00018224,0.00026297,-0.12260277,0.10901817,-0.04787625,-0.
 02714905,0.02241659,-0.01076299,-0.00381689,-0.00122530,-0.00120223,0.
 00006166,0.00027089,0.00000621,-0.00158663,-0.00299670,-0.00005127,0.1
 4834767,0.00015605,-0.00018898,-0.00008750,0.00015696,-0.00022286,0.00
 012869,0.00251217,-0.00176304,-0.00033100,-0.00049674,0.00047328,-0.00
 008193,0.00005708,0.00001438,0.00001347,0.00090185,0.00119633,-0.00069
 158,-0.00037936,-0.00001203,0.00001656,0.01518284,-0.01601828,0.010989
 28,-0.00076288,0.00062185,-0.00000448,0.00002239,0.00006268,-0.0000830
 9,-0.00002902,0.00024448,-0.00002706,-0.00005801,0.00004320,0.00001967
 ,0.00017384,0.00002404,0.00000368,0.00003049,-0.00007888,-0.00011211,0
 .00004712,-0.00002440,-0.00002063,-0.00000777,0.00001986,0.00000499,0.
 00010394,-0.00003659,0.00003448,0.00079712,-0.00002300,-0.00019016,-0.
 00017905,0.00012191,0.00025206,0.10714530,-0.22365351,0.07544831,0.000
 03127,0.00923895,-0.00366943,-0.00299165,0.00411415,0.00211641,-0.0009
 7031,0.00023835,-0.00042305,-0.00467297,-0.00198796,0.00335972,-0.1181
 7025,0.23012208,0.00002302,0.00012003,-0.00011041,0.00033442,0.0002110
 9,0.00026376,-0.00051989,-0.00035460,-0.00284873,0.00020397,-0.0001755
 0,-0.00004341,0.00001118,0.00000927,-0.00002040,-0.00043246,-0.0005700
 4,-0.00012751,-0.00034703,-0.00018574,0.00007929,-0.00541507,0.0085423
 5,0.00581980,0.00011130,-0.00025157,-0.00013489,0.00005804,-0.00002323
 ,0.00001531,0.00002400,-0.00010491,-0.00000062,0.00021445,0.00006116,0
 .00022922,-0.00011082,-0.00003944,-0.00001112,-0.00026477,-0.00012623,
 -0.00007957,-0.00004874,-0.00001951,-0.00002507,0.00000985,0.00000581,
 -0.00003201,-0.00003665,0.00001388,-0.00001224,-0.00026708,0.00005819,
 0.00011215,0.00045897,0.00009756,-0.00023470,-0.04793719,0.07551526,-0
 .08065072,-0.00237507,-0.00120920,-0.00037860,-0.00046962,0.00242320,0
 .00966230,0.00028201,-0.00042025,-0.00055159,0.00086072,0.00323712,0.0
 0768667,0.05571370,-0.08627198,0.06552850,-0.00000659,0.00003440,0.000
 04573,-0.00000327,0.00046328,-0.00021080,0.00036836,0.00154377,-0.0004
 1298,0.00097716,-0.00044130,-0.00011867,-0.00001992,-0.00003891,0.0000
 2632,-0.00067533,-0.00006361,0.00004634,-0.00005215,-0.00006161,-0.000
 04622,-0.00530891,-0.00431820,0.00041486,0.00007216,0.00015116,-0.0001
 1423,-0.00001351,-0.00000597,-0.00000020,0.00006316,-0.00009914,0.0000
 3744,-0.00007043,-0.00002799,-0.00001083,-0.00003446,-0.00000229,0.000
 01144,0.00002225,-0.00000656,0.00002748,-0.00000161,0.00002126,0.00000
 972,0.00000076,-0.00001043,0.00000239,-0.00011467,0.00002976,-0.000063
 91,-0.00119368,0.00008846,0.00038150,-0.00001571,-0.00000045,-0.000018
 86,-0.00065500,-0.00050713,0.00010415,-0.00019961,-0.00527330,0.001349
 28,0.01825579,-0.00846258,0.00513740,-0.20325905,0.16388486,-0.0782272
 1,-0.01628069,0.03196890,-0.01322955,0.00000193,0.00005732,0.00007135,
 0.20535919,0.00001289,0.00002950,0.00001838,0.00000452,0.00015807,-0.0
 0004719,-0.00019838,0.00046865,0.00021044,0.00019106,-0.00016034,-0.00
 002786,0.00000328,-0.00002823,-0.00001582,-0.00032244,0.00003248,-0.00
 001296,-0.00002208,0.00000331,-0.00005391,-0.00268918,0.00258516,0.000
 60697,0.00004277,0.00002419,-0.00003986,-0.00001351,-0.00000139,-0.000
 00019,-0.00004452,-0.00006407,-0.00001241,-0.00000406,-0.00001498,0.00
 002045,-0.00002964,-0.00000157,-0.00000478,-0.00002562,0.00001684,-0.0
 0001071,-0.00000879,0.00000823,0.00000682,0.00000083,0.00000289,-0.000
 00884,0.00000131,0.00002635,-0.00000723,-0.00021475,0.00004417,0.00009
 194,0.00002429,-0.00002956,0.00000392,-0.00254846,-0.00012864,-0.00039
 874,-0.00378789,-0.00475227,0.00286209,0.02475756,-0.01639469,0.008200
 66,0.16518524,-0.26979844,0.10849658,-0.00148225,0.00980083,-0.0038438
 2,0.00020391,-0.00011387,-0.00027367,-0.17904845,0.27634328,-0.0000088
 7,0.00002331,0.00000814,-0.00000418,0.00002951,0.00003324,0.00001832,0
 .00027116,0.00095596,0.00022504,-0.00004943,-0.00007008,-0.00000010,-0
 .00003780,-0.00003588,0.00002758,-0.00000965,-0.00004573,0.00002617,0.
 00003821,-0.00003419,0.00010296,0.00083729,0.00488102,-0.00003194,-0.0
 0003580,-0.00002800,0.00000903,-0.00000835,-0.00000808,0.00001122,-0.0
 0002294,-0.00002858,0.00003063,0.00001973,0.00001874,-0.00001963,0.000
 00206,0.00000031,-0.00001902,-0.00001792,-0.00004259,0.00000463,-0.000
 00687,-0.00000311,-0.00000341,0.00000192,-0.00000508,-0.00001357,-0.00
 000019,0.00001420,-0.00027960,-0.00003316,0.00000009,0.00000202,0.0000
 0887,0.00002863,0.00075551,-0.00017067,-0.00032493,0.00075990,0.002505
 27,0.00374369,-0.00693656,0.00424596,-0.00317412,-0.07910609,0.1092349
 2,-0.06398057,-0.00083071,-0.00100339,-0.00010498,0.00003546,-0.000321
 40,-0.00088601,0.08399172,-0.11206101,0.06583564,0.00021926,-0.0000209
 5,0.00040780,-0.00069401,0.00073312,-0.00158305,0.00326628,-0.00172755
 ,0.00108998,-0.00213829,-0.00039344,0.00093154,0.00024869,0.00006068,-
 0.00011990,-0.00299333,0.00107231,0.00022653,-0.00168255,-0.00016349,-
 0.00039539,-0.00436302,-0.00659345,0.00347626,0.00187092,-0.00014873,-
 0.00025691,-0.00046851,0.00007982,0.00008931,-0.00127196,-0.00046627,-
 0.00012360,-0.00000345,-0.00038658,0.00005865,-0.00037988,-0.00002097,
 -0.00016429,-0.00033112,0.00071505,0.00023780,-0.00017383,0.00007811,0
 .00012425,0.00007224,0.00011377,-0.00010179,0.00070865,0.00025723,0.00
 005847,0.00281664,0.00025709,-0.00109155,0.00036530,-0.00068568,-0.000
 35223,0.01514551,0.00840830,-0.00240231,-0.07136358,0.03323807,-0.0210
 0750,-0.59737516,-0.02669673,-0.04366109,-0.06496233,-0.04194592,0.005
 24827,0.00491931,0.00309314,-0.00139081,-0.00158063,0.00045361,-0.0001
 6648,-0.00277421,-0.00064309,0.00053313,0.72861841,0.00003217,-0.00002
 672,-0.00015600,0.00033596,-0.00065658,0.00028249,0.00001640,0.0007315
 3,-0.00056580,-0.00110113,0.00067923,0.00011077,-0.00000911,0.00006806
 ,0.00005250,-0.00006109,0.00014267,-0.00014063,0.00020421,0.00008113,0
 .00012146,-0.00133209,0.01096911,-0.00460715,-0.00015453,0.00005680,-0
 .00001823,0.00004369,-0.00000628,0.00000889,-0.00000385,0.00018383,-0.
 00002094,-0.00004127,-0.00005101,-0.00002826,0.00000595,0.00001472,0.0
 0000453,0.00005324,0.00009311,0.00001672,0.00001502,0.00000434,-0.0000
 0111,-0.00000871,0.00001852,-0.00000623,0.00010873,-0.00005884,0.00006
 994,0.00147403,-0.00029923,-0.00037582,-0.00004319,-0.00008455,0.00002
 650,-0.00832198,-0.00953301,0.00518857,0.05373407,0.00909185,0.0087600
 0,-0.02713391,-0.09458637,0.00172266,-0.07319408,-0.00860533,0.0029588
 4,0.01958598,-0.00860062,0.00689225,0.00108103,-0.00020212,-0.00023427
 ,0.00188970,0.00368784,-0.00234828,0.03887797,0.09726968,-0.00000634,0
 .00001504,0.00002779,0.00005762,0.00033230,-0.00036850,0.00027110,-0.0
 0085530,-0.00054599,0.00026611,-0.00035893,0.00016533,0.00001723,0.000
 01379,0.00003733,-0.00029664,0.00012057,0.00011660,-0.00040795,0.00005
 319,-0.00007847,0.00020535,-0.00503347,0.00061340,0.00026216,-0.000036
 57,-0.00005039,-0.00005937,0.00001009,0.00001604,-0.00009368,-0.000074
 39,0.00006502,-0.00002585,-0.00004337,-0.00005525,-0.00003700,-0.00000
 774,-0.00000634,-0.00000125,0.00008628,0.00011382,-0.00001753,0.000009
 61,0.00001995,0.00001477,-0.00000412,0.00000693,0.00002539,0.00003271,
 -0.00004648,-0.00035312,0.00009658,-0.00008631,0.00002896,-0.00007307,
 -0.00010646,0.00361773,0.00664957,0.00524969,-0.02785553,0.00671107,0.
 01305544,-0.04354814,0.00171455,-0.08631281,0.01668882,0.00627396,0.02
 058620,-0.00710470,0.00558090,0.00394922,-0.00040364,-0.00024151,-0.00
 097000,-0.00063926,-0.00265018,-0.00256958,0.05777558,-0.01728062,0.04
 772053,0.00001412,0.00028700,-0.00150791,0.00207435,-0.01498555,0.0036
 3178,-0.00078322,-0.00272481,0.00089303,-0.04706044,0.01199241,0.01060
 652,0.00005759,0.00148086,0.00033899,0.00136998,0.00239420,-0.00118975
 ,0.00212126,0.00044643,0.00101206,0.02389501,0.00700924,-0.00357758,-0
 .00073549,-0.00048494,0.00064739,0.00017694,-0.00000168,0.00014798,-0.
 00154779,0.00258548,-0.00108628,0.00005824,-0.00027006,-0.00025227,0.0
 0015012,0.00014220,-0.00019554,0.00015781,0.00076666,0.00011081,0.0000
 4730,-0.00005109,0.00002190,-0.00000165,0.00027541,-0.00003340,0.00327
 647,-0.00050820,0.00225149,0.01583549,0.00660877,-0.00937428,-0.000381
 51,-0.00045551,0.00003999,-0.00879746,0.00253904,-0.00227520,0.0057401
 1,-0.00814079,0.00362809,0.00151672,0.02186949,-0.00817982,-0.04190855
 ,-0.08052365,0.02290276,-0.14446150,-0.10626064,0.03410639,0.00071852,
 0.00088866,0.00001386,0.00555803,0.00065546,0.00072038,-0.00569538,-0.
 00605319,0.00161918,0.18860490,-0.00001806,0.00005070,-0.00139760,0.00
 068192,-0.00776159,0.00280235,-0.00848083,-0.00180924,-0.00260536,-0.0
 1405157,0.01538268,0.00042269,0.00003076,0.00092507,0.00040499,0.00257
 243,0.00238592,-0.00105418,0.00254407,0.00136732,0.00122712,-0.0079838
 8,-0.06505655,0.02853448,-0.00195576,-0.00018626,0.00060857,0.00037707
 ,0.00003872,0.00006580,-0.00022005,0.00224578,-0.00027185,-0.00003562,
 -0.00009039,-0.00032827,0.00040825,0.00010472,-0.00001140,0.00046548,0
 .00038965,-0.00001442,0.00018664,-0.00008868,-0.00005453,-0.00005934,0
 .00019180,0.00001947,0.00172202,-0.00079707,0.00093505,0.02512938,-0.0
 1443540,-0.00437522,-0.00074950,-0.00006544,0.00031752,0.01930380,0.01
 040183,0.00042770,-0.01500348,-0.00100748,-0.00185007,0.00941818,-0.00
 202251,0.00403811,-0.04433555,-0.02148151,0.01008164,-0.12056825,-0.43
 694469,0.11962312,-0.00058652,-0.00221001,-0.00003477,-0.00176495,-0.0
 0174372,-0.00109133,-0.00754543,-0.00038174,-0.00104096,0.16051880,0.5
 2259807,-0.00020289,-0.00011951,0.00068195,-0.00004185,0.00652763,-0.0
 0302484,0.00366200,-0.00159563,-0.00250664,0.01929027,-0.00640322,0.00
 394917,-0.00017203,-0.00024086,-0.00000069,-0.00143392,-0.00027261,0.0
 0112763,-0.00042607,-0.00064586,-0.00018986,0.00296563,0.03195714,0.01
 147714,0.00123526,0.00020754,-0.00047684,-0.00017334,0.00000827,-0.000
 00642,0.00068044,-0.00137478,0.00081280,-0.00007186,0.00002955,0.00010
 654,-0.00017936,-0.00014832,0.00008152,-0.00015985,-0.00021720,0.00014
 201,-0.00007768,0.00006217,0.00003555,0.00002621,-0.00014381,0.0000110
 3,-0.00147469,0.00026082,-0.00126262,-0.01630456,0.00017066,-0.0069366
 2,0.00031418,0.00004711,-0.00024285,-0.00847221,-0.00131363,0.00536779
 ,0.00590399,-0.00066945,-0.00076006,-0.00391485,0.00425493,0.00504392,
 0.01135749,0.00832056,0.01465970,0.03815518,0.11798945,-0.11228349,0.0
 0054020,0.00016960,-0.00227939,0.00143557,-0.00104908,-0.00417814,0.00
 255932,-0.00043279,-0.00054670,-0.05502059,-0.15537868,0.09119839\\0.0
 0000460,-0.00000851,-0.00000383,0.00000553,0.00001924,-0.00000779,-0.0
 0000205,-0.00001252,0.00000799,-0.00000252,-0.00000038,0.00000595,-0.0
 0000189,-0.00000011,0.00000254,0.00000127,0.00001423,-0.00000114,0.000
 00185,-0.00000329,-0.00000022,0.00000285,0.00000378,-0.00000049,-0.000
 00557,-0.00000715,0.00000125,0.00000194,0.00000395,0.00000177,-0.00000
 599,-0.00000056,-0.00000273,-0.00000900,-0.00001022,0.00000223,-0.0000
 0266,0.00000251,0.00000260,0.00000953,0.00000061,-0.00000781,-0.000001
 34,0.00000226,-0.00000472,0.00000358,-0.00000261,-0.00000355,0.0000040
 3,0.00000031,0.00000359,-0.00000352,-0.00000554,-0.00000320,0.00000125
 ,0.00000153,0.00000850,-0.00000523,0.00000186,-0.00000739,0.00000437,-
 0.00000262,0.00000437,-0.00000018,0.00000154,-0.00000643,-0.00000096,0
 .00000510,0.00000428,-0.00000442,-0.00002235,0.00000879,0.00000208,-0.
 00000139,0.00000277,0.00000066,-0.00000033,-0.00000016,-0.00000226,0.0
 0000124,-0.00000024,0.00000407,0.00001941,-0.00000692\\\@
 The archive entry for this job was punched.


 YOU KNOW YOU'VE SPOKEN TOO LONG WHEN THE AUDIENCE STOPS LOOKING AT
 THEIR WATCHES AND STARTS SHAKING THEM.
 Job cpu time:       0 days  9 hours 36 minutes 35.8 seconds.
 Elapsed time:       0 days  0 hours 14 minutes 32.3 seconds.
 File lengths (MBytes):  RWF=    600 Int=      0 D2E=      0 Chk=     20 Scr=      1
 Normal termination of Gaussian 16 at Sun Oct 27 03:43:14 2024.
