 Entering Gaussian System, Link 0=g16
 Input=PseudoUridineNsllg2PBE0aVDZ.gjf
 Output=PseudoUridineNsllg2PBE0aVDZ.log
 Initial command:
 /sw/contrib/chem-src/g16/c01/g16/l1.exe "/scr/Gau-73405.inp" -scrdir="/scr/"
 Entering Link 1 = /sw/contrib/chem-src/g16/c01/g16/l1.exe PID=     73406.
  
 Copyright (c) 1988-2019, Gaussian, Inc.  All Rights Reserved.
  
 This is part of the Gaussian(R) 16 program.  It is based on
 the Gaussian(R) 09 system (copyright 2009, Gaussian, Inc.),
 the Gaussian(R) 03 system (copyright 2003, Gaussian, Inc.),
 the Gaussian(R) 98 system (copyright 1998, Gaussian, Inc.),
 the Gaussian(R) 94 system (copyright 1995, Gaussian, Inc.),
 the Gaussian 92(TM) system (copyright 1992, Gaussian, Inc.),
 the Gaussian 90(TM) system (copyright 1990, Gaussian, Inc.),
 the Gaussian 88(TM) system (copyright 1988, Gaussian, Inc.),
 the Gaussian 86(TM) system (copyright 1986, Carnegie Mellon
 University), and the Gaussian 82(TM) system (copyright 1983,
 Carnegie Mellon University). Gaussian is a federally registered
 trademark of Gaussian, Inc.
  
 This software contains proprietary and confidential information,
 including trade secrets, belonging to Gaussian, Inc.
  
 This software is provided under written license and may be
 used, copied, transmitted, or stored only in accord with that
 written license.
  
 The following legend is applicable only to US Government
 contracts under FAR:
  
                    RESTRICTED RIGHTS LEGEND
  
 Use, reproduction and disclosure by the US Government is
 subject to restrictions as set forth in subparagraphs (a)
 and (c) of the Commercial Computer Software - Restricted
 Rights clause in FAR 52.227-19.
  
 Gaussian, Inc.
 340 Quinnipiac St., Bldg. 40, Wallingford CT 06492
  
  
 ---------------------------------------------------------------
 Warning -- This program may not be used in any manner that
 competes with the business of Gaussian, Inc. or will provide
 assistance to any competitor of Gaussian, Inc.  The licensee
 of this program is prohibited from giving any competitor of
 Gaussian, Inc. access to this program.  By using this program,
 the user acknowledges that Gaussian, Inc. is engaged in the
 business of creating and licensing software in the field of
 computational chemistry and represents and warrants to the
 licensee that it is not a competitor of Gaussian, Inc. and that
 it will not use this program in any manner prohibited above.
 ---------------------------------------------------------------
  

 Cite this work as:
 Gaussian 16, Revision C.01,
 M. J. Frisch, G. W. Trucks, H. B. Schlegel, G. E. Scuseria, 
 M. A. Robb, J. R. Cheeseman, G. Scalmani, V. Barone, 
 G. A. Petersson, H. Nakatsuji, X. Li, M. Caricato, A. V. Marenich, 
 J. Bloino, B. G. Janesko, R. Gomperts, B. Mennucci, H. P. Hratchian, 
 J. V. Ortiz, A. F. Izmaylov, J. L. Sonnenberg, D. Williams-Young, 
 F. Ding, F. Lipparini, F. Egidi, J. Goings, B. Peng, A. Petrone, 
 T. Henderson, D. Ranasinghe, V. G. Zakrzewski, J. Gao, N. Rega, 
 G. Zheng, W. Liang, M. Hada, M. Ehara, K. Toyota, R. Fukuda, 
 J. Hasegawa, M. Ishida, T. Nakajima, Y. Honda, O. Kitao, H. Nakai, 
 T. Vreven, K. Throssell, J. A. Montgomery, Jr., J. E. Peralta, 
 F. Ogliaro, M. J. Bearpark, J. J. Heyd, E. N. Brothers, K. N. Kudin, 
 V. N. Staroverov, T. A. Keith, R. Kobayashi, J. Normand, 
 K. Raghavachari, A. P. Rendell, J. C. Burant, S. S. Iyengar, 
 J. Tomasi, M. Cossi, J. M. Millam, M. Klene, C. Adamo, R. Cammi, 
 J. W. Ochterski, R. L. Martin, K. Morokuma, O. Farkas, 
 J. B. Foresman, and D. J. Fox, Gaussian, Inc., Wallingford CT, 2019.
 
 ******************************************
 Gaussian 16:  EM64L-G16RevC.01  3-Jul-2019
                26-Oct-2024 
 ******************************************
 %nprocshared=40
 Will use up to   40 processors via shared memory.
 %mem=50gb
 ------------------------------------------------------
 # PBE1PBE/aug-cc-pVDZ opt freq EmpiricalDispersion=GD3
 ------------------------------------------------------
 1/18=20,19=15,26=3,38=1/1,3;
 2/9=110,12=2,17=6,18=5,40=1/2;
 3/5=16,7=10,11=2,25=1,30=1,71=1,74=-13,124=31/1,2,3;
 4//1;
 5/5=2,38=5/2;
 6/7=2,8=2,9=2,10=2,28=1/1;
 7//1,2,3,16;
 1/18=20,19=15,26=3/3(2);
 2/9=110/2;
 99//99;
 2/9=110/2;
 3/5=16,7=10,11=2,25=1,30=1,71=1,74=-13,124=31/1,2,3;
 4/5=5,16=3,69=1/1;
 5/5=2,38=5/2;
 7//1,2,3,16;
 1/18=20,19=15,26=3/3(-5);
 2/9=110/2;
 6/7=2,8=2,9=2,10=2,19=2,28=1/1;
 99/9=1/99;
 ----
 blah
 ----
 Symbolic Z-matrix:
 Charge =  0 Multiplicity = 1
 C                    -2.41064  -0.48868   0.6227 
 C                    -1.0482   -1.19035   0.43696 
 C                    -0.35417  -0.32215  -0.64098 
 O                    -1.27612  -2.49801  -0.02077 
 H                    -0.45974  -1.19312   1.36634 
 O                    -1.11932   0.8398   -0.80605 
 H                    -0.32251  -0.90487  -1.57713 
 C                     1.02018   0.0544   -0.30782 
 C                    -2.48359   0.45086  -0.58583 
 H                    -2.39055   0.12675   1.53173 
 O                    -3.49831  -1.36404   0.7119 
 C                    -3.31446   1.6989   -0.39339 
 H                    -2.8604   -0.11144  -1.45887 
 O                    -2.88711   2.47403   0.70717 
 H                    -4.34738   1.391    -0.18552 
 H                    -3.31469   2.29006  -1.32459 
 H                    -3.21899  -2.20092   0.31509 
 H                    -0.40213  -2.87853  -0.19262 
 H                    -1.98115   2.74923   0.53596 
 C                     1.43543   1.35403  -0.16789 
 N                     2.71837   1.68129   0.10259 
 C                     3.7186    0.64163   0.24617 
 N                     3.19572  -0.65221   0.07331 
 C                     1.90203  -1.00512  -0.19636 
 H                     0.65188   2.09518  -0.29641 
 H                     3.0279    2.71612   0.21145 
 H                     3.85062  -1.42015   0.16294 
 O                     4.90144   0.79302   0.48791 
 O                     1.53888  -2.16944  -0.32899 
 

 GradGradGradGradGradGradGradGradGradGradGradGradGradGradGradGradGradGrad
 Berny optimization.
 Initialization pass.
                           ----------------------------
                           !    Initial Parameters    !
                           ! (Angstroms and Degrees)  !
 --------------------------                            --------------------------
 ! Name  Definition              Value          Derivative Info.                !
 --------------------------------------------------------------------------------
 ! R1    R(1,2)                  1.5437         estimate D2E/DX2                !
 ! R2    R(1,9)                  1.5325         estimate D2E/DX2                !
 ! R3    R(1,10)                 1.098          estimate D2E/DX2                !
 ! R4    R(1,11)                 1.399          estimate D2E/DX2                !
 ! R5    R(2,3)                  1.5484         estimate D2E/DX2                !
 ! R6    R(2,4)                  1.4041         estimate D2E/DX2                !
 ! R7    R(2,5)                  1.1            estimate D2E/DX2                !
 ! R8    R(3,6)                  1.401          estimate D2E/DX2                !
 ! R9    R(3,7)                  1.1031         estimate D2E/DX2                !
 ! R10   R(3,8)                  1.4634         estimate D2E/DX2                !
 ! R11   R(4,18)                 0.9686         estimate D2E/DX2                !
 ! R12   R(6,9)                  1.4356         estimate D2E/DX2                !
 ! R13   R(8,20)                 1.3715         estimate D2E/DX2                !
 ! R14   R(8,24)                 1.383          estimate D2E/DX2                !
 ! R15   R(9,12)                 1.5116         estimate D2E/DX2                !
 ! R16   R(9,13)                 1.1047         estimate D2E/DX2                !
 ! R17   R(11,17)                0.9674         estimate D2E/DX2                !
 ! R18   R(12,14)                1.4123         estimate D2E/DX2                !
 ! R19   R(12,15)                1.0977         estimate D2E/DX2                !
 ! R20   R(12,16)                1.103          estimate D2E/DX2                !
 ! R21   R(14,19)                0.9622         estimate D2E/DX2                !
 ! R22   R(20,21)                1.3514         estimate D2E/DX2                !
 ! R23   R(20,25)                1.0862         estimate D2E/DX2                !
 ! R24   R(21,22)                1.4498         estimate D2E/DX2                !
 ! R25   R(21,26)                1.0856         estimate D2E/DX2                !
 ! R26   R(22,23)                1.4062         estimate D2E/DX2                !
 ! R27   R(22,28)                1.2167         estimate D2E/DX2                !
 ! R28   R(23,24)                1.3678         estimate D2E/DX2                !
 ! R29   R(23,27)                1.0132         estimate D2E/DX2                !
 ! R30   R(24,29)                1.2268         estimate D2E/DX2                !
 ! A1    A(2,1,9)              103.0493         estimate D2E/DX2                !
 ! A2    A(2,1,10)             109.7698         estimate D2E/DX2                !
 ! A3    A(2,1,11)             114.1693         estimate D2E/DX2                !
 ! A4    A(9,1,10)             108.0671         estimate D2E/DX2                !
 ! A5    A(9,1,11)             113.3822         estimate D2E/DX2                !
 ! A6    A(10,1,11)            108.1894         estimate D2E/DX2                !
 ! A7    A(1,2,3)              102.9734         estimate D2E/DX2                !
 ! A8    A(1,2,4)              108.6188         estimate D2E/DX2                !
 ! A9    A(1,2,5)              111.8155         estimate D2E/DX2                !
 ! A10   A(3,2,4)              111.5941         estimate D2E/DX2                !
 ! A11   A(3,2,5)              110.4763         estimate D2E/DX2                !
 ! A12   A(4,2,5)              111.0954         estimate D2E/DX2                !
 ! A13   A(2,3,6)              107.5938         estimate D2E/DX2                !
 ! A14   A(2,3,7)              107.9064         estimate D2E/DX2                !
 ! A15   A(2,3,8)              113.9999         estimate D2E/DX2                !
 ! A16   A(6,3,7)              110.7194         estimate D2E/DX2                !
 ! A17   A(6,3,8)              109.046          estimate D2E/DX2                !
 ! A18   A(7,3,8)              107.5871         estimate D2E/DX2                !
 ! A19   A(2,4,18)             106.0955         estimate D2E/DX2                !
 ! A20   A(3,6,9)              106.0358         estimate D2E/DX2                !
 ! A21   A(3,8,20)             123.462          estimate D2E/DX2                !
 ! A22   A(3,8,24)             114.8382         estimate D2E/DX2                !
 ! A23   A(20,8,24)            121.6459         estimate D2E/DX2                !
 ! A24   A(1,9,6)              103.994          estimate D2E/DX2                !
 ! A25   A(1,9,12)             115.5912         estimate D2E/DX2                !
 ! A26   A(1,9,13)             109.1113         estimate D2E/DX2                !
 ! A27   A(6,9,12)             108.5532         estimate D2E/DX2                !
 ! A28   A(6,9,13)             109.9264         estimate D2E/DX2                !
 ! A29   A(12,9,13)            109.4738         estimate D2E/DX2                !
 ! A30   A(1,11,17)            106.8969         estimate D2E/DX2                !
 ! A31   A(9,12,14)            112.7067         estimate D2E/DX2                !
 ! A32   A(9,12,15)            108.0436         estimate D2E/DX2                !
 ! A33   A(9,12,16)            109.581          estimate D2E/DX2                !
 ! A34   A(14,12,15)           106.9245         estimate D2E/DX2                !
 ! A35   A(14,12,16)           111.3333         estimate D2E/DX2                !
 ! A36   A(15,12,16)           108.06           estimate D2E/DX2                !
 ! A37   A(12,14,19)           107.6509         estimate D2E/DX2                !
 ! A38   A(8,20,21)            122.5026         estimate D2E/DX2                !
 ! A39   A(8,20,25)            114.5891         estimate D2E/DX2                !
 ! A40   A(21,20,25)           122.9078         estimate D2E/DX2                !
 ! A41   A(20,21,22)           120.0748         estimate D2E/DX2                !
 ! A42   A(20,21,26)           121.4395         estimate D2E/DX2                !
 ! A43   A(22,21,26)           118.4847         estimate D2E/DX2                !
 ! A44   A(21,22,23)           113.0228         estimate D2E/DX2                !
 ! A45   A(21,22,28)           126.951          estimate D2E/DX2                !
 ! A46   A(23,22,28)           120.0261         estimate D2E/DX2                !
 ! A47   A(22,23,24)           127.8312         estimate D2E/DX2                !
 ! A48   A(22,23,27)           116.4968         estimate D2E/DX2                !
 ! A49   A(24,23,27)           115.6712         estimate D2E/DX2                !
 ! A50   A(8,24,23)            114.9177         estimate D2E/DX2                !
 ! A51   A(8,24,29)            121.9791         estimate D2E/DX2                !
 ! A52   A(23,24,29)           123.103          estimate D2E/DX2                !
 ! D1    D(9,1,2,3)             13.7458         estimate D2E/DX2                !
 ! D2    D(9,1,2,4)           -104.6879         estimate D2E/DX2                !
 ! D3    D(9,1,2,5)            132.3589         estimate D2E/DX2                !
 ! D4    D(10,1,2,3)          -101.1896         estimate D2E/DX2                !
 ! D5    D(10,1,2,4)           140.3767         estimate D2E/DX2                !
 ! D6    D(10,1,2,5)            17.4235         estimate D2E/DX2                !
 ! D7    D(11,1,2,3)           137.15           estimate D2E/DX2                !
 ! D8    D(11,1,2,4)            18.7163         estimate D2E/DX2                !
 ! D9    D(11,1,2,5)          -104.237          estimate D2E/DX2                !
 ! D10   D(2,1,9,6)            -33.4581         estimate D2E/DX2                !
 ! D11   D(2,1,9,12)          -152.336          estimate D2E/DX2                !
 ! D12   D(2,1,9,13)            83.8052         estimate D2E/DX2                !
 ! D13   D(10,1,9,6)            82.6983         estimate D2E/DX2                !
 ! D14   D(10,1,9,12)          -36.1796         estimate D2E/DX2                !
 ! D15   D(10,1,9,13)         -160.0384         estimate D2E/DX2                !
 ! D16   D(11,1,9,6)          -157.3829         estimate D2E/DX2                !
 ! D17   D(11,1,9,12)           83.7392         estimate D2E/DX2                !
 ! D18   D(11,1,9,13)          -40.1196         estimate D2E/DX2                !
 ! D19   D(2,1,11,17)          -20.738          estimate D2E/DX2                !
 ! D20   D(9,1,11,17)           96.8858         estimate D2E/DX2                !
 ! D21   D(10,1,11,17)        -143.2651         estimate D2E/DX2                !
 ! D22   D(1,2,3,6)             10.7262         estimate D2E/DX2                !
 ! D23   D(1,2,3,7)           -108.7792         estimate D2E/DX2                !
 ! D24   D(1,2,3,8)            131.7851         estimate D2E/DX2                !
 ! D25   D(4,2,3,6)            127.0568         estimate D2E/DX2                !
 ! D26   D(4,2,3,7)              7.5514         estimate D2E/DX2                !
 ! D27   D(4,2,3,8)           -111.8843         estimate D2E/DX2                !
 ! D28   D(5,2,3,6)           -108.8184         estimate D2E/DX2                !
 ! D29   D(5,2,3,7)            131.6762         estimate D2E/DX2                !
 ! D30   D(5,2,3,8)             12.2405         estimate D2E/DX2                !
 ! D31   D(1,2,4,18)           175.5398         estimate D2E/DX2                !
 ! D32   D(3,2,4,18)            62.7017         estimate D2E/DX2                !
 ! D33   D(5,2,4,18)           -61.074          estimate D2E/DX2                !
 ! D34   D(2,3,6,9)            -33.02           estimate D2E/DX2                !
 ! D35   D(7,3,6,9)             84.6772         estimate D2E/DX2                !
 ! D36   D(8,3,6,9)           -157.1364         estimate D2E/DX2                !
 ! D37   D(2,3,8,20)          -119.1948         estimate D2E/DX2                !
 ! D38   D(2,3,8,24)            63.4381         estimate D2E/DX2                !
 ! D39   D(6,3,8,20)             1.0527         estimate D2E/DX2                !
 ! D40   D(6,3,8,24)          -176.3143         estimate D2E/DX2                !
 ! D41   D(7,3,8,20)           121.1891         estimate D2E/DX2                !
 ! D42   D(7,3,8,24)           -56.178          estimate D2E/DX2                !
 ! D43   D(3,6,9,1)             41.8952         estimate D2E/DX2                !
 ! D44   D(3,6,9,12)           165.4826         estimate D2E/DX2                !
 ! D45   D(3,6,9,13)           -74.8004         estimate D2E/DX2                !
 ! D46   D(3,8,20,21)         -178.0562         estimate D2E/DX2                !
 ! D47   D(3,8,20,25)            1.6812         estimate D2E/DX2                !
 ! D48   D(24,8,20,21)          -0.863          estimate D2E/DX2                !
 ! D49   D(24,8,20,25)         178.8743         estimate D2E/DX2                !
 ! D50   D(3,8,24,23)          178.0295         estimate D2E/DX2                !
 ! D51   D(3,8,24,29)           -2.0984         estimate D2E/DX2                !
 ! D52   D(20,8,24,23)           0.6097         estimate D2E/DX2                !
 ! D53   D(20,8,24,29)        -179.5183         estimate D2E/DX2                !
 ! D54   D(1,9,12,14)           56.5022         estimate D2E/DX2                !
 ! D55   D(1,9,12,15)          -61.4157         estimate D2E/DX2                !
 ! D56   D(1,9,12,16)         -178.9279         estimate D2E/DX2                !
 ! D57   D(6,9,12,14)          -59.8294         estimate D2E/DX2                !
 ! D58   D(6,9,12,15)         -177.7473         estimate D2E/DX2                !
 ! D59   D(6,9,12,16)           64.7405         estimate D2E/DX2                !
 ! D60   D(13,9,12,14)        -179.8287         estimate D2E/DX2                !
 ! D61   D(13,9,12,15)          62.2533         estimate D2E/DX2                !
 ! D62   D(13,9,12,16)         -55.2589         estimate D2E/DX2                !
 ! D63   D(9,12,14,19)          61.3787         estimate D2E/DX2                !
 ! D64   D(15,12,14,19)        179.9527         estimate D2E/DX2                !
 ! D65   D(16,12,14,19)        -62.2252         estimate D2E/DX2                !
 ! D66   D(8,20,21,22)           0.4689         estimate D2E/DX2                !
 ! D67   D(8,20,21,26)        -179.8996         estimate D2E/DX2                !
 ! D68   D(25,20,21,22)       -179.2466         estimate D2E/DX2                !
 ! D69   D(25,20,21,26)          0.3848         estimate D2E/DX2                !
 ! D70   D(20,21,22,23)          0.0999         estimate D2E/DX2                !
 ! D71   D(20,21,22,28)       -179.9901         estimate D2E/DX2                !
 ! D72   D(26,21,22,23)       -179.5424         estimate D2E/DX2                !
 ! D73   D(26,21,22,28)          0.3677         estimate D2E/DX2                !
 ! D74   D(21,22,23,24)         -0.3319         estimate D2E/DX2                !
 ! D75   D(21,22,23,27)       -179.9838         estimate D2E/DX2                !
 ! D76   D(28,22,23,24)        179.7511         estimate D2E/DX2                !
 ! D77   D(28,22,23,27)          0.0993         estimate D2E/DX2                !
 ! D78   D(22,23,24,8)          -0.0113         estimate D2E/DX2                !
 ! D79   D(22,23,24,29)       -179.8817         estimate D2E/DX2                !
 ! D80   D(27,23,24,8)         179.643          estimate D2E/DX2                !
 ! D81   D(27,23,24,29)         -0.2274         estimate D2E/DX2                !
 --------------------------------------------------------------------------------
 Trust Radius=3.00D-01 FncErr=1.00D-07 GrdErr=1.00D-06 EigMax=2.50D+02 EigMin=1.00D-04
 Number of steps in this run=    173 maximum allowed number of steps=    174.
 GradGradGradGradGradGradGradGradGradGradGradGradGradGradGradGradGradGrad

                          Input orientation:                          
 ---------------------------------------------------------------------
 Center     Atomic      Atomic             Coordinates (Angstroms)
 Number     Number       Type             X           Y           Z
 ---------------------------------------------------------------------
      1          6           0       -2.410637   -0.488684    0.622700
      2          6           0       -1.048197   -1.190347    0.436959
      3          6           0       -0.354170   -0.322147   -0.640982
      4          8           0       -1.276124   -2.498009   -0.020766
      5          1           0       -0.459744   -1.193116    1.366336
      6          8           0       -1.119323    0.839796   -0.806047
      7          1           0       -0.322508   -0.904868   -1.577127
      8          6           0        1.020176    0.054396   -0.307821
      9          6           0       -2.483594    0.450858   -0.585828
     10          1           0       -2.390545    0.126746    1.531731
     11          8           0       -3.498309   -1.364041    0.711897
     12          6           0       -3.314462    1.698900   -0.393390
     13          1           0       -2.860400   -0.111436   -1.458865
     14          8           0       -2.887106    2.474029    0.707173
     15          1           0       -4.347376    1.391002   -0.185523
     16          1           0       -3.314689    2.290060   -1.324593
     17          1           0       -3.218988   -2.200915    0.315094
     18          1           0       -0.402127   -2.878530   -0.192615
     19          1           0       -1.981154    2.749228    0.535961
     20          6           0        1.435429    1.354026   -0.167891
     21          7           0        2.718374    1.681289    0.102593
     22          6           0        3.718603    0.641634    0.246173
     23          7           0        3.195718   -0.652206    0.073314
     24          6           0        1.902030   -1.005116   -0.196364
     25          1           0        0.651883    2.095185   -0.296413
     26          1           0        3.027900    2.716116    0.211452
     27          1           0        3.850618   -1.420152    0.162942
     28          8           0        4.901435    0.793022    0.487908
     29          8           0        1.538880   -2.169437   -0.328994
 ---------------------------------------------------------------------
                    Distance matrix (angstroms):
                    1          2          3          4          5
     1  C    0.000000
     2  C    1.543721   0.000000
     3  C    2.419439   1.548354   0.000000
     4  O    2.395528   1.404081   2.443162   0.000000
     5  H    2.203452   1.100012   2.190675   2.072022   0.000000
     6  O    2.339587   2.381513   1.401006   3.432520   3.047462
     7  H    3.061492   2.159784   1.103147   2.422755   2.960725
     8  C    3.596009   2.526311   1.463423   3.445311   2.559150
     9  C    1.532515   2.408321   2.266059   3.236216   3.257233
    10  H    1.097950   2.176042   3.011480   3.246771   2.344650
    11  O    1.399013   2.471601   3.577909   2.600151   3.112938
    12  C    2.575823   3.764729   3.592946   4.680568   4.428296
    13  H    2.162756   2.835891   2.644716   3.205275   3.861987
    14  O    3.001970   4.108802   4.006481   5.276961   4.446857
    15  H    2.817339   4.235024   4.368983   4.958240   4.919310
    16  H    3.511507   4.511461   4.006947   5.364822   5.246363
    17  H    1.918277   2.397589   3.556829   1.993938   3.119967
    18  H    3.226486   1.914088   2.595848   0.968607   2.296578
    19  H    3.267423   4.049748   3.669553   5.323580   4.306540
    20  C    4.337377   3.606671   2.497206   4.712997   3.526112
    21  N    5.593393   4.748173   3.742618   5.782540   4.467626
    22  C    6.243955   5.110277   4.278247   5.905583   4.698899
    23  N    5.635582   4.293326   3.636050   4.838720   3.914957
    24  C    4.420030   3.023119   2.398869   3.515711   2.838195
    25  H    4.110982   3.771316   2.640902   4.989050   3.848814
    26  H    6.325943   5.650299   4.625590   6.765031   5.364654
    27  H    6.346836   4.911851   4.419519   5.242042   4.480951
    28  O    7.424779   6.271720   5.489934   7.017968   5.784343
    29  O    4.396514   2.870238   2.663354   2.850826   2.796756
                    6          7          8          9         10
     6  O    0.000000
     7  H    2.067204   0.000000
     8  C    2.332925   2.081856   0.000000
     9  C    1.435620   2.736962   3.537071   0.000000
    10  H    2.754932   3.873758   3.875849   2.144239   0.000000
    11  O    3.580590   3.941596   4.844429   2.451040   2.030201
    12  C    2.393111   4.139158   4.636896   1.511616   2.651675
    13  H    2.088627   2.661657   4.051083   1.104695   3.036636
    14  O    2.843521   4.817897   4.706558   2.434727   2.536968
    15  H    3.333047   4.838093   5.532819   2.125511   2.894217
    16  H    2.681751   4.384574   4.982276   2.149222   3.700345
    17  H    3.861538   3.694568   4.842000   2.895577   2.754002
    18  H    3.836224   2.412168   3.261637   3.946130   3.994854
    19  H    2.487904   4.535269   4.120931   2.606408   2.834885
    20  C    2.682990   3.190437   1.371515   4.043405   4.362684
    21  N    4.032574   4.330893   2.387278   5.389653   5.528118
    22  C    4.954994   4.695388   2.816605   6.260660   6.264141
    23  N    4.649616   3.894317   2.318951   5.822869   5.825812
    24  C    3.592212   2.620138   1.382988   4.637374   4.763783
    25  H    2.230000   3.404407   2.073786   3.552293   4.058723
    26  H    4.664262   5.247454   3.374219   6.011956   6.148782
    27  H    5.544963   4.550642   3.226037   6.647073   6.574085
    28  O    6.158412   5.868286   4.030251   7.470518   7.396382
    29  O    4.043403   2.573273   2.283623   4.807516   4.916822
                   11         12         13         14         15
    11  O    0.000000
    12  C    3.261452   0.000000
    13  H    2.586147   2.149122   0.000000
    14  O    3.886434   1.412337   3.372990   0.000000
    15  H    3.019361   1.097689   2.467756   2.025399   0.000000
    16  H    4.187298   1.103000   2.447773   2.084405   1.781075
    17  H    0.967384   3.964798   2.764315   4.703081   3.798124
    18  H    3.563448   5.429076   3.911944   5.969475   5.813256
    19  H    4.387675   1.935095   3.596638   0.962183   2.822113
    20  C    5.701200   4.767730   4.718934   4.550215   5.782950
    21  N    6.949276   6.053216   6.064217   5.693449   7.077577
    22  C    7.504895   7.140788   6.837949   6.870632   8.112209
    23  N    6.761989   6.937431   6.270293   6.868469   7.819205
    24  C    5.487935   5.878972   5.007326   5.988042   6.693024
    25  H    5.496092   3.987272   4.307738   3.697993   5.049828
    26  H    7.712946   6.451831   6.742187   5.940677   7.503880
    27  H    7.369615   7.834307   7.027144   7.801138   8.673588
    28  O    8.675182   8.312537   8.053201   7.970899   9.292556
    29  O    5.206284   6.206699   4.986546   6.498059   6.880794
                   16         17         18         19         20
    16  H    0.000000
    17  H    4.781902   0.000000
    18  H    6.039761   2.941366   0.000000
    19  H    2.334697   5.107341   5.890315   0.000000
    20  C    4.977724   5.876604   4.614299   3.756998   0.000000
    21  N    6.229391   7.097107   5.533229   4.838788   1.351374
    22  C    7.392686   7.497667   5.437325   6.083844   2.427310
    23  N    7.279868   6.603439   4.239307   6.211586   2.679881
    24  C    6.272579   5.283593   2.969652   5.450735   2.405011
    25  H    4.102295   5.814986   5.085229   2.837869   1.086176
    26  H    6.539831   7.950569   6.574832   5.019664   2.129590
    27  H    8.204880   7.114216   4.509892   7.178610   3.693055
    28  O    8.545816   8.656488   6.486230   7.155353   3.571834
    29  O    6.665993   4.801369   2.070971   6.109996   3.528661
                   21         22         23         24         25
    21  N    0.000000
    22  C    1.449812   0.000000
    23  N    2.381998   1.406169   0.000000
    24  C    2.823573   2.491498   1.367809   0.000000
    25  H    2.144971   3.436856   3.762440   3.344360   0.000000
    26  H    1.085598   2.186722   3.375328   3.909151   2.507776
    27  H    3.302205   2.067684   1.013246   2.024438   4.774988
    28  O    2.388146   1.216736   2.273773   3.563420   4.513256
    29  O    4.050378   3.603350   2.282313   1.226830   4.356010
                   26         27         28         29
    26  H    0.000000
    27  H    4.217574   0.000000
    28  O    2.699046   2.471428   0.000000
    29  O    5.135941   2.479428   4.555246   0.000000
 Stoichiometry    C9H12N2O6
 Framework group  C1[X(C9H12N2O6)]
 Deg. of freedom    81
 Full point group                 C1      NOp   1
 Largest Abelian subgroup         C1      NOp   1
 Largest concise Abelian subgroup C1      NOp   1
                         Standard orientation:                         
 ---------------------------------------------------------------------
 Center     Atomic      Atomic             Coordinates (Angstroms)
 Number     Number       Type             X           Y           Z
 ---------------------------------------------------------------------
      1          6           0       -2.427178    0.482640   -0.621565
      2          6           0       -1.070199    1.194694   -0.435401
      3          6           0       -0.370405    0.332560    0.643679
      4          8           0       -1.308300    2.500943    0.021178
      5          1           0       -0.481128    1.201204   -1.364369
      6          8           0       -1.126892   -0.834996    0.809085
      7          1           0       -0.343797    0.916204    1.579406
      8          6           0        1.006975   -0.033860    0.311762
      9          6           0       -2.493901   -0.456520    0.587620
     10          1           0       -2.401807   -0.133302   -1.530118
     11          8           0       -3.521356    1.349704   -0.712183
     12          6           0       -3.315200   -1.710935    0.395542
     13          1           0       -2.875551    0.103570    1.459969
     14          8           0       -2.881237   -2.483644   -0.704137
     15          1           0       -4.350260   -1.410990    0.186721
     16          1           0       -3.311626   -2.301383    1.327191
     17          1           0       -3.248632    2.188957   -0.315816
     18          1           0       -0.437318    2.888172    0.193350
     19          1           0       -1.973357   -2.751876   -0.532084
     20          6           0        1.432113   -1.330426    0.173103
     21          7           0        2.717679   -1.648209   -0.096237
     22          6           0        3.710142   -0.601150   -0.239902
     23          7           0        3.177396    0.688840   -0.068385
     24          6           0        1.880894    1.032188    0.200123
     25          1           0        0.654087   -2.077376    0.301636
     26          1           0        3.035075   -2.680754   -0.204100
     27          1           0        3.826550    1.461635   -0.158134
     28          8           0        4.894252   -0.743796   -0.480697
     29          8           0        1.508883    2.193836    0.331621
 ---------------------------------------------------------------------
 Rotational constants (GHZ):           0.8788579           0.2925434           0.2324110
 Standard basis: Aug-CC-pVDZ (5D, 7F)
 There are   533 symmetry adapted cartesian basis functions of A   symmetry.
 There are   499 symmetry adapted basis functions of A   symmetry.
   499 basis functions,   863 primitive gaussians,   533 cartesian basis functions
    64 alpha electrons       64 beta electrons
       nuclear repulsion energy      1309.0444936293 Hartrees.
 NAtoms=   29 NActive=   29 NUniq=   29 SFac= 1.00D+00 NAtFMM=   60 NAOKFM=F Big=F
 Integral buffers will be    131072 words long.
 Raffenetti 2 integral format.
 Two-electron integral symmetry is turned on.
 Nuclear repulsion after empirical dispersion term =     1309.0248508881 Hartrees.
 One-electron integrals computed using PRISM.
 NBasis=   499 RedAO= T EigKep=  2.33D-06  NBF=   499
 NBsUse=   499 1.00D-06 EigRej= -1.00D+00 NBFU=   499
 ExpMin= 2.97D-02 ExpMax= 1.17D+04 ExpMxC= 4.01D+02 IAcc=3 IRadAn=         5 AccDes= 0.00D+00
 Harris functional with IExCor= 1009 and IRadAn=       5 diagonalized for initial guess.
 HarFok:  IExCor= 1009 AccDes= 0.00D+00 IRadAn=         5 IDoV= 1 UseB2=F ITyADJ=14
 ICtDFT=  3500011 ScaDFX=  1.000000  1.000000  1.000000  1.000000
 FoFCou: FMM=F IPFlag=           0 FMFlag=      100000 FMFlg1=           0
         NFxFlg=           0 DoJE=T BraDBF=F KetDBF=T FulRan=T
         wScrn=  0.000000 ICntrl=       500 IOpCl=  0 I1Cent=   200000004 NGrid=           0
         NMat0=    1 NMatS0=      1 NMatT0=    0 NMatD0=    1 NMtDS0=    0 NMtDT0=    0
 Petite list used in FoFCou.
 Requested convergence on RMS density matrix=1.00D-08 within 128 cycles.
 Requested convergence on MAX density matrix=1.00D-06.
 Requested convergence on             energy=1.00D-06.
 No special actions if energy rises.
 SCF Done:  E(RPBE1PBE) =  -910.211835817     A.U. after   14 cycles
            NFock= 14  Conv=0.78D-08     -V/T= 2.0053

 **********************************************************************

            Population analysis using the SCF Density.

 **********************************************************************

 Orbital symmetries:
       Occupied  (A) (A) (A) (A) (A) (A) (A) (A) (A) (A) (A) (A)
                 (A) (A) (A) (A) (A) (A) (A) (A) (A) (A) (A) (A)
                 (A) (A) (A) (A) (A) (A) (A) (A) (A) (A) (A) (A)
                 (A) (A) (A) (A) (A) (A) (A) (A) (A) (A) (A) (A)
                 (A) (A) (A) (A) (A) (A) (A) (A) (A) (A) (A) (A)
                 (A) (A) (A) (A)
       Virtual   (A) (A) (A) (A) (A) (A) (A) (A) (A) (A) (A) (A)
                 (A) (A) (A) (A) (A) (A) (A) (A) (A) (A) (A) (A)
                 (A) (A) (A) (A) (A) (A) (A) (A) (A) (A) (A) (A)
                 (A) (A) (A) (A) (A) (A) (A) (A) (A) (A) (A) (A)
                 (A) (A) (A) (A) (A) (A) (A) (A) (A) (A) (A) (A)
                 (A) (A) (A) (A) (A) (A) (A) (A) (A) (A) (A) (A)
                 (A) (A) (A) (A) (A) (A) (A) (A) (A) (A) (A) (A)
                 (A) (A) (A) (A) (A) (A) (A) (A) (A) (A) (A) (A)
                 (A) (A) (A) (A) (A) (A) (A) (A) (A) (A) (A) (A)
                 (A) (A) (A) (A) (A) (A) (A) (A) (A) (A) (A) (A)
                 (A) (A) (A) (A) (A) (A) (A) (A) (A) (A) (A) (A)
                 (A) (A) (A) (A) (A) (A) (A) (A) (A) (A) (A) (A)
                 (A) (A) (A) (A) (A) (A) (A) (A) (A) (A) (A) (A)
                 (A) (A) (A) (A) (A) (A) (A) (A) (A) (A) (A) (A)
                 (A) (A) (A) (A) (A) (A) (A) (A) (A) (A) (A) (A)
                 (A) (A) (A) (A) (A) (A) (A) (A) (A) (A) (A) (A)
                 (A) (A) (A) (A) (A) (A) (A) (A) (A) (A) (A) (A)
                 (A) (A) (A) (A) (A) (A) (A) (A) (A) (A) (A) (A)
                 (A) (A) (A) (A) (A) (A) (A) (A) (A) (A) (A) (A)
                 (A) (A) (A) (A) (A) (A) (A) (A) (A) (A) (A) (A)
                 (A) (A) (A) (A) (A) (A) (A) (A) (A) (A) (A) (A)
                 (A) (A) (A) (A) (A) (A) (A) (A) (A) (A) (A) (A)
                 (A) (A) (A) (A) (A) (A) (A) (A) (A) (A) (A) (A)
                 (A) (A) (A) (A) (A) (A) (A) (A) (A) (A) (A) (A)
                 (A) (A) (A) (A) (A) (A) (A) (A) (A) (A) (A) (A)
                 (A) (A) (A) (A) (A) (A) (A) (A) (A) (A) (A) (A)
                 (A) (A) (A) (A) (A) (A) (A) (A) (A) (A) (A) (A)
                 (A) (A) (A) (A) (A) (A) (A) (A) (A) (A) (A) (A)
                 (A) (A) (A) (A) (A) (A) (A) (A) (A) (A) (A) (A)
                 (A) (A) (A) (A) (A) (A) (A) (A) (A) (A) (A) (A)
                 (A) (A) (A) (A) (A) (A) (A) (A) (A) (A) (A) (A)
                 (A) (A) (A) (A) (A) (A) (A) (A) (A) (A) (A) (A)
                 (A) (A) (A) (A) (A) (A) (A) (A) (A) (A) (A) (A)
                 (A) (A) (A) (A) (A) (A) (A) (A) (A) (A) (A) (A)
                 (A) (A) (A) (A) (A) (A) (A) (A) (A) (A) (A) (A)
                 (A) (A) (A) (A) (A) (A) (A) (A) (A) (A) (A) (A)
                 (A) (A) (A)
 The electronic state is 1-A.
 Alpha  occ. eigenvalues --  -19.25613 -19.23700 -19.23530 -19.23497 -19.22342
 Alpha  occ. eigenvalues --  -19.22210 -14.50444 -14.47748 -10.41933 -10.36229
 Alpha  occ. eigenvalues --  -10.32973 -10.30068 -10.29434 -10.28863 -10.28522
 Alpha  occ. eigenvalues --  -10.28487 -10.26132  -1.13364  -1.11512  -1.10274
 Alpha  occ. eigenvalues --   -1.07871  -1.06493  -1.05036  -1.03209  -0.98192
 Alpha  occ. eigenvalues --   -0.86775  -0.80275  -0.78446  -0.73754  -0.71348
 Alpha  occ. eigenvalues --   -0.70009  -0.64638  -0.63298  -0.60813  -0.60190
 Alpha  occ. eigenvalues --   -0.56668  -0.55742  -0.55036  -0.52229  -0.51849
 Alpha  occ. eigenvalues --   -0.51550  -0.50419  -0.50318  -0.48182  -0.48127
 Alpha  occ. eigenvalues --   -0.45883  -0.45764  -0.44495  -0.43572  -0.42125
 Alpha  occ. eigenvalues --   -0.41474  -0.40376  -0.39720  -0.37913  -0.35556
 Alpha  occ. eigenvalues --   -0.34383  -0.33770  -0.32667  -0.32094  -0.30741
 Alpha  occ. eigenvalues --   -0.30385  -0.29664  -0.27698  -0.26824
 Alpha virt. eigenvalues --   -0.06412  -0.02970  -0.01872  -0.00267   0.00035
 Alpha virt. eigenvalues --    0.00549   0.01340   0.02111   0.02432   0.03489
 Alpha virt. eigenvalues --    0.03517   0.04379   0.04712   0.05239   0.05923
 Alpha virt. eigenvalues --    0.06220   0.06553   0.07084   0.07388   0.07794
 Alpha virt. eigenvalues --    0.08078   0.08795   0.09143   0.09433   0.09676
 Alpha virt. eigenvalues --    0.09979   0.10711   0.11012   0.11119   0.11224
 Alpha virt. eigenvalues --    0.11344   0.11805   0.11888   0.12466   0.12524
 Alpha virt. eigenvalues --    0.13074   0.13303   0.13560   0.14106   0.14251
 Alpha virt. eigenvalues --    0.14467   0.15123   0.15651   0.16072   0.16148
 Alpha virt. eigenvalues --    0.16863   0.17205   0.17356   0.17610   0.18121
 Alpha virt. eigenvalues --    0.18295   0.18608   0.19218   0.19851   0.20123
 Alpha virt. eigenvalues --    0.20498   0.21144   0.21431   0.21775   0.21900
 Alpha virt. eigenvalues --    0.22543   0.22831   0.23235   0.23587   0.23723
 Alpha virt. eigenvalues --    0.23946   0.24099   0.24370   0.24802   0.25426
 Alpha virt. eigenvalues --    0.25884   0.25999   0.26494   0.26629   0.27038
 Alpha virt. eigenvalues --    0.27389   0.27570   0.28154   0.28318   0.28458
 Alpha virt. eigenvalues --    0.28872   0.29379   0.29408   0.29724   0.30175
 Alpha virt. eigenvalues --    0.30441   0.30830   0.31439   0.32057   0.32415
 Alpha virt. eigenvalues --    0.32553   0.33439   0.33891   0.34485   0.34606
 Alpha virt. eigenvalues --    0.35133   0.35626   0.36291   0.36603   0.36983
 Alpha virt. eigenvalues --    0.37418   0.37600   0.37997   0.38726   0.38945
 Alpha virt. eigenvalues --    0.39661   0.40093   0.40504   0.40636   0.41047
 Alpha virt. eigenvalues --    0.41375   0.41636   0.42317   0.42536   0.42622
 Alpha virt. eigenvalues --    0.44004   0.44370   0.45111   0.45784   0.46272
 Alpha virt. eigenvalues --    0.46364   0.46987   0.47530   0.48123   0.48558
 Alpha virt. eigenvalues --    0.48788   0.49852   0.50061   0.50459   0.51246
 Alpha virt. eigenvalues --    0.51596   0.51997   0.52432   0.53407   0.53684
 Alpha virt. eigenvalues --    0.54077   0.54438   0.55120   0.55598   0.56260
 Alpha virt. eigenvalues --    0.56590   0.57450   0.58504   0.58861   0.59039
 Alpha virt. eigenvalues --    0.59997   0.60512   0.61007   0.61474   0.62234
 Alpha virt. eigenvalues --    0.62452   0.63078   0.63084   0.64188   0.64638
 Alpha virt. eigenvalues --    0.65130   0.65835   0.66191   0.66650   0.66744
 Alpha virt. eigenvalues --    0.67618   0.68306   0.68904   0.69112   0.69840
 Alpha virt. eigenvalues --    0.70135   0.70843   0.71301   0.71878   0.72480
 Alpha virt. eigenvalues --    0.72929   0.73194   0.73359   0.74214   0.74984
 Alpha virt. eigenvalues --    0.75234   0.75773   0.76431   0.76834   0.77024
 Alpha virt. eigenvalues --    0.77703   0.78528   0.78592   0.79641   0.80480
 Alpha virt. eigenvalues --    0.81086   0.82061   0.82492   0.83483   0.84233
 Alpha virt. eigenvalues --    0.84548   0.85093   0.85622   0.86540   0.87494
 Alpha virt. eigenvalues --    0.88232   0.88298   0.89675   0.90334   0.91066
 Alpha virt. eigenvalues --    0.91809   0.92507   0.93507   0.94427   0.94602
 Alpha virt. eigenvalues --    0.95144   0.96849   0.97336   0.97656   0.98863
 Alpha virt. eigenvalues --    0.99802   1.00810   1.01737   1.02276   1.02413
 Alpha virt. eigenvalues --    1.03122   1.04478   1.05305   1.06682   1.07112
 Alpha virt. eigenvalues --    1.08976   1.09588   1.10265   1.10543   1.11417
 Alpha virt. eigenvalues --    1.11811   1.12529   1.13180   1.14484   1.14913
 Alpha virt. eigenvalues --    1.15983   1.17424   1.18756   1.19480   1.21076
 Alpha virt. eigenvalues --    1.21459   1.21639   1.22813   1.24188   1.25340
 Alpha virt. eigenvalues --    1.25486   1.26568   1.27136   1.27673   1.27939
 Alpha virt. eigenvalues --    1.28708   1.29809   1.31498   1.33133   1.34829
 Alpha virt. eigenvalues --    1.35423   1.35644   1.36229   1.37608   1.39687
 Alpha virt. eigenvalues --    1.40675   1.40840   1.43443   1.44233   1.44571
 Alpha virt. eigenvalues --    1.45620   1.47293   1.47864   1.48722   1.49507
 Alpha virt. eigenvalues --    1.50289   1.50616   1.52407   1.52522   1.53835
 Alpha virt. eigenvalues --    1.54635   1.54879   1.55821   1.56954   1.57926
 Alpha virt. eigenvalues --    1.59321   1.59660   1.60156   1.61798   1.62326
 Alpha virt. eigenvalues --    1.63631   1.64617   1.65639   1.66707   1.67285
 Alpha virt. eigenvalues --    1.68259   1.69290   1.70813   1.71191   1.72194
 Alpha virt. eigenvalues --    1.73543   1.74759   1.75309   1.77075   1.77913
 Alpha virt. eigenvalues --    1.78552   1.79270   1.80210   1.81483   1.82478
 Alpha virt. eigenvalues --    1.84101   1.85679   1.86537   1.87247   1.88638
 Alpha virt. eigenvalues --    1.89607   1.90001   1.91178   1.92243   1.94065
 Alpha virt. eigenvalues --    1.95095   1.95347   1.96292   1.97481   1.97710
 Alpha virt. eigenvalues --    1.98961   1.99527   1.99886   2.00336   2.02707
 Alpha virt. eigenvalues --    2.02950   2.04244   2.05108   2.06080   2.06640
 Alpha virt. eigenvalues --    2.07679   2.08427   2.10038   2.10631   2.12389
 Alpha virt. eigenvalues --    2.12755   2.13948   2.14914   2.16125   2.17067
 Alpha virt. eigenvalues --    2.18125   2.18988   2.20505   2.22056   2.23112
 Alpha virt. eigenvalues --    2.24991   2.25225   2.26334   2.27704   2.29871
 Alpha virt. eigenvalues --    2.30372   2.31334   2.34188   2.35501   2.36636
 Alpha virt. eigenvalues --    2.37144   2.38536   2.40409   2.41740   2.42619
 Alpha virt. eigenvalues --    2.43574   2.44226   2.45179   2.46363   2.47934
 Alpha virt. eigenvalues --    2.48225   2.49600   2.51080   2.52417   2.53429
 Alpha virt. eigenvalues --    2.55012   2.57518   2.57695   2.59231   2.59910
 Alpha virt. eigenvalues --    2.60638   2.62296   2.65381   2.67248   2.68508
 Alpha virt. eigenvalues --    2.68595   2.71196   2.75298   2.75972   2.77183
 Alpha virt. eigenvalues --    2.81442   2.81612   2.82667   2.86199   2.88705
 Alpha virt. eigenvalues --    2.91343   2.92779   2.93737   2.95643   2.98448
 Alpha virt. eigenvalues --    3.00831   3.08266   3.14531   3.19983   3.21161
 Alpha virt. eigenvalues --    3.25764   3.28169   3.32766   3.33945   3.34469
 Alpha virt. eigenvalues --    3.36030   3.41149   3.42419   3.43912   3.44535
 Alpha virt. eigenvalues --    3.45384   3.47033   3.48065   3.49336   3.50828
 Alpha virt. eigenvalues --    3.52595   3.53972   3.55242   3.56085   3.57600
 Alpha virt. eigenvalues --    3.59475   3.60260   3.63391   3.64318   3.65575
 Alpha virt. eigenvalues --    3.69895   3.70125   3.75088   3.75827   3.78464
 Alpha virt. eigenvalues --    3.81526   3.85000   3.86909   3.99526   4.01449
 Alpha virt. eigenvalues --    4.06267   4.07753   4.11692   4.20950   5.37378
          Condensed to atoms (all electrons):
               1          2          3          4          5          6
     1  C   10.290627  -4.024420   1.689285   0.229692   0.598779   0.366897
     2  C   -4.024420  10.715704  -2.981836  -0.820454  -1.162377  -0.230487
     3  C    1.689285  -2.981836  15.077644   0.388291   0.573420  -0.503939
     4  O    0.229692  -0.820454   0.388291   8.749948  -0.007304   0.041331
     5  H    0.598779  -1.162377   0.573420  -0.007304   2.319716   0.022544
     6  O    0.366897  -0.230487  -0.503939   0.041331   0.022544   9.683862
     7  H    0.032469   0.199103  -0.522150  -0.048083   0.092623  -0.139859
     8  C   -0.374914   0.835710  -2.005146  -0.066119  -0.412940   0.075482
     9  C   -1.895151   1.223686  -2.201072  -0.122019  -0.176664  -0.582659
    10  H   -0.969341   0.584729  -0.203233   0.017294  -0.208396   0.007756
    11  O   -0.511758   0.197070   0.017311  -0.060860  -0.008405  -0.020230
    12  C    0.054689  -0.299678   0.328416   0.013328   0.037811  -0.042188
    13  H    0.004226   0.159269   0.138245   0.002132  -0.020755  -0.054425
    14  O   -0.089876   0.012767   0.001241  -0.000390  -0.001154  -0.050170
    15  H    0.073882   0.043134  -0.018411   0.000112   0.006701   0.126111
    16  H   -0.070563  -0.030310   0.033785   0.000636  -0.001629  -0.103697
    17  H    0.002352  -0.139947   0.056166   0.053341   0.013510   0.004659
    18  H   -0.087371   0.160783  -0.143907   0.287217  -0.083085   0.000663
    19  H    0.007087   0.018446  -0.037820  -0.001592   0.000632   0.029223
    20  C   -0.183313   0.130577  -3.110804   0.039522  -0.047938   0.241855
    21  N    0.015386  -0.007451   0.335768  -0.000323   0.007630   0.010584
    22  C   -0.002086  -0.038059  -0.403704   0.000753  -0.003144   0.021726
    23  N   -0.004425   0.038751  -0.239593  -0.006405   0.017947   0.010356
    24  C   -0.134813   0.223118  -1.076469   0.042782  -0.030952  -0.033841
    25  H   -0.010082  -0.012565   0.202702   0.000742   0.001389  -0.107326
    26  H    0.001893  -0.003380  -0.005775   0.000111   0.000467  -0.000973
    27  H    0.004441  -0.001282   0.028108   0.000331  -0.001157   0.000921
    28  O    0.000377   0.000085   0.009779   0.000029  -0.000196   0.000358
    29  O   -0.015172   0.079170  -0.206420  -0.029551   0.016886   0.011837
               7          8          9         10         11         12
     1  C    0.032469  -0.374914  -1.895151  -0.969341  -0.511758   0.054689
     2  C    0.199103   0.835710   1.223686   0.584729   0.197070  -0.299678
     3  C   -0.522150  -2.005146  -2.201072  -0.203233   0.017311   0.328416
     4  O   -0.048083  -0.066119  -0.122019   0.017294  -0.060860   0.013328
     5  H    0.092623  -0.412940  -0.176664  -0.208396  -0.008405   0.037811
     6  O   -0.139859   0.075482  -0.582659   0.007756  -0.020230  -0.042188
     7  H    1.613876   0.000979   0.185295  -0.020581   0.001279   0.000953
     8  C    0.000979  13.504352   0.247567   0.071753  -0.014535  -0.139006
     9  C    0.185295   0.247567  10.135629   0.084623   0.114317  -0.543053
    10  H   -0.020581   0.071753   0.084623   2.090065  -0.113564  -0.074480
    11  O    0.001279  -0.014535   0.114317  -0.113564   8.641277   0.038786
    12  C    0.000953  -0.139006  -0.543053  -0.074480   0.038786   5.340981
    13  H   -0.015049   0.004772  -0.972203   0.120534  -0.004021  -0.082471
    14  O   -0.000660   0.009403   0.127722   0.011548   0.003114   0.064061
    15  H    0.001508   0.010379  -0.352586  -0.033160   0.021312   0.204978
    16  H   -0.005867   0.004938   0.473125   0.017715  -0.001825  -0.012891
    17  H   -0.004720  -0.022168  -0.033701   0.025513   0.331960   0.003530
    18  H    0.003286   0.122068   0.006675   0.004977   0.006475  -0.007952
    19  H    0.000551   0.016336  -0.047180  -0.003464   0.000828   0.009060
    20  C   -0.065897  -2.907677   0.004775   0.010650   0.002711  -0.106143
    21  N    0.005315   0.180553   0.016346  -0.000586   0.000007   0.002079
    22  C   -0.016414   0.054022  -0.013360   0.001302   0.000212  -0.006561
    23  N    0.017634   0.053764   0.003166  -0.000556   0.000049  -0.001342
    24  C   -0.049146  -4.304913  -0.046069   0.005586  -0.000291   0.012467
    25  H    0.038369   0.244055   0.091620   0.005027  -0.000204  -0.007030
    26  H   -0.000310   0.086945  -0.001585   0.000013  -0.000019  -0.000367
    27  H    0.000622   0.104940  -0.002632   0.000315  -0.000008   0.000080
    28  O    0.000460   0.040484   0.000074   0.000039  -0.000002   0.000006
    29  O    0.043290  -0.196014   0.022830   0.001551  -0.000258  -0.003519
              13         14         15         16         17         18
     1  C    0.004226  -0.089876   0.073882  -0.070563   0.002352  -0.087371
     2  C    0.159269   0.012767   0.043134  -0.030310  -0.139947   0.160783
     3  C    0.138245   0.001241  -0.018411   0.033785   0.056166  -0.143907
     4  O    0.002132  -0.000390   0.000112   0.000636   0.053341   0.287217
     5  H   -0.020755  -0.001154   0.006701  -0.001629   0.013510  -0.083085
     6  O   -0.054425  -0.050170   0.126111  -0.103697   0.004659   0.000663
     7  H   -0.015049  -0.000660   0.001508  -0.005867  -0.004720   0.003286
     8  C    0.004772   0.009403   0.010379   0.004938  -0.022168   0.122068
     9  C   -0.972203   0.127722  -0.352586   0.473125  -0.033701   0.006675
    10  H    0.120534   0.011548  -0.033160   0.017715   0.025513   0.004977
    11  O   -0.004021   0.003114   0.021312  -0.001825   0.331960   0.006475
    12  C   -0.082471   0.064061   0.204978  -0.012891   0.003530  -0.007952
    13  H    2.217781   0.014491  -0.041595  -0.055273  -0.004318   0.004742
    14  O    0.014491   8.271713  -0.137186  -0.043039  -0.000847   0.000378
    15  H   -0.041595  -0.137186   1.647652  -0.338238   0.001046  -0.000853
    16  H   -0.055273  -0.043039  -0.338238   1.397918  -0.000754  -0.000006
    17  H   -0.004318  -0.000847   0.001046  -0.000754   0.606303  -0.005819
    18  H    0.004742   0.000378  -0.000853  -0.000006  -0.005819   0.595704
    19  H    0.008720   0.302464   0.027928  -0.058205  -0.000069  -0.000001
    20  C    0.035008  -0.004425  -0.004629  -0.009983  -0.002622   0.016836
    21  N   -0.000523  -0.000284  -0.000144   0.001371   0.000065  -0.002062
    22  C    0.000904  -0.000125  -0.000225  -0.000622  -0.000189   0.003274
    23  N    0.001334   0.000009  -0.000078  -0.000393  -0.000002   0.000493
    24  C    0.018687  -0.000170   0.000483   0.001699  -0.000111  -0.053058
    25  H    0.001973   0.004077  -0.002783   0.010405  -0.000449  -0.001194
    26  H   -0.000047  -0.000095   0.000034  -0.000260   0.000013  -0.000076
    27  H   -0.000008   0.000001  -0.000005   0.000032  -0.000001  -0.000969
    28  O    0.000026  -0.000002   0.000001   0.000000  -0.000000   0.000031
    29  O    0.002550  -0.000056  -0.000159  -0.000318  -0.000168   0.015650
              19         20         21         22         23         24
     1  C    0.007087  -0.183313   0.015386  -0.002086  -0.004425  -0.134813
     2  C    0.018446   0.130577  -0.007451  -0.038059   0.038751   0.223118
     3  C   -0.037820  -3.110804   0.335768  -0.403704  -0.239593  -1.076469
     4  O   -0.001592   0.039522  -0.000323   0.000753  -0.006405   0.042782
     5  H    0.000632  -0.047938   0.007630  -0.003144   0.017947  -0.030952
     6  O    0.029223   0.241855   0.010584   0.021726   0.010356  -0.033841
     7  H    0.000551  -0.065897   0.005315  -0.016414   0.017634  -0.049146
     8  C    0.016336  -2.907677   0.180553   0.054022   0.053764  -4.304913
     9  C   -0.047180   0.004775   0.016346  -0.013360   0.003166  -0.046069
    10  H   -0.003464   0.010650  -0.000586   0.001302  -0.000556   0.005586
    11  O    0.000828   0.002711   0.000007   0.000212   0.000049  -0.000291
    12  C    0.009060  -0.106143   0.002079  -0.006561  -0.001342   0.012467
    13  H    0.008720   0.035008  -0.000523   0.000904   0.001334   0.018687
    14  O    0.302464  -0.004425  -0.000284  -0.000125   0.000009  -0.000170
    15  H    0.027928  -0.004629  -0.000144  -0.000225  -0.000078   0.000483
    16  H   -0.058205  -0.009983   0.001371  -0.000622  -0.000393   0.001699
    17  H   -0.000069  -0.002622   0.000065  -0.000189  -0.000002  -0.000111
    18  H   -0.000001   0.016836  -0.002062   0.003274   0.000493  -0.053058
    19  H    0.624861  -0.009746  -0.000106  -0.000529   0.000031   0.002156
    20  C   -0.009746  15.064058  -1.318611   0.091574   0.365023  -2.303901
    21  N   -0.000106  -1.318611   7.991393  -0.094825  -0.074068   0.189631
    22  C   -0.000529   0.091574  -0.094825   6.241600  -0.037726  -0.369541
    23  N    0.000031   0.365023  -0.074068  -0.037726   7.501209  -0.395238
    24  C    0.002156  -2.303901   0.189631  -0.369541  -0.395238  13.657935
    25  H   -0.007571  -1.040654   0.144772  -0.067646  -0.013491   0.178797
    26  H    0.000064  -0.216149   0.443110  -0.115787   0.011386  -0.063696
    27  H   -0.000064  -0.143128   0.040184  -0.190079   0.343325  -0.141424
    28  O   -0.000038   0.074184  -0.104280   0.112608  -0.109350   0.003990
    29  O   -0.000126  -0.034342   0.003905   0.013124  -0.136862   0.430699
              25         26         27         28         29
     1  C   -0.010082   0.001893   0.004441   0.000377  -0.015172
     2  C   -0.012565  -0.003380  -0.001282   0.000085   0.079170
     3  C    0.202702  -0.005775   0.028108   0.009779  -0.206420
     4  O    0.000742   0.000111   0.000331   0.000029  -0.029551
     5  H    0.001389   0.000467  -0.001157  -0.000196   0.016886
     6  O   -0.107326  -0.000973   0.000921   0.000358   0.011837
     7  H    0.038369  -0.000310   0.000622   0.000460   0.043290
     8  C    0.244055   0.086945   0.104940   0.040484  -0.196014
     9  C    0.091620  -0.001585  -0.002632   0.000074   0.022830
    10  H    0.005027   0.000013   0.000315   0.000039   0.001551
    11  O   -0.000204  -0.000019  -0.000008  -0.000002  -0.000258
    12  C   -0.007030  -0.000367   0.000080   0.000006  -0.003519
    13  H    0.001973  -0.000047  -0.000008   0.000026   0.002550
    14  O    0.004077  -0.000095   0.000001  -0.000002  -0.000056
    15  H   -0.002783   0.000034  -0.000005   0.000001  -0.000159
    16  H    0.010405  -0.000260   0.000032   0.000000  -0.000318
    17  H   -0.000449   0.000013  -0.000001  -0.000000  -0.000168
    18  H   -0.001194  -0.000076  -0.000969   0.000031   0.015650
    19  H   -0.007571   0.000064  -0.000064  -0.000038  -0.000126
    20  C   -1.040654  -0.216149  -0.143128   0.074184  -0.034342
    21  N    0.144772   0.443110   0.040184  -0.104280   0.003905
    22  C   -0.067646  -0.115787  -0.190079   0.112608   0.013124
    23  N   -0.013491   0.011386   0.343325  -0.109350  -0.136862
    24  C    0.178797  -0.063696  -0.141424   0.003990   0.430699
    25  H    1.981174  -0.007086  -0.003622   0.005766  -0.006942
    26  H   -0.007086   0.821515  -0.005066   0.006004   0.002198
    27  H   -0.003622  -0.005066   1.065371  -0.002787  -0.035722
    28  O    0.005766   0.006004  -0.002787   8.514876  -0.000850
    29  O   -0.006942   0.002198  -0.035722  -0.000850   8.860389
 Mulliken charges:
               1
     1  C    1.001201
     2  C    1.130144
     3  C    0.780119
     4  O   -0.704492
     5  H   -0.543959
     6  O   -0.786370
     7  H   -0.348876
     8  C    0.774929
     9  C    0.252486
    10  H   -0.433628
    11  O   -0.640728
    12  C    1.215459
    13  H   -0.484707
    14  O   -0.494511
    15  H   -0.235204
    16  H   -0.207751
    17  H    0.117430
    18  H    0.157100
    19  H    0.118124
    20  C    1.433189
    21  N   -0.784834
    22  C    0.819522
    23  N   -0.344948
    24  C    0.235601
    25  H   -0.622221
    26  H    0.046918
    27  H   -0.060719
    28  O   -0.551674
    29  O   -0.837600
 Sum of Mulliken charges =  -0.00000
 Mulliken charges with hydrogens summed into heavy atoms:
               1
     1  C    0.567573
     2  C    0.586185
     3  C    0.431242
     4  O   -0.547392
     6  O   -0.786370
     8  C    0.774929
     9  C   -0.232221
    11  O   -0.523298
    12  C    0.772503
    14  O   -0.376387
    20  C    0.810968
    21  N   -0.737916
    22  C    0.819522
    23  N   -0.405667
    24  C    0.235601
    28  O   -0.551674
    29  O   -0.837600
 Electronic spatial extent (au):  <R**2>=           4478.6641
 Charge=             -0.0000 electrons
 Dipole moment (field-independent basis, Debye):
    X=              2.0129    Y=             -2.9398    Z=              1.5449  Tot=              3.8834
 Quadrupole moment (field-independent basis, Debye-Ang):
   XX=           -120.3876   YY=            -95.4419   ZZ=           -100.2100
   XY=             -2.2207   XZ=             -5.6347   YZ=             -1.7993
 Traceless Quadrupole moment (field-independent basis, Debye-Ang):
   XX=            -15.0411   YY=              9.9046   ZZ=              5.1365
   XY=             -2.2207   XZ=             -5.6347   YZ=             -1.7993
 Octapole moment (field-independent basis, Debye-Ang**2):
  XXX=            -66.6285  YYY=            -26.6349  ZZZ=             -0.9904  XYY=             34.7601
  XXY=             20.6784  XXZ=             42.3091  XZZ=              1.1223  YZZ=              4.6783
  YYZ=              4.1475  XYZ=              1.0416
 Hexadecapole moment (field-independent basis, Debye-Ang**3):
 XXXX=          -4827.2976 YYYY=          -1228.1186 ZZZZ=           -265.0304 XXXY=            161.5739
 XXXZ=            -15.7271 YYYX=           -140.6082 YYYZ=             -8.6607 ZZZX=             -3.6655
 ZZZY=              5.2294 XXYY=           -875.6954 XXZZ=           -751.2225 YYZZ=           -273.8131
 XXYZ=            -32.5059 YYXZ=            -42.3263 ZZXY=              0.8660
 N-N= 1.309024850888D+03 E-N=-4.749969695042D+03  KE= 9.053997579715D+02
 Calling FoFJK, ICntrl=      2127 FMM=F ISym2X=0 I1Cent= 0 IOpClX= 0 NMat=1 NMatS=1 NMatT=0.
 ***** Axes restored to original set *****
 -------------------------------------------------------------------
 Center     Atomic                   Forces (Hartrees/Bohr)
 Number     Number              X              Y              Z
 -------------------------------------------------------------------
      1        6           0.000630551    0.000758859   -0.000712674
      2        6          -0.001525336    0.000536976   -0.003145044
      3        6          -0.006349874    0.000869368   -0.000342036
      4        8          -0.000889901   -0.003188184    0.001426391
      5        1          -0.000793081   -0.000970405    0.000633142
      6        8          -0.016554891    0.004636515   -0.001027952
      7        1          -0.004269381   -0.002096445   -0.000796903
      8        6          -0.008287030    0.053775293   -0.000950099
      9        6           0.003084974    0.003151660   -0.001255152
     10        1          -0.000117722   -0.000055387    0.000083380
     11        8          -0.001394441   -0.000917878    0.000553929
     12        6          -0.000882763   -0.001851705   -0.000386939
     13        1          -0.000383703   -0.000377365   -0.000132395
     14        8          -0.000042809    0.001579506    0.000794891
     15        1          -0.000258462    0.000467117    0.000187909
     16        1           0.000081558    0.000141429   -0.000038284
     17        1           0.000457925    0.000218642   -0.000031452
     18        1          -0.000307350    0.000897959   -0.000239868
     19        1          -0.000075980   -0.001062239   -0.000324806
     20        6          -0.021397571   -0.025085536   -0.004733206
     21        7           0.047793409    0.020159551    0.010458240
     22        6          -0.008108869   -0.000404618   -0.001939064
     23        7           0.013890897    0.013780019    0.003440511
     24        6           0.012484705   -0.021138099    0.002110358
     25        1           0.007186351    0.010059626    0.001561304
     26        1          -0.011508547   -0.053531621   -0.004703389
     27        1           0.004285337    0.003471479    0.000999813
     28        8          -0.016550272    0.012905108   -0.002509845
     29        8           0.009802274   -0.016729624    0.001019241
 -------------------------------------------------------------------
 Cartesian Forces:  Max     0.053775293 RMS     0.011937485

 GradGradGradGradGradGradGradGradGradGradGradGradGradGradGradGradGradGrad
 Berny optimization.
 FormGI is forming the generalized inverse of G from B-inverse, IUseBI=4.
 Internal  Forces:  Max     0.056777357 RMS     0.009006029
 Search for a local minimum.
 Step number   1 out of a maximum of  173
 All quantities printed in internal units (Hartrees-Bohrs-Radians)
 Mixed Optimization -- RFO/linear search
 Second derivative matrix not updated -- first step.
 ITU=  0
     Eigenvalues ---    0.00337   0.00612   0.01071   0.01250   0.01273
     Eigenvalues ---    0.01529   0.01543   0.01638   0.01705   0.01725
     Eigenvalues ---    0.01857   0.01959   0.02071   0.02214   0.02366
     Eigenvalues ---    0.02404   0.03069   0.03782   0.04227   0.04958
     Eigenvalues ---    0.05021   0.05142   0.05235   0.05565   0.05991
     Eigenvalues ---    0.06118   0.06180   0.06276   0.08141   0.08446
     Eigenvalues ---    0.10229   0.11642   0.13322   0.14001   0.15585
     Eigenvalues ---    0.16000   0.16000   0.16000   0.16000   0.16000
     Eigenvalues ---    0.16000   0.17157   0.19286   0.19660   0.22083
     Eigenvalues ---    0.22364   0.23428   0.24592   0.24974   0.25000
     Eigenvalues ---    0.25000   0.26100   0.27198   0.28532   0.31189
     Eigenvalues ---    0.33168   0.33336   0.33353   0.33681   0.33910
     Eigenvalues ---    0.33939   0.35258   0.35326   0.36539   0.37212
     Eigenvalues ---    0.37769   0.42532   0.42743   0.43636   0.44951
     Eigenvalues ---    0.45433   0.45785   0.46923   0.48438   0.50591
     Eigenvalues ---    0.53663   0.53769   0.53915   0.55006   0.92420
     Eigenvalues ---    0.96844
 RFO step:  Lambda=-3.41917531D-02 EMin= 3.36806120D-03
 Linear search not attempted -- first point.
 Maximum step size (   0.300) exceeded in Quadratic search.
    -- Step size scaled by   0.979
 Iteration  1 RMS(Cart)=  0.06429157 RMS(Int)=  0.00124827
 Iteration  2 RMS(Cart)=  0.00157190 RMS(Int)=  0.00017881
 Iteration  3 RMS(Cart)=  0.00000113 RMS(Int)=  0.00017881
 Iteration  4 RMS(Cart)=  0.00000000 RMS(Int)=  0.00017881
 Variable       Old X    -DE/DX   Delta X   Delta X   Delta X     New X
                                 (Linear)    (Quad)   (Total)
    R1        2.91721   0.00151   0.00000   0.00240   0.00236   2.91957
    R2        2.89603   0.00002   0.00000  -0.00161  -0.00173   2.89430
    R3        2.07483   0.00004   0.00000   0.00009   0.00009   2.07492
    R4        2.64375   0.00120   0.00000   0.00239   0.00239   2.64614
    R5        2.92597   0.00278   0.00000   0.00964   0.00977   2.93574
    R6        2.65333   0.00194   0.00000   0.00393   0.00393   2.65726
    R7        2.07872   0.00011   0.00000   0.00030   0.00030   2.07902
    R8        2.64752   0.01314   0.00000   0.02815   0.02827   2.67579
    R9        2.08465   0.00166   0.00000   0.00443   0.00443   2.08907
   R10        2.76547   0.02817   0.00000   0.06904   0.06904   2.83451
   R11        1.83040  -0.00059   0.00000  -0.00101  -0.00101   1.82939
   R12        2.71293  -0.00311   0.00000  -0.00657  -0.00665   2.70628
   R13        2.59179  -0.01650   0.00000  -0.02787  -0.02748   2.56431
   R14        2.61347   0.05678   0.00000   0.11203   0.11201   2.72548
   R15        2.85654   0.00008   0.00000   0.00022   0.00022   2.85676
   R16        2.08757   0.00043   0.00000   0.00114   0.00114   2.08872
   R17        1.82809  -0.00004   0.00000  -0.00008  -0.00008   1.82801
   R18        2.66893   0.00061   0.00000   0.00128   0.00128   2.67021
   R19        2.07433   0.00015   0.00000   0.00039   0.00039   2.07472
   R20        2.08437   0.00011   0.00000   0.00029   0.00029   2.08466
   R21        1.81826  -0.00032   0.00000  -0.00053  -0.00053   1.81773
   R22        2.55373   0.01135   0.00000   0.01663   0.01704   2.57077
   R23        2.05258   0.00150   0.00000   0.00379   0.00379   2.05636
   R24        2.73975  -0.04001   0.00000  -0.10033  -0.10028   2.63947
   R25        2.05148  -0.05478   0.00000  -0.13849  -0.13849   1.91300
   R26        2.65727  -0.01799   0.00000  -0.03856  -0.03896   2.61832
   R27        2.29930  -0.01498   0.00000  -0.01464  -0.01464   2.28466
   R28        2.58478   0.01711   0.00000   0.03315   0.03272   2.61750
   R29        1.91476   0.00023   0.00000   0.00046   0.00046   1.91521
   R30        2.31837   0.01287   0.00000   0.01315   0.01315   2.33152
    A1        1.79855   0.00181   0.00000   0.00297   0.00289   1.80144
    A2        1.91584  -0.00000   0.00000   0.00139   0.00136   1.91720
    A3        1.99263  -0.00120   0.00000  -0.00360  -0.00353   1.98910
    A4        1.88613  -0.00028   0.00000   0.00225   0.00229   1.88841
    A5        1.97889  -0.00052   0.00000  -0.00109  -0.00110   1.97780
    A6        1.88826   0.00026   0.00000  -0.00139  -0.00140   1.88686
    A7        1.79723   0.00168   0.00000   0.00762   0.00775   1.80497
    A8        1.89575  -0.00156   0.00000  -0.00674  -0.00686   1.88889
    A9        1.95155  -0.00020   0.00000  -0.00190  -0.00196   1.94959
   A10        1.94768   0.00107   0.00000   0.00935   0.00937   1.95705
   A11        1.92817  -0.00051   0.00000   0.00021   0.00016   1.92833
   A12        1.93898  -0.00035   0.00000  -0.00744  -0.00745   1.93153
   A13        1.87787  -0.00511   0.00000  -0.01675  -0.01701   1.86085
   A14        1.88332  -0.00158   0.00000  -0.02476  -0.02505   1.85827
   A15        1.98967   0.00092   0.00000   0.00797   0.00791   1.99759
   A16        1.93242  -0.00087   0.00000  -0.01452  -0.01524   1.91717
   A17        1.90321   0.00640   0.00000   0.03904   0.03894   1.94215
   A18        1.87775   0.00013   0.00000   0.00758   0.00771   1.88546
   A19        1.85172  -0.00104   0.00000  -0.00524  -0.00524   1.84647
   A20        1.85067   0.00268   0.00000   0.01345   0.01355   1.86423
   A21        2.15482   0.00128   0.00000  -0.00155  -0.00175   2.15306
   A22        2.00431   0.01751   0.00000   0.05439   0.05419   2.05850
   A23        2.12312  -0.01877   0.00000  -0.05248  -0.05212   2.07100
   A24        1.81504  -0.00026   0.00000  -0.00224  -0.00232   1.81271
   A25        2.01745   0.00028   0.00000   0.00063   0.00063   2.01808
   A26        1.90435  -0.00031   0.00000  -0.00222  -0.00219   1.90216
   A27        1.89461   0.00017   0.00000   0.00322   0.00329   1.89791
   A28        1.91858   0.00028   0.00000   0.00177   0.00175   1.92032
   A29        1.91068  -0.00014   0.00000  -0.00099  -0.00101   1.90967
   A30        1.86570  -0.00092   0.00000  -0.00464  -0.00464   1.86106
   A31        1.96710  -0.00032   0.00000  -0.00139  -0.00139   1.96571
   A32        1.88572   0.00095   0.00000   0.00647   0.00647   1.89219
   A33        1.91255  -0.00026   0.00000  -0.00229  -0.00230   1.91025
   A34        1.86618  -0.00021   0.00000  -0.00039  -0.00039   1.86579
   A35        1.94313   0.00001   0.00000  -0.00181  -0.00182   1.94131
   A36        1.88600  -0.00013   0.00000  -0.00019  -0.00018   1.88582
   A37        1.87886  -0.00146   0.00000  -0.00734  -0.00734   1.87152
   A38        2.13807   0.00012   0.00000  -0.00231  -0.00152   2.13655
   A39        1.99996   0.01263   0.00000   0.06517   0.06478   2.06473
   A40        2.14515  -0.01275   0.00000  -0.06286  -0.06326   2.08189
   A41        2.09570   0.01913   0.00000   0.05613   0.05657   2.15227
   A42        2.11952  -0.00506   0.00000  -0.00537  -0.00559   2.11393
   A43        2.06795  -0.01406   0.00000  -0.05076  -0.05098   2.01697
   A44        1.97262   0.00251   0.00000  -0.00614  -0.00651   1.96611
   A45        2.21571  -0.01839   0.00000  -0.05600  -0.05582   2.15989
   A46        2.09485   0.01589   0.00000   0.06214   0.06233   2.15718
   A47        2.23108   0.00013   0.00000   0.00128   0.00051   2.23159
   A48        2.03325  -0.00542   0.00000  -0.02769  -0.02730   2.00595
   A49        2.01884   0.00530   0.00000   0.02640   0.02678   2.04563
   A50        2.00569  -0.00311   0.00000   0.00355   0.00309   2.00878
   A51        2.12894   0.01841   0.00000   0.05633   0.05656   2.18549
   A52        2.14855  -0.01530   0.00000  -0.05987  -0.05964   2.08891
    D1        0.23991   0.00077   0.00000   0.01073   0.01077   0.25068
    D2       -1.82715  -0.00061   0.00000  -0.00085  -0.00081  -1.82796
    D3        2.31010   0.00105   0.00000   0.01450   0.01453   2.32462
    D4       -1.76609   0.00018   0.00000   0.00608   0.00611  -1.75998
    D5        2.45004  -0.00120   0.00000  -0.00550  -0.00547   2.44456
    D6        0.30410   0.00046   0.00000   0.00985   0.00987   0.31396
    D7        2.39372   0.00068   0.00000   0.00936   0.00938   2.40310
    D8        0.32666  -0.00070   0.00000  -0.00222  -0.00221   0.32446
    D9       -1.81928   0.00096   0.00000   0.01313   0.01313  -1.80614
   D10       -0.58395  -0.00059   0.00000  -0.00322  -0.00314  -0.58710
   D11       -2.65876  -0.00078   0.00000  -0.00601  -0.00597  -2.66474
   D12        1.46268  -0.00055   0.00000  -0.00337  -0.00333   1.45934
   D13        1.44336   0.00014   0.00000   0.00070   0.00075   1.44411
   D14       -0.63145  -0.00005   0.00000  -0.00209  -0.00208  -0.63354
   D15       -2.79320   0.00019   0.00000   0.00056   0.00056  -2.79264
   D16       -2.74685  -0.00004   0.00000  -0.00018  -0.00013  -2.74698
   D17        1.46153  -0.00023   0.00000  -0.00297  -0.00296   1.45857
   D18       -0.70022   0.00000   0.00000  -0.00032  -0.00032  -0.70054
   D19       -0.36195  -0.00055   0.00000  -0.00013  -0.00011  -0.36206
   D20        1.69098   0.00057   0.00000   0.00036   0.00033   1.69131
   D21       -2.50045   0.00007   0.00000   0.00154   0.00155  -2.49889
   D22        0.18721  -0.00268   0.00000  -0.01878  -0.01855   0.16866
   D23       -1.89855   0.00203   0.00000   0.02120   0.02101  -1.87754
   D24        2.30008   0.00238   0.00000   0.02387   0.02382   2.32391
   D25        2.21756  -0.00308   0.00000  -0.01817  -0.01790   2.19966
   D26        0.13180   0.00163   0.00000   0.02181   0.02165   0.15345
   D27       -1.95275   0.00198   0.00000   0.02448   0.02446  -1.92829
   D28       -1.89924  -0.00314   0.00000  -0.02092  -0.02069  -1.91993
   D29        2.29818   0.00156   0.00000   0.01906   0.01887   2.31706
   D30        0.21364   0.00192   0.00000   0.02173   0.02168   0.23532
   D31        3.06375   0.00076   0.00000   0.00126   0.00128   3.06503
   D32        1.09435  -0.00093   0.00000  -0.00901  -0.00906   1.08529
   D33       -1.06594  -0.00078   0.00000  -0.01063  -0.01058  -1.07653
   D34       -0.57631   0.00193   0.00000   0.01468   0.01447  -0.56183
   D35        1.47790  -0.00349   0.00000  -0.03319  -0.03295   1.44495
   D36       -2.74255   0.00008   0.00000  -0.00857  -0.00860  -2.75115
   D37       -2.08034  -0.00010   0.00000  -0.00981  -0.00994  -2.09028
   D38        1.10720  -0.00013   0.00000  -0.01708  -0.01744   1.08976
   D39        0.01837  -0.00144   0.00000   0.00201   0.00228   0.02066
   D40       -3.07727  -0.00147   0.00000  -0.00525  -0.00522  -3.08249
   D41        2.11515   0.00122   0.00000   0.01114   0.01136   2.12651
   D42       -0.98049   0.00120   0.00000   0.00388   0.00385  -0.97664
   D43        0.73121  -0.00065   0.00000  -0.00427  -0.00422   0.72699
   D44        2.88822  -0.00038   0.00000  -0.00312  -0.00308   2.88514
   D45       -1.30551  -0.00028   0.00000  -0.00132  -0.00125  -1.30676
   D46       -3.10767  -0.00067   0.00000  -0.00789  -0.00768  -3.11535
   D47        0.02934  -0.00071   0.00000  -0.00866  -0.00852   0.02082
   D48       -0.01506   0.00032   0.00000   0.00267   0.00260  -0.01247
   D49        3.12195   0.00028   0.00000   0.00190   0.00176   3.12370
   D50        3.10720   0.00028   0.00000   0.00487   0.00490   3.11210
   D51       -0.03662   0.00029   0.00000   0.00491   0.00489  -0.03173
   D52        0.01064  -0.00030   0.00000  -0.00365  -0.00354   0.00710
   D53       -3.13318  -0.00030   0.00000  -0.00361  -0.00354  -3.13673
   D54        0.98615   0.00032   0.00000   0.00452   0.00449   0.99064
   D55       -1.07191   0.00015   0.00000   0.00164   0.00161  -1.07029
   D56       -3.12288  -0.00009   0.00000  -0.00057  -0.00059  -3.12347
   D57       -1.04422   0.00036   0.00000   0.00472   0.00474  -1.03948
   D58       -3.10228   0.00019   0.00000   0.00184   0.00186  -3.10042
   D59        1.12993  -0.00005   0.00000  -0.00037  -0.00034   1.12959
   D60       -3.13860  -0.00000   0.00000   0.00122   0.00123  -3.13738
   D61        1.08653  -0.00017   0.00000  -0.00166  -0.00166   1.08487
   D62       -0.96445  -0.00041   0.00000  -0.00386  -0.00386  -0.96831
   D63        1.07126  -0.00088   0.00000  -0.01218  -0.01218   1.05908
   D64        3.14077  -0.00003   0.00000  -0.00528  -0.00529   3.13548
   D65       -1.08604  -0.00031   0.00000  -0.00674  -0.00674  -1.09278
   D66        0.00818   0.00010   0.00000   0.00103   0.00102   0.00921
   D67       -3.13984   0.00008   0.00000   0.00037   0.00031  -3.13953
   D68       -3.12844   0.00007   0.00000   0.00151   0.00153  -3.12691
   D69        0.00672   0.00005   0.00000   0.00085   0.00082   0.00754
   D70        0.00174  -0.00004   0.00000  -0.00211  -0.00215  -0.00041
   D71       -3.14142   0.00006   0.00000   0.00033   0.00021  -3.14121
   D72       -3.13361  -0.00005   0.00000  -0.00162  -0.00162  -3.13522
   D73        0.00642   0.00005   0.00000   0.00082   0.00074   0.00716
   D74       -0.00579   0.00005   0.00000   0.00090   0.00088  -0.00491
   D75       -3.14131   0.00005   0.00000   0.00161   0.00163  -3.13968
   D76        3.13725  -0.00001   0.00000  -0.00124  -0.00136   3.13589
   D77        0.00173  -0.00001   0.00000  -0.00053  -0.00061   0.00112
   D78       -0.00020   0.00009   0.00000   0.00182   0.00181   0.00161
   D79       -3.13953   0.00004   0.00000   0.00161   0.00166  -3.13787
   D80        3.13536   0.00006   0.00000   0.00095   0.00089   3.13625
   D81       -0.00397   0.00001   0.00000   0.00074   0.00074  -0.00323
         Item               Value     Threshold  Converged?
 Maximum Force            0.056777     0.000450     NO 
 RMS     Force            0.009006     0.000300     NO 
 Maximum Displacement     0.355280     0.001800     NO 
 RMS     Displacement     0.064301     0.001200     NO 
 Predicted change in Energy=-1.875161D-02
 GradGradGradGradGradGradGradGradGradGradGradGradGradGradGradGradGradGrad

                          Input orientation:                          
 ---------------------------------------------------------------------
 Center     Atomic      Atomic             Coordinates (Angstroms)
 Number     Number       Type             X           Y           Z
 ---------------------------------------------------------------------
      1          6           0       -2.453332   -0.480516    0.619220
      2          6           0       -1.090546   -1.182921    0.428515
      3          6           0       -0.380871   -0.308401   -0.641540
      4          8           0       -1.330062   -2.490502   -0.029907
      5          1           0       -0.507170   -1.199151    1.361137
      6          8           0       -1.173464    0.853422   -0.805626
      7          1           0       -0.379842   -0.897240   -1.577154
      8          6           0        1.039688    0.043730   -0.313070
      9          6           0       -2.533262    0.461663   -0.585647
     10          1           0       -2.433488    0.130285    1.531433
     11          8           0       -3.539165   -1.360209    0.707975
     12          6           0       -3.371135    1.704548   -0.389317
     13          1           0       -2.910736   -0.101859   -1.458370
     14          8           0       -2.941974    2.481397    0.710199
     15          1           0       -4.403884    1.396960   -0.179102
     16          1           0       -3.373591    2.296692   -1.320071
     17          1           0       -3.254139   -2.193165    0.307102
     18          1           0       -0.457806   -2.872565   -0.204152
     19          1           0       -2.035106    2.748940    0.533371
     20          6           0        1.478452    1.319941   -0.171120
     21          7           0        2.778147    1.618594    0.097696
     22          6           0        3.774193    0.649892    0.240580
     23          7           0        3.292043   -0.639013    0.079290
     24          6           0        1.991402   -1.032789   -0.188741
     25          1           0        0.758678    2.128381   -0.282871
     26          1           0        3.083825    2.578059    0.201479
     27          1           0        3.986640   -1.370443    0.177791
     28          8           0        4.931212    0.906306    0.479780
     29          8           0        1.726886   -2.232754   -0.299866
 ---------------------------------------------------------------------
                    Distance matrix (angstroms):
                    1          2          3          4          5
     1  C    0.000000
     2  C    1.544968   0.000000
     3  C    2.431919   1.553525   0.000000
     4  O    2.392309   1.406160   2.456954   0.000000
     5  H    2.203276   1.100170   2.195473   2.068754   0.000000
     6  O    2.334017   2.382577   1.415966   3.436290   3.058082
     7  H    3.049111   2.146957   1.105490   2.415652   2.956504
     8  C    3.653106   2.567590   1.499959   3.481125   2.596245
     9  C    1.531598   2.411351   2.286681   3.236018   3.263943
    10  H    1.098001   2.178172   3.021174   3.244049   2.346721
    11  O    1.400275   2.470884   3.591979   2.588854   3.105730
    12  C    2.575657   3.769272   3.613482   4.679059   4.438226
    13  H    2.160781   2.835864   2.666475   3.200726   3.864039
    14  O    3.003328   4.115138   4.021122   5.278806   4.460765
    15  H    2.822568   4.243018   4.393944   4.958125   4.929149
    16  H    3.510073   4.514151   4.025331   5.362626   5.256060
    17  H    1.916214   2.390914   3.564818   1.975869   3.105623
    18  H    3.222106   1.911943   2.602339   0.968073   2.291917
    19  H    3.257555   4.045086   3.669365   5.316589   4.313607
    20  C    4.396044   3.636431   2.515924   4.735733   3.554761
    21  N    5.660973   4.787976   3.773483   5.811913   4.508800
    22  C    6.340603   5.201942   4.354425   5.999055   4.796318
    23  N    5.772866   4.429998   3.757553   4.980341   4.048568
    24  C    4.551205   3.146736   2.521398   3.630741   2.944938
    25  H    4.235224   3.858811   2.713876   5.075520   3.921428
    26  H    6.339518   5.623334   4.587641   6.725046   5.339229
    27  H    6.516139   5.086830   4.568850   5.437370   4.650158
    28  O    7.514932   6.374093   5.563371   7.141543   5.897943
    29  O    4.624854   3.093640   2.874459   3.079650   2.969557
                    6          7          8          9         10
     6  O    0.000000
     7  H    2.071210   0.000000
     8  C    2.407541   2.120943   0.000000
     9  C    1.432102   2.732567   3.607622   0.000000
[...]
 6,0.00030121,0.00643930,0.00082391,-0.00126632,0.00011834,-0.00037799,
 -0.00025305,-0.01999098,-0.01033376,-0.00134582,0.03527282,0.01838339,
 0.00156656,-0.15003910,-0.00454519,-0.01982017,0.73727476,0.00020154,-
 0.00003704,-0.00045890,0.00048235,-0.00399071,0.00114097,0.00031613,-0
 .00380508,0.00122134,-0.00629676,0.00290927,0.00024732,0.00007639,0.00
 037033,-0.00004500,0.00219198,0.00057700,-0.00026537,0.00047724,0.0001
 6207,0.00043462,0.01922468,0.03157982,-0.00080762,-0.00030198,-0.00047
 308,0.00033270,0.00007489,0.00000226,0.00005464,-0.00038507,0.00058926
 ,-0.00015141,0.00016741,-0.00005852,-0.00001636,0.00012164,0.00008085,
 -0.00005957,-0.00004515,0.00031387,0.00002470,0.00001436,-0.00005008,-
 0.00002481,-0.00001079,0.00008295,-0.00001061,0.00066008,-0.00007769,0
 .00038631,0.00868214,0.00051251,-0.00154860,-0.00000302,-0.00024855,-0
 .00000959,-0.02479843,-0.01572096,-0.00135409,0.02460674,-0.05535733,0
 .02047598,-0.04641176,-0.26095140,0.03619850,-0.03292005,0.75367518,-0
 .00005208,0.00009039,0.00006220,-0.00034114,-0.00025396,-0.00023953,0.
 00033505,0.00310262,0.00235841,-0.00005564,-0.00005256,-0.00009112,-0.
 00006359,0.00000747,-0.00002555,-0.00141866,-0.00014718,0.00002645,0.0
 0047798,-0.00008874,-0.00006404,-0.01514347,-0.00243188,0.00687593,0.0
 0016067,0.00011269,-0.00030060,-0.00004694,-0.00000394,0.00000534,-0.0
 0000440,-0.00007275,0.00001537,-0.00008891,-0.00006792,-0.00009696,-0.
 00013166,0.00001787,0.00002752,0.00003958,0.00004068,0.00014588,-0.000
 00739,0.00002184,0.00002951,0.00001631,-0.00001222,0.00001267,-0.00001
 353,0.00003367,-0.00001698,0.00013043,0.00041265,0.00055157,0.00000787
 ,-0.00002763,-0.00012386,0.00176939,0.00131733,0.00019489,-0.00015733,
 0.01908867,0.00439221,-0.00896947,0.04677363,-0.07070644,0.15186587,-0
 .17421755,0.14127836,-0.00034288,0.00027302,-0.00031856,-0.00109585,0.
 00212882,-0.00040248,-0.01993969,0.02076670,-0.00894577,0.00105575,0.0
 0000751,0.00000291,-0.00010171,0.00008888,0.00043975,-0.00350733,-0.00
 174404,0.00033040,-0.00043558,0.00021166,-0.00087656,-0.18219653,0.049
 82123,-0.03518805,-0.00113409,0.00096672,-0.00099118,0.00020408,0.0000
 0811,-0.00000839,0.00080825,0.00007101,0.00035195,-0.00031474,0.000095
 69,-0.00016917,-0.00010916,-0.00003791,0.00017356,0.00035323,-0.000402
 85,-0.00006304,0.00010542,0.00005531,0.00000807,-0.00005928,-0.0000600
 6,0.00003903,-0.00064195,-0.00017719,-0.00023250,-0.00251522,-0.005451
 98,0.00118960,-0.00041685,0.00038219,0.00030878,0.05921163,0.01787721,
 0.00712299,-0.04695571,0.01632632,-0.01309116,0.00408648,-0.08967716,0
 .02551502,-0.26096369,0.01237966,-0.04562142,0.59544962,-0.00073800,0.
 00055864,0.00154599,-0.00451419,0.01354018,-0.00349183,0.00550114,0.01
 615904,-0.00062955,0.01935115,-0.00943163,0.00006016,-0.00017692,-0.00
 093345,-0.00034551,-0.00831120,-0.00417274,0.00061575,-0.00299314,-0.0
 0160112,-0.00222500,0.06373157,-0.14418807,0.02928749,0.00235271,0.001
 20720,-0.00118771,-0.00044834,-0.00013266,-0.00009186,0.00078836,-0.00
 242924,0.00035055,-0.00034128,-0.00008207,0.00036225,-0.00069327,-0.00
 018574,0.00010162,-0.00033302,-0.00060055,0.00000278,-0.00021155,0.000
 17735,0.00009993,0.00010238,-0.00024732,-0.00006379,-0.00196970,0.0004
 5690,-0.00120247,-0.02559399,-0.00511347,0.00429138,0.00087534,0.00017
 838,-0.00036912,-0.00227084,-0.04988508,0.01294465,0.02358197,0.002847
 21,0.00336443,-0.03618825,0.00570249,-0.01187042,-0.02539864,-0.134595
 95,0.01432845,0.06852446,0.89469990,0.00024958,-0.00021349,-0.00032812
 ,0.00057504,-0.00222339,0.00178240,-0.00629486,0.00149782,-0.00153406,
 -0.00357845,0.00214015,-0.00017237,0.00017358,0.00000554,-0.00012492,0
 .00197883,-0.00010798,0.00047422,0.00056156,0.00046912,0.00060179,-0.0
 3805094,0.02544757,-0.09734906,-0.00086687,0.00020177,0.00094206,0.000
 11068,0.00002007,-0.00002368,-0.00015606,0.00048150,-0.00028134,-0.000
 11717,0.00000852,0.00001966,0.00036805,0.00008796,-0.00006859,0.000111
 28,0.00006320,-0.00019380,0.00005308,0.00000691,-0.00002545,-0.0000407
 9,0.00008293,-0.00000438,0.00038530,-0.00010367,0.00031004,0.00502438,
 0.00112595,-0.00094285,-0.00032459,0.00007417,0.00030447,0.01224390,0.
 01719284,0.00158347,-0.01440380,0.00149041,-0.00824114,0.01219516,-0.0
 2328469,-0.00586247,-0.03612786,0.02226302,-0.06664654,0.06337827,-0.1
 6159693,0.25972082,0.00000607,-0.00027050,0.00017109,-0.00023176,0.000
 17211,-0.00010223,0.00005971,-0.00012732,0.00110588,-0.00027496,0.0003
 3127,-0.00018242,0.00003611,-0.00001759,-0.00000563,-0.00234221,-0.001
 60526,-0.00065534,0.00011108,0.00045200,-0.00000719,0.01306823,-0.0072
 5083,0.00286234,-0.00111523,0.00012923,0.00030858,-0.00006968,0.000067
 76,-0.00006411,-0.00004355,0.00022244,-0.00001625,-0.00002826,-0.00006
 658,0.00011160,0.00020794,0.00002234,0.00000192,0.00006821,0.00001625,
 -0.00026947,0.00004210,0.00001246,-0.00007157,-0.00008559,0.00010782,-
 0.00004184,0.00006977,-0.00001540,0.00001960,0.00038227,0.00003146,-0.
 00005850,-0.00002643,0.00000059,0.00052221,-0.15334879,0.12580562,-0.0
 5749529,-0.02047561,0.02382215,-0.01099944,-0.00119868,-0.00596485,0.0
 0009126,0.00085454,0.00051014,0.00020700,-0.00201635,-0.00199139,-0.00
 246121,0.16745086,0.00020673,-0.00010071,-0.00018050,0.00025443,-0.000
 24293,0.00022280,0.00245467,-0.00101011,-0.00068340,-0.00025242,0.0003
 2814,-0.00008360,0.00002375,0.00000294,0.00002021,0.00095419,0.0005941
 4,-0.00047798,-0.00040019,-0.00007228,0.00001485,0.01664931,-0.0129728
 5,0.00943612,-0.00086038,0.00055657,0.00012571,0.00005239,0.00007922,-
 0.00005649,0.00001480,0.00015178,0.00001789,0.00001182,0.00019058,0.00
 001946,0.00016895,0.00002354,-0.00000394,-0.00001601,-0.00021799,-0.00
 011324,0.00002304,-0.00005479,-0.00001693,0.00002770,-0.00003395,0.000
 03561,0.00003099,-0.00002855,0.00001585,0.00038442,0.00003847,-0.00004
 615,-0.00009180,0.00027316,0.00013634,0.13090840,-0.22284159,0.0753767
 8,-0.00996131,0.01104796,-0.00430645,-0.00197128,-0.00008410,0.0005328
 7,-0.00014074,0.00035319,-0.00024927,-0.00463392,-0.00287384,0.0023356
 3,-0.13479163,0.22746709,0.00014783,0.00009266,-0.00032030,0.00080089,
 0.00021528,0.00066138,0.00083424,-0.00100616,-0.00484194,0.00000770,-0
 .00000745,-0.00011380,0.00002496,0.00002187,-0.00002100,-0.00056495,-0
 .00057626,-0.00066891,-0.00096320,-0.00024413,-0.00002299,-0.00345317,
 0.00364690,0.00743540,-0.00012351,-0.00002929,-0.00019819,0.00010399,0
 .00000793,0.00002110,-0.00002822,-0.00001139,0.00002238,0.00029427,0.0
 0005552,0.00042263,-0.00007406,-0.00004977,-0.00000687,-0.00033210,-0.
 00018053,-0.00023355,-0.00004600,-0.00002751,-0.00005554,0.00000250,0.
 00003272,-0.00004179,0.00000902,0.00000491,-0.00000028,-0.00000235,0.0
 0004154,0.00007566,0.00052455,0.00017994,-0.00023728,-0.05962384,0.074
 68508,-0.07442021,-0.00236044,0.00332235,0.00152847,-0.00066153,-0.000
 16178,0.00383040,0.00026021,-0.00022473,-0.00052191,-0.00154828,0.0026
 1389,0.01014488,0.06611789,-0.08128442,0.06217638,-0.00001121,-0.00005
 795,0.00006950,-0.00011184,0.00009268,-0.00028507,0.00068169,-0.001476
 64,0.00004238,0.00009197,-0.00005408,0.00005923,0.00000875,-0.00000174
 ,0.00003402,0.00012655,0.00032318,0.00006069,-0.00036168,-0.00003866,-
 0.00002260,-0.00536822,0.00118455,-0.00221465,0.00003551,0.00000923,-0
 .00002362,-0.00003749,0.00000652,-0.00001160,-0.00002624,0.00002437,0.
 00001861,-0.00004878,-0.00007060,-0.00005241,-0.00000904,0.00000165,0.
 00000316,0.00005100,0.00010916,0.00005197,0.00001143,0.00001475,0.0000
 0789,-0.00001472,0.00001688,-0.00000542,0.00000743,0.00000969,-0.00001
 178,-0.00015312,0.00000655,-0.00000592,-0.00005441,-0.00012585,-0.0000
 0020,-0.00565549,-0.03174391,0.00784373,-0.10743970,-0.11952020,0.0075
 5955,0.02005191,0.02570361,-0.00169425,-0.00454651,0.00383564,-0.00264
 667,-0.00159143,-0.00005514,-0.00019818,0.00019449,0.00039026,0.000322
 75,0.10505152,-0.00003318,0.00003450,-0.00002997,-0.00008944,-0.000104
 45,0.00015743,-0.00026304,0.00057964,0.00038453,0.00023478,0.00003620,
 -0.00005025,-0.00002749,0.00000044,-0.00000059,0.00047891,-0.00023613,
 -0.00003493,0.00024713,-0.00000170,0.00004779,0.00007210,0.00420609,-0
 .00038568,-0.00027373,0.00001838,0.00005263,0.00004999,0.00000161,-0.0
 0000875,0.00015976,0.00001693,0.00001227,0.00003448,0.00010730,0.00002
 477,0.00004719,0.00000156,0.00001151,0.00000962,-0.00018498,-0.0000616
 0,0.00000867,-0.00001625,-0.00001734,-0.00000263,-0.00002427,0.0000185
 7,-0.00009147,-0.00003261,-0.00001252,-0.00028515,-0.00008755,0.000073
 25,-0.00001799,0.00018052,0.00004323,-0.00165515,-0.00001117,-0.001837
 71,-0.11690443,-0.41080582,0.07091900,-0.00959286,-0.01971356,0.002468
 61,0.00335058,-0.00107289,0.00184268,0.00216655,-0.00173436,0.00072379
 ,0.00040048,0.00079628,-0.00053477,0.12414449,0.42467841,-0.00002310,-
 0.00000169,0.00022675,-0.00054454,0.00015588,-0.00027902,-0.00032350,0
 .00016619,0.00228251,0.00004559,-0.00012378,-0.00003060,0.00001850,-0.
 00001298,-0.00004703,-0.00000309,0.00000861,-0.00025153,0.00038293,0.0
 0003125,0.00003026,-0.00179984,-0.00000583,0.00265792,-0.00003506,-0.0
 0001104,0.00005452,-0.00005471,0.00001946,-0.00003462,-0.00003054,-0.0
 0005781,-0.00009060,0.00005317,-0.00000817,0.00012738,-0.00000969,-0.0
 0000295,-0.00001527,-0.00008948,-0.00003371,-0.00013281,-0.00000862,-0
 .00000115,-0.00001252,-0.00000547,0.00002767,-0.00001557,0.00002490,0.
 00001700,0.00002103,-0.00002834,0.00002964,-0.00000876,0.00006836,0.00
 004705,0.00008110,0.00056680,-0.00872211,-0.00411490,0.00686185,0.0709
 3244,-0.02487443,0.00684540,0.00966543,-0.00159502,-0.00238896,0.00199
 476,0.00260348,-0.00081283,0.00026329,-0.00089308,0.00034178,-0.000547
 01,-0.00148665,-0.01000697,-0.07175249,0.02812604,-0.00004081,0.000016
 65,0.00001092,-0.00003164,0.00033484,-0.00011410,0.00030405,0.00146404
 ,-0.00023125,0.00064354,-0.00022494,-0.00001660,-0.00002897,-0.0000241
 8,0.00003167,-0.00049709,-0.00011634,0.00003499,-0.00001439,-0.0000673
 8,-0.00004689,-0.00429711,-0.00437570,-0.00086831,0.00001768,0.0001208
 1,-0.00010793,-0.00000090,-0.00000618,0.00000058,0.00008684,-0.0000311
 2,0.00003979,-0.00006132,-0.00001887,-0.00003285,-0.00003027,-0.000004
 42,0.00001955,0.00004157,-0.00001938,0.00003335,0.00000613,0.00001461,
 0.00000736,-0.00000234,-0.00000883,0.00000441,-0.00008948,-0.00000480,
 -0.00004581,-0.00080937,-0.00011264,0.00018424,-0.00002768,0.00001426,
 -0.00001219,-0.00086518,-0.00088410,0.00016089,-0.00039849,-0.00489854
 ,0.00014964,0.01895320,-0.00665454,0.00602993,-0.23323867,0.16936989,-
 0.08849743,-0.01835666,0.02709889,-0.01105419,-0.00004239,0.00006043,0
 .00005893,0.00092610,-0.00062205,0.00012359,0.23610696,0.00002435,0.00
 004314,0.00005779,0.00001040,0.00023556,-0.00010427,0.00007697,0.00069
 812,0.00002051,0.00009896,-0.00020442,0.00002792,-0.00000089,-0.000028
 39,-0.00001041,-0.00058498,0.00000111,-0.00002837,-0.00002940,-0.00001
 829,-0.00004139,-0.00346563,-0.00010476,0.00034076,0.00016032,0.000055
 12,-0.00008698,-0.00002552,-0.00000454,-0.00000289,-0.00006536,-0.0000
 9052,-0.00003134,-0.00001271,-0.00002876,0.00001581,-0.00004848,-0.000
 00211,-0.00000152,-0.00003360,0.00002240,0.00000314,-0.00001329,0.0000
 0953,0.00001203,0.00000608,0.00000125,-0.00000705,0.00001353,0.0000396
 9,-0.00000118,-0.00006465,0.00009059,0.00001831,0.00003389,-0.00003021
 ,-0.00001655,-0.00098657,-0.00015741,-0.00036078,-0.00435111,-0.004499
 07,0.00115330,0.02644729,-0.01799283,0.01004525,0.16608420,-0.24630678
 ,0.09243086,-0.00427099,0.01724340,-0.00493730,0.00010257,0.00001654,-
 0.00009363,0.00112514,-0.00051025,0.00056331,-0.18090612,0.25075951,0.
 00000360,0.00000953,0.00000162,0.00001488,0.00005306,0.00008064,-0.000
 05397,0.00016288,0.00036050,0.00021305,-0.00000420,-0.00008675,0.00000
 934,-0.00003741,-0.00002012,0.00002865,0.00001922,-0.00007075,-0.00003
 922,-0.00000826,-0.00002043,-0.00090635,0.00038740,0.00417311,-0.00004
 569,-0.00002048,-0.00004932,0.00001672,-0.00000495,-0.00000629,0.00002
 088,-0.00001605,-0.00003002,0.00003235,0.00001807,0.00003248,-0.000016
 88,-0.00000073,0.00000466,-0.00001721,-0.00001633,-0.00005479,0.000002
 90,-0.00000683,-0.00000533,-0.00000514,0.00000297,-0.00000590,-0.00002
 512,-0.00000208,0.00001196,-0.00028146,-0.00008228,0.00007999,-0.00000
 272,0.00000661,0.00003657,0.00022654,-0.00028165,-0.00064801,-0.000155
 85,0.00085882,0.00397709,-0.00205383,0.00209360,-0.00181305,-0.0881621
 5,0.09406715,-0.06057559,-0.00303738,0.00145390,0.00009964,0.00007251,
 -0.00010180,-0.00040236,-0.00024257,0.00018117,0.00082979,0.09235649,-
 0.09691219,0.06120026,0.00024525,0.00004971,0.00064573,-0.00025753,0.0
 0104133,-0.00173789,0.00151558,-0.00186947,0.00087926,-0.00125280,-0.0
 0073654,0.00058919,0.00014485,0.00001408,-0.00004185,-0.00273207,0.000
 52288,0.00013688,-0.00100155,0.00012032,-0.00007454,-0.00116441,-0.000
 00518,0.00079591,0.00175359,-0.00010600,-0.00029052,-0.00038277,-0.000
 00136,-0.00002594,-0.00095803,-0.00052339,-0.00026132,-0.00002153,-0.0
 0032713,0.00000420,-0.00030551,0.00000381,-0.00008227,-0.00028781,0.00
 054653,0.00024256,-0.00010843,0.00004081,0.00009878,0.00007796,0.00007
 017,-0.00004900,0.00049079,0.00029756,0.00007281,0.00160090,0.00065190
 ,-0.00059064,0.00030055,-0.00049854,-0.00034596,0.00390744,0.00594283,
 -0.00170274,-0.07790258,0.01495605,-0.02458756,-0.64724184,-0.14156253
 ,-0.08916703,-0.04158151,-0.04696147,-0.00269079,0.00887315,0.00353046
 ,-0.00064476,-0.00181612,-0.00083283,-0.00015254,-0.00234355,-0.001460
 48,0.00057268,-0.00349661,-0.00084330,0.00040311,0.76801160,0.00009496
 ,0.00001532,-0.00008788,0.00032330,-0.00067129,0.00011977,0.00052997,0
 .00071587,-0.00011250,-0.00126033,0.00053549,0.00008778,0.00001372,0.0
 0005016,0.00001848,-0.00063868,0.00030433,-0.00014221,0.00012867,0.000
 04873,0.00010311,-0.00237328,0.00776433,-0.00269218,0.00018340,0.00003
 957,-0.00008708,-0.00001533,-0.00000810,0.00001922,-0.00018476,0.00008
 797,-0.00004666,-0.00003275,-0.00011605,-0.00002640,-0.00005795,0.0000
 1351,-0.00001372,-0.00002075,0.00020273,0.00007097,-0.00000949,0.00001
 264,0.00001900,0.00000495,0.00003434,-0.00001648,0.00019582,0.00000650
 ,0.00008121,0.00172118,0.00013640,-0.00032238,0.00003029,-0.00018259,-
 0.00005526,-0.00930944,-0.00999639,0.00161039,0.04170747,0.02566832,0.
 00792821,-0.14035952,-0.13824475,-0.01717089,-0.07719269,-0.02255169,-
 0.00652452,0.02170392,-0.00363107,0.00688655,0.00114067,0.00029620,0.0
 0007930,-0.00414942,0.00246386,-0.00231960,0.00111336,0.00398425,-0.00
 149188,0.17407474,0.13747551,0.00002692,-0.00000036,0.00012154,-0.0000
 0467,0.00044054,-0.00049031,0.00022264,-0.00076571,-0.00019215,0.00011
 524,-0.00035646,0.00021035,0.00000804,0.00000671,0.00003367,-0.0004696
 6,0.00006864,0.00004786,-0.00031505,0.00008472,-0.00003368,0.00060618,
 -0.00212156,-0.00027435,0.00035960,-0.00002165,-0.00006280,-0.00008216
 ,0.00000569,-0.00000430,-0.00014808,-0.00010661,0.00001299,-0.00003281
 ,-0.00005617,-0.00006688,-0.00005205,-0.00000202,-0.00000905,-0.000011
 10,0.00010379,0.00013092,-0.00001609,0.00000799,0.00002441,0.00001946,
 -0.00000176,0.00000513,0.00005742,0.00005339,-0.00002625,-0.00018237,0
 .00006371,-0.00016511,0.00003725,-0.00008902,-0.00012639,0.00188630,0.
 00463899,0.00418969,-0.03084984,0.00216149,0.01366649,-0.08940802,-0.0
 1739231,-0.09653536,0.00461712,0.00021673,0.02165861,-0.00476944,0.003
 29797,0.00545274,-0.00058693,-0.00026401,-0.00025176,0.00126686,-0.001
 76806,-0.00298154,-0.00026310,-0.00204813,-0.00315035,0.11681660,0.014
 53982,0.05996349,0.00039394,0.00024751,-0.00075223,0.00242468,-0.01014
 243,0.00182154,0.00158603,-0.00234693,0.00106517,-0.02529479,0.0024963
 4,0.00398009,0.00007612,0.00082702,0.00013979,0.00046647,0.00186070,-0
 .00057236,0.00104491,0.00027802,0.00078195,0.02136040,0.01682407,-0.00
 505342,-0.00003452,-0.00034731,0.00029466,0.00010488,-0.00003041,0.000
 07330,-0.00101317,0.00104290,-0.00059276,0.00003958,-0.00022356,-0.000
 15746,0.00006683,0.00012631,-0.00012600,-0.00003781,0.00060171,0.00018
 011,0.00000571,-0.00001735,0.00003650,0.00000843,0.00016102,0.00000087
 ,0.00158631,0.00006530,0.00119830,0.00278440,0.00735683,-0.00353902,-0
 .00013950,-0.00038794,-0.00008975,-0.00923077,0.00286055,-0.00347482,0
 .00692014,-0.00684958,0.00305088,-0.00374259,0.02244287,-0.00748057,-0
 .02951987,-0.08525844,0.01094035,-0.12745291,-0.10320958,0.01691103,0.
 00056424,0.00133622,0.00042444,0.00053507,-0.00008562,0.00025921,0.005
 24329,0.00151893,0.00164452,-0.00406703,-0.00736203,0.00115173,0.15532
 152,0.00037988,0.00004654,-0.00141149,0.00153632,-0.00883995,0.0027788
 3,-0.00585797,-0.00211594,-0.00226956,-0.01505624,0.00986396,0.0002991
 8,0.00011588,0.00082928,0.00029291,0.00261930,0.00268544,-0.00068338,0
 .00175317,0.00085926,0.00112525,-0.00046940,-0.06647778,0.02136661,-0.
 00185016,-0.00033408,0.00051918,0.00034064,0.00005559,0.00012391,-0.00
 045823,0.00175567,-0.00009757,0.00005676,-0.00006738,-0.00029062,0.000
 36326,0.00014196,-0.00005904,0.00025678,0.00049787,0.00005121,0.000137
 76,-0.00007029,-0.00003793,-0.00007676,0.00019247,0.00002778,0.0013991
 5,-0.00040986,0.00083774,0.01873507,-0.00288381,-0.00307869,-0.0005921
 1,-0.00020724,0.00026874,0.01699385,0.01018974,0.00197859,-0.00998331,
 -0.00528464,-0.00089398,0.00500107,0.01063366,0.00028718,-0.05644802,-
 0.04591081,0.00452863,-0.10739887,-0.59093233,0.10986202,-0.00124599,-
 0.00168209,-0.00056805,0.00029584,0.00141430,-0.00032165,-0.00062762,-
 0.00322187,-0.00032725,-0.00613496,-0.00445410,-0.00069632,0.15621487,
 0.69372643,-0.00027051,-0.00013669,0.00038835,-0.00008324,0.00392784,-
 0.00181319,0.00245788,-0.00130241,-0.00199754,0.00862557,-0.00226205,0
 .00376279,-0.00023063,-0.00005300,0.00014277,-0.00125091,-0.00000832,0
 .00065189,-0.00001005,-0.00002542,0.00018373,0.00017809,0.02627680,0.0
 1620995,0.00099002,0.00024461,-0.00029950,-0.00012898,0.00000098,-0.00
 000339,0.00030959,-0.00056276,0.00046715,-0.00010365,-0.00002107,0.000
 00191,-0.00013747,-0.00011922,0.00004647,-0.00003049,-0.00014897,0.000
 13471,-0.00004644,0.00003708,0.00003534,0.00002950,-0.00008601,0.00000
 192,-0.00056772,0.00002284,-0.00064106,-0.00751785,-0.00165847,-0.0049
 7895,0.00016717,0.00005095,-0.00019314,-0.00731685,-0.00116519,0.00223
 026,0.00388520,0.00023266,0.00098131,-0.00344640,0.00294351,0.00575662
 ,0.00500103,0.00013549,0.01917074,0.01721589,0.10808972,-0.09874434,0.
 00108374,0.00012510,-0.00247336,0.00008157,-0.00046659,-0.00017686,0.0
 0204433,-0.00000500,-0.00394925,0.00118763,-0.00045415,-0.00114760,-0.
 02211602,-0.13361223,0.06625227\\0.00000930,-0.00001310,-0.00000461,-0
 .00000106,0.00002943,0.00000059,-0.00002357,0.00000163,-0.00000705,-0.
 00002835,-0.00001810,0.00000423,0.00000425,-0.00000109,-0.00000329,0.0
 0001848,0.00000023,0.00000884,0.00000325,0.00000052,0.00000253,0.00001
 898,-0.00001452,0.00000189,-0.00001575,0.00000946,0.00000773,-0.000004
 09,-0.00000207,-0.00000433,-0.00000295,-0.00000791,0.00000203,0.000005
 06,0.00000554,-0.00002901,-0.00000006,-0.00000144,0.00000264,-0.000001
 69,-0.00000554,0.00001038,0.00000583,0.00000019,0.00000167,-0.00000223
 ,0.00000263,-0.00000217,0.00000509,-0.00000903,0.00000573,0.00001107,0
 .00000593,-0.00000092,-0.00000274,-0.00000037,-0.00000701,-0.00001009,
 -0.00000208,-0.00000310,-0.00000142,0.00000017,-0.00000143,-0.00001254
 ,-0.00000552,0.00000452,0.00001339,0.00000790,-0.00000452,-0.00001008,
 0.00000395,0.00000881,0.00000200,-0.00000069,0.00000031,0.00000365,0.0
 0000703,-0.00000088,-0.00000593,-0.00000296,0.00000287,0.00001075,0.00
 000361,0.00000298,0.00001145,0.00000620,0.00000055\\\@
 The archive entry for this job was punched.


 THE REASON MAN'S BEST FRIEND IS A DOG IS BECAUSE
 HE WAGS HIS TAIL INSTEAD OF HIS TONGUE.
 Job cpu time:       0 days 10 hours 42 minutes 43.7 seconds.
 Elapsed time:       0 days  0 hours 16 minutes 11.9 seconds.
 File lengths (MBytes):  RWF=    632 Int=      0 D2E=      0 Chk=     21 Scr=      1
 Normal termination of Gaussian 16 at Sat Oct 26 08:10:12 2024.
