 Entering Gaussian System, Link 0=g16
 Input=UridineSsllgPBE0aVDZ.gjf
 Output=UridineSsllgPBE0aVDZ.log
 Initial command:
 /sw/contrib/chem-src/g16/c01/g16/l1.exe "/scr/Gau-20818.inp" -scrdir="/scr/"
 Entering Link 1 = /sw/contrib/chem-src/g16/c01/g16/l1.exe PID=     20819.
  
 Copyright (c) 1988-2019, Gaussian, Inc.  All Rights Reserved.
  
 This is part of the Gaussian(R) 16 program.  It is based on
 the Gaussian(R) 09 system (copyright 2009, Gaussian, Inc.),
 the Gaussian(R) 03 system (copyright 2003, Gaussian, Inc.),
 the Gaussian(R) 98 system (copyright 1998, Gaussian, Inc.),
 the Gaussian(R) 94 system (copyright 1995, Gaussian, Inc.),
 the Gaussian 92(TM) system (copyright 1992, Gaussian, Inc.),
 the Gaussian 90(TM) system (copyright 1990, Gaussian, Inc.),
 the Gaussian 88(TM) system (copyright 1988, Gaussian, Inc.),
 the Gaussian 86(TM) system (copyright 1986, Carnegie Mellon
 University), and the Gaussian 82(TM) system (copyright 1983,
 Carnegie Mellon University). Gaussian is a federally registered
 trademark of Gaussian, Inc.
  
 This software contains proprietary and confidential information,
 including trade secrets, belonging to Gaussian, Inc.
  
 This software is provided under written license and may be
 used, copied, transmitted, or stored only in accord with that
 written license.
  
 The following legend is applicable only to US Government
 contracts under FAR:
  
                    RESTRICTED RIGHTS LEGEND
  
 Use, reproduction and disclosure by the US Government is
 subject to restrictions as set forth in subparagraphs (a)
 and (c) of the Commercial Computer Software - Restricted
 Rights clause in FAR 52.227-19.
  
 Gaussian, Inc.
 340 Quinnipiac St., Bldg. 40, Wallingford CT 06492
  
  
 ---------------------------------------------------------------
 Warning -- This program may not be used in any manner that
 competes with the business of Gaussian, Inc. or will provide
 assistance to any competitor of Gaussian, Inc.  The licensee
 of this program is prohibited from giving any competitor of
 Gaussian, Inc. access to this program.  By using this program,
 the user acknowledges that Gaussian, Inc. is engaged in the
 business of creating and licensing software in the field of
 computational chemistry and represents and warrants to the
 licensee that it is not a competitor of Gaussian, Inc. and that
 it will not use this program in any manner prohibited above.
 ---------------------------------------------------------------
  

 Cite this work as:
 Gaussian 16, Revision C.01,
 M. J. Frisch, G. W. Trucks, H. B. Schlegel, G. E. Scuseria, 
 M. A. Robb, J. R. Cheeseman, G. Scalmani, V. Barone, 
 G. A. Petersson, H. Nakatsuji, X. Li, M. Caricato, A. V. Marenich, 
 J. Bloino, B. G. Janesko, R. Gomperts, B. Mennucci, H. P. Hratchian, 
 J. V. Ortiz, A. F. Izmaylov, J. L. Sonnenberg, D. Williams-Young, 
 F. Ding, F. Lipparini, F. Egidi, J. Goings, B. Peng, A. Petrone, 
 T. Henderson, D. Ranasinghe, V. G. Zakrzewski, J. Gao, N. Rega, 
 G. Zheng, W. Liang, M. Hada, M. Ehara, K. Toyota, R. Fukuda, 
 J. Hasegawa, M. Ishida, T. Nakajima, Y. Honda, O. Kitao, H. Nakai, 
 T. Vreven, K. Throssell, J. A. Montgomery, Jr., J. E. Peralta, 
 F. Ogliaro, M. J. Bearpark, J. J. Heyd, E. N. Brothers, K. N. Kudin, 
 V. N. Staroverov, T. A. Keith, R. Kobayashi, J. Normand, 
 K. Raghavachari, A. P. Rendell, J. C. Burant, S. S. Iyengar, 
 J. Tomasi, M. Cossi, J. M. Millam, M. Klene, C. Adamo, R. Cammi, 
 J. W. Ochterski, R. L. Martin, K. Morokuma, O. Farkas, 
 J. B. Foresman, and D. J. Fox, Gaussian, Inc., Wallingford CT, 2019.
 
 ******************************************
 Gaussian 16:  EM64L-G16RevC.01  3-Jul-2019
                17-Oct-2024 
 ******************************************
 %nprocshared=40
 Will use up to   40 processors via shared memory.
 %mem=50gb
 ------------------------------------------------------
 # PBE1PBE/aug-cc-pVDZ opt freq EmpiricalDispersion=GD3
 ------------------------------------------------------
 1/18=20,19=15,26=3,38=1/1,3;
 2/9=110,12=2,17=6,18=5,40=1/2;
 3/5=16,7=10,11=2,25=1,30=1,71=1,74=-13,124=31/1,2,3;
 4//1;
 5/5=2,38=5/2;
 6/7=2,8=2,9=2,10=2,28=1/1;
 7//1,2,3,16;
 1/18=20,19=15,26=3/3(2);
 2/9=110/2;
 99//99;
 2/9=110/2;
 3/5=16,7=10,11=2,25=1,30=1,71=1,74=-13,124=31/1,2,3;
 4/5=5,16=3,69=1/1;
 5/5=2,38=5/2;
 7//1,2,3,16;
 1/18=20,19=15,26=3/3(-5);
 2/9=110/2;
 6/7=2,8=2,9=2,10=2,19=2,28=1/1;
 99/9=1/99;
 ----
 blah
 ----
 Symbolic Z-matrix:
 Charge =  0 Multiplicity = 1
 C                    -3.72101  -1.72554   0.31874 
 C                    -2.24634  -1.97994   0.56266 
 C                    -1.60193  -0.74736  -0.10592 
 O                    -1.89051  -3.24001  -0.01775 
 H                    -2.02291  -2.01071   1.63429 
 O                    -2.54269   0.33803   0.03503 
 H                    -1.44757  -0.93065  -1.1772 
 N                    -0.29439  -0.36809   0.45943 
 C                    -3.84049  -0.20841   0.37518 
 H                    -4.37672  -2.25537   1.01556 
 O                    -4.0584   -2.18193  -1.00317 
 C                    -4.23488   0.31513   1.7577 
 H                    -4.55665   0.16299  -0.3662 
 O                    -3.27896  -0.05804   2.74713 
 H                    -5.2094   -0.08163   2.05811 
 H                    -4.29378   1.40871   1.75295 
 H                    -3.58506  -3.03687  -1.09744 
 H                    -0.90731  -3.26294  -0.05822 
 H                    -2.48429   0.4787    2.57455 
 C                    -0.05939   0.90778   0.94344 
 C                     1.12983   1.28256   1.4198 
 C                     2.23341   0.31328   1.42093 
 N                     1.94159  -0.91091   0.89715 
 C                     0.72975  -1.30695   0.39928 
 H                    -0.87667   1.62244   0.91646 
 H                     1.33273   2.27554   1.79815 
 H                     2.68946  -1.58665   0.8734 
 O                     3.33665   0.60779   1.86257 
 O                     0.58994  -2.44241  -0.05301 
 

 GradGradGradGradGradGradGradGradGradGradGradGradGradGradGradGradGradGrad
 Berny optimization.
 Initialization pass.
                           ----------------------------
                           !    Initial Parameters    !
                           ! (Angstroms and Degrees)  !
 --------------------------                            --------------------------
 ! Name  Definition              Value          Derivative Info.                !
 --------------------------------------------------------------------------------
 ! R1    R(1,2)                  1.5162         estimate D2E/DX2                !
 ! R2    R(1,9)                  1.5229         estimate D2E/DX2                !
 ! R3    R(1,10)                 1.0937         estimate D2E/DX2                !
 ! R4    R(1,11)                 1.4386         estimate D2E/DX2                !
 ! R5    R(2,3)                  1.5432         estimate D2E/DX2                !
 ! R6    R(2,4)                  1.4322         estimate D2E/DX2                !
 ! R7    R(2,5)                  1.0951         estimate D2E/DX2                !
 ! R8    R(3,6)                  1.4433         estimate D2E/DX2                !
 ! R9    R(3,7)                  1.0977         estimate D2E/DX2                !
 ! R10   R(3,8)                  1.4742         estimate D2E/DX2                !
 ! R11   R(4,18)                 0.9843         estimate D2E/DX2                !
 ! R12   R(6,9)                  1.4486         estimate D2E/DX2                !
 ! R13   R(8,20)                 1.3847         estimate D2E/DX2                !
 ! R14   R(8,24)                 1.3907         estimate D2E/DX2                !
 ! R15   R(9,12)                 1.53           estimate D2E/DX2                !
 ! R16   R(9,13)                 1.0957         estimate D2E/DX2                !
 ! R17   R(11,17)                0.9818         estimate D2E/DX2                !
 ! R18   R(12,14)                1.4255         estimate D2E/DX2                !
 ! R19   R(12,15)                1.0942         estimate D2E/DX2                !
 ! R20   R(12,16)                1.0952         estimate D2E/DX2                !
 ! R21   R(14,19)                0.9744         estimate D2E/DX2                !
 ! R22   R(20,21)                1.3348         estimate D2E/DX2                !
 ! R23   R(20,25)                1.086          estimate D2E/DX2                !
 ! R24   R(21,22)                1.4688         estimate D2E/DX2                !
 ! R25   R(21,26)                1.0818         estimate D2E/DX2                !
 ! R26   R(22,23)                1.3631         estimate D2E/DX2                !
 ! R27   R(22,28)                1.2243         estimate D2E/DX2                !
 ! R28   R(23,24)                1.3687         estimate D2E/DX2                !
 ! R29   R(23,27)                1.0082         estimate D2E/DX2                !
 ! R30   R(24,29)                1.2302         estimate D2E/DX2                !
 ! A1    A(2,1,9)              103.7388         estimate D2E/DX2                !
 ! A2    A(2,1,10)             113.5354         estimate D2E/DX2                !
 ! A3    A(2,1,11)             108.8263         estimate D2E/DX2                !
 ! A4    A(9,1,10)             114.3272         estimate D2E/DX2                !
 ! A5    A(9,1,11)             109.3722         estimate D2E/DX2                !
 ! A6    A(10,1,11)            106.9273         estimate D2E/DX2                !
 ! A7    A(1,2,3)              101.6788         estimate D2E/DX2                !
 ! A8    A(1,2,4)              108.909          estimate D2E/DX2                !
 ! A9    A(1,2,5)              111.1357         estimate D2E/DX2                !
 ! A10   A(3,2,4)              115.0486         estimate D2E/DX2                !
 ! A11   A(3,2,5)              111.1738         estimate D2E/DX2                !
 ! A12   A(4,2,5)              108.7326         estimate D2E/DX2                !
 ! A13   A(2,3,6)              106.6283         estimate D2E/DX2                !
 ! A14   A(2,3,7)              110.3743         estimate D2E/DX2                !
 ! A15   A(2,3,8)              114.1875         estimate D2E/DX2                !
 ! A16   A(6,3,7)              108.2121         estimate D2E/DX2                !
 ! A17   A(6,3,8)              110.3173         estimate D2E/DX2                !
 ! A18   A(7,3,8)              107.0071         estimate D2E/DX2                !
 ! A19   A(2,4,18)             106.5784         estimate D2E/DX2                !
 ! A20   A(3,6,9)              108.8572         estimate D2E/DX2                !
 ! A21   A(3,8,20)             121.4432         estimate D2E/DX2                !
 ! A22   A(3,8,24)             117.5757         estimate D2E/DX2                !
 ! A23   A(20,8,24)            120.8106         estimate D2E/DX2                !
 ! A24   A(1,9,6)              107.2656         estimate D2E/DX2                !
 ! A25   A(1,9,12)             113.2408         estimate D2E/DX2                !
 ! A26   A(1,9,13)             111.3399         estimate D2E/DX2                !
 ! A27   A(6,9,12)             108.3016         estimate D2E/DX2                !
 ! A28   A(6,9,13)             107.3873         estimate D2E/DX2                !
 ! A29   A(12,9,13)            109.0829         estimate D2E/DX2                !
 ! A30   A(1,11,17)            104.5616         estimate D2E/DX2                !
 ! A31   A(9,12,14)            111.3919         estimate D2E/DX2                !
 ! A32   A(9,12,15)            110.7055         estimate D2E/DX2                !
 ! A33   A(9,12,16)            110.5861         estimate D2E/DX2                !
 ! A34   A(14,12,15)           108.1651         estimate D2E/DX2                !
 ! A35   A(14,12,16)           107.4861         estimate D2E/DX2                !
 ! A36   A(15,12,16)           108.3827         estimate D2E/DX2                !
 ! A37   A(12,14,19)           106.2474         estimate D2E/DX2                !
 ! A38   A(8,20,21)            122.322          estimate D2E/DX2                !
 ! A39   A(8,20,25)            118.0308         estimate D2E/DX2                !
 ! A40   A(21,20,25)           119.6421         estimate D2E/DX2                !
 ! A41   A(20,21,22)           118.9728         estimate D2E/DX2                !
 ! A42   A(20,21,26)           123.3425         estimate D2E/DX2                !
 ! A43   A(22,21,26)           117.68           estimate D2E/DX2                !
 ! A44   A(21,22,23)           115.5625         estimate D2E/DX2                !
 ! A45   A(21,22,28)           121.2376         estimate D2E/DX2                !
 ! A46   A(23,22,28)           123.1991         estimate D2E/DX2                !
 ! A47   A(22,23,24)           126.0996         estimate D2E/DX2                !
 ! A48   A(22,23,27)           116.8826         estimate D2E/DX2                !
 ! A49   A(24,23,27)           117.0177         estimate D2E/DX2                !
 ! A50   A(8,24,23)            116.1652         estimate D2E/DX2                !
 ! A51   A(8,24,29)            123.734          estimate D2E/DX2                !
 ! A52   A(23,24,29)           120.0954         estimate D2E/DX2                !
 ! D1    D(9,1,2,3)            -33.3145         estimate D2E/DX2                !
 ! D2    D(9,1,2,4)           -155.1719         estimate D2E/DX2                !
 ! D3    D(9,1,2,5)             85.0673         estimate D2E/DX2                !
 ! D4    D(10,1,2,3)          -157.9983         estimate D2E/DX2                !
 ! D5    D(10,1,2,4)            80.1443         estimate D2E/DX2                !
 ! D6    D(10,1,2,5)           -39.6165         estimate D2E/DX2                !
 ! D7    D(11,1,2,3)            83.0533         estimate D2E/DX2                !
 ! D8    D(11,1,2,4)           -38.8041         estimate D2E/DX2                !
 ! D9    D(11,1,2,5)          -158.565          estimate D2E/DX2                !
 ! D10   D(2,1,9,6)             24.9934         estimate D2E/DX2                !
 ! D11   D(2,1,9,12)           -94.436          estimate D2E/DX2                !
 ! D12   D(2,1,9,13)           142.2124         estimate D2E/DX2                !
 ! D13   D(10,1,9,6)           149.1645         estimate D2E/DX2                !
 ! D14   D(10,1,9,12)           29.7351         estimate D2E/DX2                !
 ! D15   D(10,1,9,13)          -93.6165         estimate D2E/DX2                !
 ! D16   D(11,1,9,6)           -90.9899         estimate D2E/DX2                !
 ! D17   D(11,1,9,12)          149.5807         estimate D2E/DX2                !
 ! D18   D(11,1,9,13)           26.2291         estimate D2E/DX2                !
 ! D19   D(2,1,11,17)           42.0068         estimate D2E/DX2                !
 ! D20   D(9,1,11,17)          154.7038         estimate D2E/DX2                !
 ! D21   D(10,1,11,17)         -81.0011         estimate D2E/DX2                !
 ! D22   D(1,2,3,6)             31.2293         estimate D2E/DX2                !
 ! D23   D(1,2,3,7)            -86.0842         estimate D2E/DX2                !
 ! D24   D(1,2,3,8)            153.3286         estimate D2E/DX2                !
 ! D25   D(4,2,3,6)            148.7373         estimate D2E/DX2                !
 ! D26   D(4,2,3,7)             31.4238         estimate D2E/DX2                !
 ! D27   D(4,2,3,8)            -89.1634         estimate D2E/DX2                !
 ! D28   D(5,2,3,6)            -87.1252         estimate D2E/DX2                !
 ! D29   D(5,2,3,7)            155.5613         estimate D2E/DX2                !
 ! D30   D(5,2,3,8)             34.9741         estimate D2E/DX2                !
 ! D31   D(1,2,4,18)           165.1312         estimate D2E/DX2                !
 ! D32   D(3,2,4,18)            51.7856         estimate D2E/DX2                !
 ! D33   D(5,2,4,18)           -73.6283         estimate D2E/DX2                !
 ! D34   D(2,3,6,9)            -16.4604         estimate D2E/DX2                !
 ! D35   D(7,3,6,9)            102.2753         estimate D2E/DX2                !
 ! D36   D(8,3,6,9)           -140.9705         estimate D2E/DX2                !
 ! D37   D(2,3,8,20)          -124.5743         estimate D2E/DX2                !
 ! D38   D(2,3,8,24)            60.1353         estimate D2E/DX2                !
 ! D39   D(6,3,8,20)            -4.5203         estimate D2E/DX2                !
 ! D40   D(6,3,8,24)          -179.8107         estimate D2E/DX2                !
 ! D41   D(7,3,8,20)           112.9804         estimate D2E/DX2                !
 ! D42   D(7,3,8,24)           -62.3099         estimate D2E/DX2                !
 ! D43   D(3,6,9,1)             -5.2476         estimate D2E/DX2                !
 ! D44   D(3,6,9,12)           117.3021         estimate D2E/DX2                !
 ! D45   D(3,6,9,13)          -125.0257         estimate D2E/DX2                !
 ! D46   D(3,8,20,21)         -177.8219         estimate D2E/DX2                !
 ! D47   D(3,8,20,25)            1.3575         estimate D2E/DX2                !
 ! D48   D(24,8,20,21)          -2.6829         estimate D2E/DX2                !
 ! D49   D(24,8,20,25)         176.4965         estimate D2E/DX2                !
 ! D50   D(3,8,24,23)          178.1653         estimate D2E/DX2                !
 ! D51   D(3,8,24,29)           -2.6768         estimate D2E/DX2                !
 ! D52   D(20,8,24,23)           2.8436         estimate D2E/DX2                !
 ! D53   D(20,8,24,29)        -177.9985         estimate D2E/DX2                !
 ! D54   D(1,9,12,14)           59.7033         estimate D2E/DX2                !
 ! D55   D(1,9,12,15)          -60.695          estimate D2E/DX2                !
 ! D56   D(1,9,12,16)          179.1657         estimate D2E/DX2                !
 ! D57   D(6,9,12,14)          -59.1298         estimate D2E/DX2                !
 ! D58   D(6,9,12,15)         -179.5282         estimate D2E/DX2                !
 ! D59   D(6,9,12,16)           60.3326         estimate D2E/DX2                !
 ! D60   D(13,9,12,14)        -175.7116         estimate D2E/DX2                !
 ! D61   D(13,9,12,15)          63.89           estimate D2E/DX2                !
 ! D62   D(13,9,12,16)         -56.2492         estimate D2E/DX2                !
 ! D63   D(9,12,14,19)          71.4876         estimate D2E/DX2                !
 ! D64   D(15,12,14,19)       -166.6302         estimate D2E/DX2                !
 ! D65   D(16,12,14,19)        -49.8            estimate D2E/DX2                !
 ! D66   D(8,20,21,22)           0.5569         estimate D2E/DX2                !
 ! D67   D(8,20,21,26)         179.7501         estimate D2E/DX2                !
 ! D68   D(25,20,21,22)       -178.6097         estimate D2E/DX2                !
 ! D69   D(25,20,21,26)          0.5835         estimate D2E/DX2                !
 ! D70   D(20,21,22,23)          1.185          estimate D2E/DX2                !
 ! D71   D(20,21,22,28)       -179.1237         estimate D2E/DX2                !
 ! D72   D(26,21,22,23)       -178.0539         estimate D2E/DX2                !
 ! D73   D(26,21,22,28)          1.6374         estimate D2E/DX2                !
 ! D74   D(21,22,23,24)         -0.9258         estimate D2E/DX2                !
 ! D75   D(21,22,23,27)        178.972          estimate D2E/DX2                !
 ! D76   D(28,22,23,24)        179.3897         estimate D2E/DX2                !
 ! D77   D(28,22,23,27)         -0.7125         estimate D2E/DX2                !
 ! D78   D(22,23,24,8)          -1.0506         estimate D2E/DX2                !
 ! D79   D(22,23,24,29)        179.7588         estimate D2E/DX2                !
 ! D80   D(27,23,24,8)         179.0517         estimate D2E/DX2                !
 ! D81   D(27,23,24,29)         -0.1389         estimate D2E/DX2                !
 --------------------------------------------------------------------------------
 Trust Radius=3.00D-01 FncErr=1.00D-07 GrdErr=1.00D-06 EigMax=2.50D+02 EigMin=1.00D-04
 Number of steps in this run=    173 maximum allowed number of steps=    174.
 GradGradGradGradGradGradGradGradGradGradGradGradGradGradGradGradGradGrad

                          Input orientation:                          
 ---------------------------------------------------------------------
 Center     Atomic      Atomic             Coordinates (Angstroms)
 Number     Number       Type             X           Y           Z
 ---------------------------------------------------------------------
      1          6           0       -3.721014   -1.725544    0.318736
      2          6           0       -2.246341   -1.979945    0.562661
      3          6           0       -1.601929   -0.747364   -0.105922
      4          8           0       -1.890509   -3.240012   -0.017746
      5          1           0       -2.022913   -2.010715    1.634294
      6          8           0       -2.542695    0.338031    0.035034
      7          1           0       -1.447566   -0.930651   -1.177195
      8          7           0       -0.294388   -0.368090    0.459427
      9          6           0       -3.840489   -0.208413    0.375179
     10          1           0       -4.376718   -2.255367    1.015564
     11          8           0       -4.058401   -2.181925   -1.003172
     12          6           0       -4.234883    0.315126    1.757704
     13          1           0       -4.556653    0.162990   -0.366196
     14          8           0       -3.278959   -0.058041    2.747127
     15          1           0       -5.209397   -0.081629    2.058108
     16          1           0       -4.293775    1.408714    1.752950
     17          1           0       -3.585064   -3.036874   -1.097440
     18          1           0       -0.907306   -3.262937   -0.058225
     19          1           0       -2.484293    0.478697    2.574555
     20          6           0       -0.059386    0.907777    0.943438
     21          6           0        1.129834    1.282561    1.419797
     22          6           0        2.233414    0.313283    1.420929
     23          7           0        1.941589   -0.910907    0.897147
     24          6           0        0.729749   -1.306953    0.399280
     25          1           0       -0.876673    1.622442    0.916463
     26          1           0        1.332731    2.275544    1.798152
     27          1           0        2.689463   -1.586651    0.873402
     28          8           0        3.336654    0.607787    1.862573
     29          8           0        0.589944   -2.442406   -0.053010
 ---------------------------------------------------------------------
                    Distance matrix (angstroms):
                    1          2          3          4          5
     1  C    0.000000
     2  C    1.516205   0.000000
     3  C    2.372275   1.543219   0.000000
     4  O    2.399496   1.432221   2.510846   0.000000
     5  H    2.166925   1.095110   2.191263   2.063477   0.000000
     6  O    2.393170   2.395668   1.443256   3.637378   2.888670
     7  H    2.835177   2.183153   1.097747   2.621769   3.066274
     8  N    3.688393   2.533546   1.474155   3.320126   2.658257
     9  C    1.522874   2.390561   2.352249   3.625935   2.852586
    10  H    1.093723   2.195332   3.351307   2.866791   2.446033
    11  O    1.438595   2.403370   2.982831   2.605833   3.335978
    12  C    2.549318   3.263400   3.396238   4.613818   3.212098
    13  H    2.175771   3.285191   3.102721   4.337068   3.891887
    14  O    2.978769   3.087379   3.380456   4.438159   2.574681
    15  H    2.818360   3.823567   4.259114   5.029867   3.748956
    16  H    3.494080   4.134221   3.917922   5.524645   4.106505
    17  H    1.934845   2.380170   3.187128   2.019534   3.309937
    18  H    3.228410   1.955654   2.610150   0.984303   2.382700
    19  H    3.387753   3.185790   3.076808   4.571804   2.700765
    20  C    4.553257   3.642348   2.494010   4.634764   3.584733
    21  C    5.813068   4.772545   3.729738   5.625182   4.564153
    22  C    6.389590   5.105265   4.262171   5.630492   4.854154
    23  N    5.750067   4.335146   3.686383   4.576761   4.179742
    24  C    4.471129   3.055605   2.450529   3.282740   3.098014
    25  H    4.433572   3.870188   2.680904   5.054114   3.876723
    26  H    6.613450   5.696085   4.623387   6.641395   5.446027
    27  H    6.435927   4.961190   4.481018   4.950141   4.792210
    28  O    7.592005   6.289353   5.486439   6.757543   5.969391
    29  O    4.385938   2.938952   2.771331   2.605776   3.140124
                    6          7          8          9         10
     6  O    0.000000
     7  H    2.068419   0.000000
     8  N    2.394494   2.079622   0.000000
     9  C    1.448644   2.942375   3.550694   0.000000
    10  H    3.324273   3.891401   4.531724   2.210804   0.000000
    11  O    3.118560   2.900419   4.426849   2.417041   2.044998
    12  C    2.414875   4.234941   4.204737   1.530038   2.679239
    13  H    2.060984   3.394141   4.373855   1.095658   2.791072
    14  O    2.838029   4.417664   3.773244   2.442144   3.005266
    15  H    3.373462   5.033825   5.176404   2.173070   2.550566
    16  H    2.676543   4.707365   4.563478   2.172285   3.738463
    17  H    3.709314   3.001905   4.513844   3.199069   2.387940
    18  H    3.956029   2.642638   3.003960   4.256938   3.768958
    19  H    2.544084   4.139649   3.160142   2.673694   3.672442
    20  C    2.704927   3.131125   1.384676   3.983156   5.352573
    21  C    4.036976   4.276174   2.382303   5.293235   6.557626
    22  C    4.973181   4.674103   2.789003   6.185310   7.103248
    23  N    4.734120   3.973621   2.342188   5.847938   6.460852
    24  C    3.680697   2.714328   1.390661   4.700473   5.230230
    25  H    2.280846   3.350762   2.123713   3.525510   5.224704
    26  H    4.677763   5.182898   3.380607   5.912453   7.330717
    27  H    5.637618   4.663721   3.249559   6.692386   7.099176
    28  O    6.162744   5.873308   4.013181   7.374951   8.271105
    29  O    4.189511   2.775004   2.312450   4.980242   5.083756
                   11         12         13         14         15
    11  O    0.000000
    12  C    3.726775   0.000000
    13  H    2.480448   2.153516   0.000000
    14  O    4.379859   1.425483   3.372556   0.000000
    15  H    3.886834   1.094228   2.522531   2.049852   0.000000
    16  H    4.532582   1.095183   2.472188   2.041962   1.775558
    17  H    0.981770   4.450845   3.423132   4.873176   4.618378
    18  H    3.462789   5.212763   5.014933   4.875048   5.753918
    19  H    4.728304   1.938702   3.611421   0.974352   2.829642
    20  C    5.415503   4.295234   4.742917   3.814675   5.361346
    21  C    6.692625   5.461713   6.064598   4.795464   6.515697
    22  C    7.189525   6.477058   7.022921   5.681808   7.480467
    23  N    6.420793   6.355512   6.706448   5.603921   7.291923
    24  C    5.065454   5.396668   5.540102   4.810604   6.287017
    25  H    5.318045   3.700586   4.161426   3.456347   4.793716
    26  H    7.535301   5.902813   6.620584   5.254889   6.958684
    27  H    7.029193   7.235006   7.556722   6.439686   8.127768
    28  O    8.407249   7.577917   8.213985   6.707615   8.576043
    29  O    4.751607   5.844795   5.776992   5.338012   6.607757
                   16         17         18         19         20
    16  H    0.000000
    17  H    5.328250   0.000000
    18  H    6.047549   2.881225   0.000000
    19  H    2.194126   5.201392   4.839240   0.000000
    20  C    4.340080   5.670613   4.372316   2.953782   0.000000
    21  C    5.435296   6.871991   5.195772   3.878348   1.334776
    22  C    6.626794   7.170803   4.984112   4.859524   2.416268
    23  N    6.707668   6.248360   3.815886   4.932863   2.704377
    24  C    5.868821   4.883688   2.591357   4.272053   2.413270
    25  H    3.524482   5.753296   4.981755   2.577181   1.086017
    26  H    5.693067   7.796855   6.256091   4.289654   2.130567
    27  H    7.649276   6.734764   4.076102   5.824718   3.712579
    28  O    7.673132   8.363935   6.056663   5.865749   3.530990
    29  O    6.476367   4.344527   1.707354   4.988775   3.555033
                   21         22         23         24         25
    21  C    0.000000
    22  C    1.468805   0.000000
    23  N    2.396542   1.363140   0.000000
    24  C    2.811958   2.435147   1.368679   0.000000
    25  H    2.096411   3.411895   3.789569   3.380744   0.000000
    26  H    1.081821   2.191802   3.366896   3.892906   2.466857
    27  H    3.311097   2.029167   1.008220   2.035559   4.797651
    28  O    2.349771   1.224304   2.276990   3.550128   4.435851
    29  O    4.041784   3.530908   2.252828   1.230189   4.428751
                   26         27         28         29
    26  H    0.000000
    27  H    4.196717   0.000000
    28  O    2.607925   2.492564   0.000000
    29  O    5.122264   2.449191   4.529630   0.000000
 Stoichiometry    C9H12N2O6
 Framework group  C1[X(C9H12N2O6)]
 Deg. of freedom    81
 Full point group                 C1      NOp   1
 Largest Abelian subgroup         C1      NOp   1
 Largest concise Abelian subgroup C1      NOp   1
                         Standard orientation:                         
 ---------------------------------------------------------------------
 Center     Atomic      Atomic             Coordinates (Angstroms)
 Number     Number       Type             X           Y           Z
 ---------------------------------------------------------------------
      1          6           0        2.756079    0.422730    0.202197
      2          6           0        1.344584    0.874778    0.521910
      3          6           0        0.556829    0.313169   -0.680405
      4          8           0        1.330450    2.301808    0.642914
      5          1           0        0.993900    0.438515    1.463165
      6          8           0        1.231475   -0.895921   -1.087766
      7          1           0        0.584197    1.020621   -1.519339
      8          7           0       -0.862884    0.036197   -0.396089
      9          6           0        2.557234   -0.911724   -0.504087
     10          1           0        3.408701    0.375795    1.078617
     11          8           0        3.348787    1.362588   -0.711542
     12          6           0        2.653182   -2.113582    0.437904
     13          1           0        3.273921   -1.040193   -1.322820
     14          8           0        1.671742   -2.045327    1.469467
     15          1           0        3.640064   -2.158546    0.908410
     16          1           0        2.489364   -3.047056   -0.110927
     17          1           0        3.074977    2.242438   -0.372773
     18          1           0        0.386197    2.577380    0.606886
     19          1           0        0.814326   -2.223188    1.042190
     20          6           0       -1.412749   -1.215456   -0.615953
     21          6           0       -2.705090   -1.474288   -0.405030
     22          6           0       -3.579848   -0.392261    0.065504
     23          7           0       -2.980109    0.821311    0.225843
     24          6           0       -1.658696    1.102970    0.007168
     25          1           0       -0.760865   -2.001534   -0.985495
     26          1           0       -3.152665   -2.444409   -0.574961
     27          1           0       -3.565884    1.582296    0.532889
     28          8           0       -4.767940   -0.587428    0.287466
     29          8           0       -1.233817    2.243945    0.183290
 ---------------------------------------------------------------------
 Rotational constants (GHZ):           0.8752440           0.3239884           0.2623951
 Standard basis: Aug-CC-pVDZ (5D, 7F)
 There are   533 symmetry adapted cartesian basis functions of A   symmetry.
 There are   499 symmetry adapted basis functions of A   symmetry.
   499 basis functions,   863 primitive gaussians,   533 cartesian basis functions
    64 alpha electrons       64 beta electrons
       nuclear repulsion energy      1333.5703522453 Hartrees.
 NAtoms=   29 NActive=   29 NUniq=   29 SFac= 1.00D+00 NAtFMM=   60 NAOKFM=F Big=F
 Integral buffers will be    131072 words long.
 Raffenetti 2 integral format.
 Two-electron integral symmetry is turned on.
 Nuclear repulsion after empirical dispersion term =     1333.5497172660 Hartrees.
 One-electron integrals computed using PRISM.
 NBasis=   499 RedAO= T EigKep=  3.44D-06  NBF=   499
 NBsUse=   499 1.00D-06 EigRej= -1.00D+00 NBFU=   499
 ExpMin= 2.97D-02 ExpMax= 1.17D+04 ExpMxC= 4.01D+02 IAcc=3 IRadAn=         5 AccDes= 0.00D+00
 Harris functional with IExCor= 1009 and IRadAn=       5 diagonalized for initial guess.
 HarFok:  IExCor= 1009 AccDes= 0.00D+00 IRadAn=         5 IDoV= 1 UseB2=F ITyADJ=14
 ICtDFT=  3500011 ScaDFX=  1.000000  1.000000  1.000000  1.000000
 FoFCou: FMM=F IPFlag=           0 FMFlag=      100000 FMFlg1=           0
         NFxFlg=           0 DoJE=T BraDBF=F KetDBF=T FulRan=T
         wScrn=  0.000000 ICntrl=       500 IOpCl=  0 I1Cent=   200000004 NGrid=           0
         NMat0=    1 NMatS0=      1 NMatT0=    0 NMatD0=    1 NMtDS0=    0 NMtDT0=    0
 Petite list used in FoFCou.
 Requested convergence on RMS density matrix=1.00D-08 within 128 cycles.
 Requested convergence on MAX density matrix=1.00D-06.
 Requested convergence on             energy=1.00D-06.
 No special actions if energy rises.
 SCF Done:  E(RPBE1PBE) =  -910.210612280     A.U. after   14 cycles
            NFock= 14  Conv=0.52D-08     -V/T= 2.0056

 **********************************************************************

            Population analysis using the SCF Density.

 **********************************************************************

 Orbital symmetries:
       Occupied  (A) (A) (A) (A) (A) (A) (A) (A) (A) (A) (A) (A)
                 (A) (A) (A) (A) (A) (A) (A) (A) (A) (A) (A) (A)
                 (A) (A) (A) (A) (A) (A) (A) (A) (A) (A) (A) (A)
                 (A) (A) (A) (A) (A) (A) (A) (A) (A) (A) (A) (A)
                 (A) (A) (A) (A) (A) (A) (A) (A) (A) (A) (A) (A)
                 (A) (A) (A) (A)
       Virtual   (A) (A) (A) (A) (A) (A) (A) (A) (A) (A) (A) (A)
                 (A) (A) (A) (A) (A) (A) (A) (A) (A) (A) (A) (A)
                 (A) (A) (A) (A) (A) (A) (A) (A) (A) (A) (A) (A)
                 (A) (A) (A) (A) (A) (A) (A) (A) (A) (A) (A) (A)
                 (A) (A) (A) (A) (A) (A) (A) (A) (A) (A) (A) (A)
                 (A) (A) (A) (A) (A) (A) (A) (A) (A) (A) (A) (A)
                 (A) (A) (A) (A) (A) (A) (A) (A) (A) (A) (A) (A)
                 (A) (A) (A) (A) (A) (A) (A) (A) (A) (A) (A) (A)
                 (A) (A) (A) (A) (A) (A) (A) (A) (A) (A) (A) (A)
                 (A) (A) (A) (A) (A) (A) (A) (A) (A) (A) (A) (A)
                 (A) (A) (A) (A) (A) (A) (A) (A) (A) (A) (A) (A)
                 (A) (A) (A) (A) (A) (A) (A) (A) (A) (A) (A) (A)
                 (A) (A) (A) (A) (A) (A) (A) (A) (A) (A) (A) (A)
                 (A) (A) (A) (A) (A) (A) (A) (A) (A) (A) (A) (A)
                 (A) (A) (A) (A) (A) (A) (A) (A) (A) (A) (A) (A)
                 (A) (A) (A) (A) (A) (A) (A) (A) (A) (A) (A) (A)
                 (A) (A) (A) (A) (A) (A) (A) (A) (A) (A) (A) (A)
                 (A) (A) (A) (A) (A) (A) (A) (A) (A) (A) (A) (A)
                 (A) (A) (A) (A) (A) (A) (A) (A) (A) (A) (A) (A)
                 (A) (A) (A) (A) (A) (A) (A) (A) (A) (A) (A) (A)
                 (A) (A) (A) (A) (A) (A) (A) (A) (A) (A) (A) (A)
                 (A) (A) (A) (A) (A) (A) (A) (A) (A) (A) (A) (A)
                 (A) (A) (A) (A) (A) (A) (A) (A) (A) (A) (A) (A)
                 (A) (A) (A) (A) (A) (A) (A) (A) (A) (A) (A) (A)
                 (A) (A) (A) (A) (A) (A) (A) (A) (A) (A) (A) (A)
                 (A) (A) (A) (A) (A) (A) (A) (A) (A) (A) (A) (A)
                 (A) (A) (A) (A) (A) (A) (A) (A) (A) (A) (A) (A)
                 (A) (A) (A) (A) (A) (A) (A) (A) (A) (A) (A) (A)
                 (A) (A) (A) (A) (A) (A) (A) (A) (A) (A) (A) (A)
                 (A) (A) (A) (A) (A) (A) (A) (A) (A) (A) (A) (A)
                 (A) (A) (A) (A) (A) (A) (A) (A) (A) (A) (A) (A)
                 (A) (A) (A) (A) (A) (A) (A) (A) (A) (A) (A) (A)
                 (A) (A) (A) (A) (A) (A) (A) (A) (A) (A) (A) (A)
                 (A) (A) (A) (A) (A) (A) (A) (A) (A) (A) (A) (A)
                 (A) (A) (A) (A) (A) (A) (A) (A) (A) (A) (A) (A)
                 (A) (A) (A) (A) (A) (A) (A) (A) (A) (A) (A) (A)
                 (A) (A) (A)
 The electronic state is 1-A.
 Alpha  occ. eigenvalues --  -19.27639 -19.24951 -19.24232 -19.23188 -19.23032
 Alpha  occ. eigenvalues --  -19.21309 -14.49986 -14.48140 -10.41917 -10.36558
 Alpha  occ. eigenvalues --  -10.36013 -10.32523 -10.31109 -10.30719 -10.30304
 Alpha  occ. eigenvalues --  -10.30105 -10.26669  -1.14937  -1.12011  -1.09531
 Alpha  occ. eigenvalues --   -1.07514  -1.07151  -1.04254  -1.03640  -0.99368
 Alpha  occ. eigenvalues --   -0.85410  -0.82428  -0.80229  -0.74037  -0.73115
 Alpha  occ. eigenvalues --   -0.69750  -0.65626  -0.63858  -0.60936  -0.60013
 Alpha  occ. eigenvalues --   -0.57585  -0.56982  -0.54233  -0.53628  -0.52755
 Alpha  occ. eigenvalues --   -0.52317  -0.51360  -0.50133  -0.49040  -0.47715
 Alpha  occ. eigenvalues --   -0.46442  -0.45399  -0.44899  -0.44402  -0.43118
 Alpha  occ. eigenvalues --   -0.42895  -0.40917  -0.40254  -0.38604  -0.37644
 Alpha  occ. eigenvalues --   -0.35370  -0.34182  -0.33319  -0.32789  -0.31022
 Alpha  occ. eigenvalues --   -0.30261  -0.30126  -0.29445  -0.27391
 Alpha virt. eigenvalues --   -0.05785  -0.02417  -0.01652  -0.00260   0.00337
 Alpha virt. eigenvalues --    0.00723   0.01456   0.01947   0.02493   0.03034
 Alpha virt. eigenvalues --    0.03287   0.03755   0.05102   0.05364   0.05650
 Alpha virt. eigenvalues --    0.06230   0.06521   0.06959   0.07275   0.07816
 Alpha virt. eigenvalues --    0.08172   0.08565   0.08973   0.09256   0.09558
 Alpha virt. eigenvalues --    0.09669   0.09905   0.10112   0.10505   0.10621
 Alpha virt. eigenvalues --    0.10901   0.11484   0.11586   0.12051   0.12258
 Alpha virt. eigenvalues --    0.12650   0.12714   0.13128   0.13381   0.13524
 Alpha virt. eigenvalues --    0.14455   0.14987   0.15237   0.15613   0.15792
 Alpha virt. eigenvalues --    0.16249   0.16770   0.16827   0.17562   0.17714
 Alpha virt. eigenvalues --    0.17893   0.18563   0.18867   0.19334   0.19608
 Alpha virt. eigenvalues --    0.20803   0.20937   0.21061   0.21210   0.21653
 Alpha virt. eigenvalues --    0.22062   0.22270   0.22442   0.23010   0.23864
 Alpha virt. eigenvalues --    0.24222   0.24331   0.25041   0.25096   0.25244
 Alpha virt. eigenvalues --    0.25796   0.25870   0.26197   0.26423   0.26628
 Alpha virt. eigenvalues --    0.26859   0.27231   0.27481   0.28149   0.28457
 Alpha virt. eigenvalues --    0.29146   0.29458   0.29493   0.29793   0.30077
 Alpha virt. eigenvalues --    0.30279   0.30783   0.31273   0.31277   0.32147
 Alpha virt. eigenvalues --    0.32373   0.32577   0.33686   0.33787   0.34477
 Alpha virt. eigenvalues --    0.34507   0.35181   0.35411   0.35696   0.36094
 Alpha virt. eigenvalues --    0.36781   0.36858   0.37396   0.37630   0.38065
 Alpha virt. eigenvalues --    0.38736   0.38940   0.39458   0.40200   0.40464
 Alpha virt. eigenvalues --    0.41137   0.41519   0.41815   0.42664   0.43028
 Alpha virt. eigenvalues --    0.43371   0.44252   0.44986   0.45301   0.45695
 Alpha virt. eigenvalues --    0.46230   0.46636   0.47088   0.48074   0.48601
 Alpha virt. eigenvalues --    0.49041   0.49815   0.50063   0.50614   0.51116
 Alpha virt. eigenvalues --    0.52283   0.52597   0.52803   0.53128   0.53568
 Alpha virt. eigenvalues --    0.53871   0.54402   0.55123   0.55492   0.55975
 Alpha virt. eigenvalues --    0.56446   0.56896   0.57984   0.58707   0.58956
 Alpha virt. eigenvalues --    0.59610   0.60077   0.60701   0.61723   0.62130
 Alpha virt. eigenvalues --    0.62732   0.62819   0.63129   0.64015   0.64812
 Alpha virt. eigenvalues --    0.65012   0.65348   0.65662   0.66077   0.66595
 Alpha virt. eigenvalues --    0.66994   0.67499   0.67638   0.67860   0.68752
 Alpha virt. eigenvalues --    0.69122   0.69707   0.70079   0.70195   0.70992
 Alpha virt. eigenvalues --    0.71325   0.71780   0.72551   0.73355   0.73896
 Alpha virt. eigenvalues --    0.74149   0.74335   0.75629   0.76388   0.76772
 Alpha virt. eigenvalues --    0.77530   0.77927   0.78141   0.79319   0.79686
 Alpha virt. eigenvalues --    0.80693   0.81406   0.82143   0.82607   0.83147
 Alpha virt. eigenvalues --    0.83825   0.84410   0.85033   0.85712   0.85994
 Alpha virt. eigenvalues --    0.87550   0.87735   0.88766   0.89816   0.90447
 Alpha virt. eigenvalues --    0.91283   0.91826   0.92657   0.93023   0.93512
 Alpha virt. eigenvalues --    0.94539   0.96002   0.96447   0.98855   0.99348
 Alpha virt. eigenvalues --    0.99616   0.99992   1.00862   1.01642   1.03142
 Alpha virt. eigenvalues --    1.04355   1.05117   1.05731   1.06839   1.07619
 Alpha virt. eigenvalues --    1.09073   1.09489   1.10234   1.10539   1.11914
 Alpha virt. eigenvalues --    1.12281   1.13763   1.14146   1.15886   1.15962
 Alpha virt. eigenvalues --    1.16668   1.17080   1.18106   1.19355   1.20475
 Alpha virt. eigenvalues --    1.21101   1.21735   1.22613   1.23382   1.23654
 Alpha virt. eigenvalues --    1.24159   1.25322   1.27569   1.28154   1.29857
 Alpha virt. eigenvalues --    1.30144   1.30973   1.31549   1.32859   1.34037
 Alpha virt. eigenvalues --    1.35359   1.36756   1.37222   1.38471   1.39174
 Alpha virt. eigenvalues --    1.39937   1.40925   1.41806   1.43174   1.44953
 Alpha virt. eigenvalues --    1.45960   1.46833   1.47998   1.48179   1.49118
 Alpha virt. eigenvalues --    1.49949   1.50320   1.51612   1.52009   1.52797
 Alpha virt. eigenvalues --    1.53536   1.54572   1.55085   1.56707   1.57162
 Alpha virt. eigenvalues --    1.57231   1.58299   1.59081   1.60289   1.60706
 Alpha virt. eigenvalues --    1.62130   1.64346   1.65196   1.65750   1.66552
 Alpha virt. eigenvalues --    1.68256   1.69007   1.69782   1.71327   1.72463
 Alpha virt. eigenvalues --    1.73093   1.73267   1.74310   1.74453   1.75528
 Alpha virt. eigenvalues --    1.76707   1.77575   1.78545   1.79469   1.80570
 Alpha virt. eigenvalues --    1.80886   1.81731   1.82541   1.83704   1.84491
 Alpha virt. eigenvalues --    1.86212   1.87112   1.87595   1.90314   1.90355
 Alpha virt. eigenvalues --    1.90924   1.91922   1.92858   1.94103   1.95900
 Alpha virt. eigenvalues --    1.96318   1.98070   1.99701   1.99935   2.00720
 Alpha virt. eigenvalues --    2.01630   2.02361   2.04270   2.05032   2.06381
 Alpha virt. eigenvalues --    2.06824   2.08138   2.08512   2.09471   2.10789
 Alpha virt. eigenvalues --    2.11200   2.13835   2.14355   2.14792   2.15536
 Alpha virt. eigenvalues --    2.16543   2.18993   2.19561   2.21591   2.22128
 Alpha virt. eigenvalues --    2.22850   2.24882   2.26313   2.27675   2.28691
 Alpha virt. eigenvalues --    2.30536   2.31526   2.32663   2.35236   2.36099
 Alpha virt. eigenvalues --    2.37334   2.38020   2.39378   2.40130   2.41255
 Alpha virt. eigenvalues --    2.42548   2.43274   2.44619   2.46962   2.47337
 Alpha virt. eigenvalues --    2.48196   2.49491   2.51164   2.53532   2.55256
 Alpha virt. eigenvalues --    2.56428   2.58550   2.58759   2.59721   2.61357
 Alpha virt. eigenvalues --    2.63713   2.64434   2.66683   2.67240   2.68758
 Alpha virt. eigenvalues --    2.69098   2.71977   2.74180   2.75354   2.76202
 Alpha virt. eigenvalues --    2.79697   2.81836   2.82238   2.85972   2.89585
 Alpha virt. eigenvalues --    2.89948   2.90853   2.95619   2.96696   2.98118
 Alpha virt. eigenvalues --    3.00994   3.11927   3.13437   3.17599   3.21743
 Alpha virt. eigenvalues --    3.24616   3.27328   3.31158   3.33822   3.38235
 Alpha virt. eigenvalues --    3.38973   3.42088   3.42827   3.43178   3.45231
 Alpha virt. eigenvalues --    3.46937   3.47285   3.49334   3.50924   3.52250
 Alpha virt. eigenvalues --    3.53401   3.54296   3.55978   3.58726   3.60092
 Alpha virt. eigenvalues --    3.60622   3.61886   3.63159   3.65265   3.66026
 Alpha virt. eigenvalues --    3.67427   3.69773   3.70853   3.75118   3.75532
 Alpha virt. eigenvalues --    3.78413   3.83738   3.86047   3.91002   3.97164
 Alpha virt. eigenvalues --    4.05066   4.07988   4.13328   4.37009   4.55610
          Condensed to atoms (all electrons):
               1          2          3          4          5          6
     1  C   11.111590  -3.386992   0.365263   0.072419   0.250613  -0.026436
     2  C   -3.386992   9.780546  -2.096592  -0.448855  -0.943993  -0.160957
     3  C    0.365263  -2.096592  11.780761   0.220447   0.445268  -0.010474
     4  O    0.072419  -0.448855   0.220447   8.695552  -0.178991   0.017352
     5  H    0.250613  -0.943993   0.445268  -0.178991   2.417463   0.003284
     6  O   -0.026436  -0.160957  -0.010474   0.017352   0.003284   9.476111
     7  H   -0.222450   0.212000  -0.525819  -0.040663   0.149547  -0.179195
     8  N    0.153208   0.387978  -1.256142   0.029370  -0.275709  -0.136218
     9  C   -2.038527   0.915556  -3.151242   0.039275  -0.266337   0.072630
    10  H   -1.379845   0.754552   0.106363   0.001854  -0.133070   0.013852
    11  O   -0.697939   0.322698  -0.104144  -0.022697  -0.009061   0.006181
    12  C   -0.024711  -0.030103   0.283113  -0.017314   0.073790  -0.052562
    13  H    0.278809   0.135070   0.351028  -0.002541  -0.002706  -0.238774
    14  O   -0.051756  -0.020533  -0.034769   0.004160  -0.017458  -0.032182
    15  H    0.098457  -0.008431   0.061889  -0.002029   0.018706   0.097407
    16  H    0.054390  -0.066361  -0.050414   0.000081  -0.011472  -0.040580
    17  H    0.231278  -0.256963   0.037224   0.055895   0.030064   0.004663
    18  H   -0.005932   0.069019  -0.094075   0.298953  -0.024916   0.000025
    19  H    0.050789  -0.025085   0.013433   0.001128  -0.003485   0.010292
    20  C   -0.002647   0.052601  -1.188481  -0.001844   0.016036   0.251500
    21  C   -0.019421   0.005873  -0.087695   0.010553  -0.036430  -0.049365
    22  C    0.007676  -0.030670  -0.102938  -0.003723   0.007984  -0.001797
    23  N    0.020670   0.018560  -0.041017  -0.013416   0.008561   0.006936
    24  C   -0.231646   0.099980  -0.168590   0.018044   0.014774  -0.091180
    25  H    0.113858  -0.162833   0.276975   0.000805  -0.001412  -0.150373
    26  H   -0.000849  -0.003262   0.018708   0.000425  -0.001416  -0.003233
    27  H   -0.000387  -0.003835   0.003102   0.000171  -0.000122  -0.000535
    28  O   -0.000665   0.002578   0.000374   0.000007   0.000720   0.000929
    29  O    0.024340  -0.005077   0.135754  -0.070799   0.034542  -0.004676
               7          8          9         10         11         12
     1  C   -0.222450   0.153208  -2.038527  -1.379845  -0.697939  -0.024711
     2  C    0.212000   0.387978   0.915556   0.754552   0.322698  -0.030103
     3  C   -0.525819  -1.256142  -3.151242   0.106363  -0.104144   0.283113
     4  O   -0.040663   0.029370   0.039275   0.001854  -0.022697  -0.017314
     5  H    0.149547  -0.275709  -0.266337  -0.133070  -0.009061   0.073790
     6  O   -0.179195  -0.136218   0.072630   0.013852   0.006181  -0.052562
     7  H    2.103497  -0.284990   0.044639   0.005617   0.021082   0.041977
     8  N   -0.284990   8.573001   0.526005  -0.005878   0.014442  -0.081196
     9  C    0.044639   0.526005  10.423284  -0.042270   0.290261  -0.550908
    10  H    0.005617  -0.005878  -0.042270   2.175004  -0.038346  -0.028452
    11  O    0.021082   0.014442   0.290261  -0.038346   8.755066  -0.020075
    12  C    0.041977  -0.081196  -0.550908  -0.028452  -0.020075   5.013989
    13  H    0.022081  -0.056038  -1.106070   0.050163  -0.054341   0.023623
    14  O    0.000728   0.021629   0.111703   0.037394   0.003609   0.077236
    15  H   -0.001884   0.007591  -0.319925  -0.065268   0.005282   0.223507
    16  H    0.004151   0.000615   0.119916   0.032128  -0.001068   0.095328
    17  H    0.008186  -0.006246  -0.076434  -0.051213   0.271433   0.008175
    18  H    0.016533  -0.001226   0.017344   0.001156  -0.001577   0.002048
    19  H    0.001792   0.034867  -0.085026  -0.006017  -0.001231   0.032291
    20  C   -0.027446   0.194883   0.293475  -0.004778   0.005111  -0.088891
    21  C   -0.032316  -0.193186   0.100802  -0.000107  -0.001167   0.000809
    22  C    0.007538  -0.155293  -0.017158   0.000205   0.000642  -0.004289
    23  N   -0.002727  -0.008528   0.005695   0.000147   0.000164  -0.003052
    24  C    0.105578  -0.339548  -0.166865   0.006834   0.019592   0.006120
    25  H    0.012504  -0.005076  -0.161424  -0.000949  -0.002387   0.049982
    26  H   -0.000651   0.040721   0.002183   0.000209   0.000037  -0.001900
    27  H    0.001701   0.060981  -0.001345  -0.000078   0.000062  -0.000092
    28  O   -0.000150  -0.004006   0.000572  -0.000039   0.000000   0.000039
    29  O    0.056309  -0.218112   0.012109  -0.000233  -0.002005  -0.000805
              13         14         15         16         17         18
     1  C    0.278809  -0.051756   0.098457   0.054390   0.231278  -0.005932
     2  C    0.135070  -0.020533  -0.008431  -0.066361  -0.256963   0.069019
     3  C    0.351028  -0.034769   0.061889  -0.050414   0.037224  -0.094075
     4  O   -0.002541   0.004160  -0.002029   0.000081   0.055895   0.298953
     5  H   -0.002706  -0.017458   0.018706  -0.011472   0.030064  -0.024916
     6  O   -0.238774  -0.032182   0.097407  -0.040580   0.004663   0.000025
     7  H    0.022081   0.000728  -0.001884   0.004151   0.008186   0.016533
     8  N   -0.056038   0.021629   0.007591   0.000615  -0.006246  -0.001226
     9  C   -1.106070   0.111703  -0.319925   0.119916  -0.076434   0.017344
    10  H    0.050163   0.037394  -0.065268   0.032128  -0.051213   0.001156
    11  O   -0.054341   0.003609   0.005282  -0.001068   0.271433  -0.001577
    12  C    0.023623   0.077236   0.223507   0.095328   0.008175   0.002048
    13  H    2.173583   0.022123  -0.066609  -0.040011  -0.012543   0.000939
    14  O    0.022123   8.344348  -0.183286  -0.048859  -0.001391  -0.001221
    15  H   -0.066609  -0.183286   1.829983  -0.412123   0.004719  -0.000929
    16  H   -0.040011  -0.048859  -0.412123   1.676443  -0.000883   0.000163
    17  H   -0.012543  -0.001391   0.004719  -0.000883   0.561718  -0.007547
    18  H    0.000939  -0.001221  -0.000929   0.000163  -0.007547   0.545558
    19  H    0.007793   0.266392   0.024112  -0.038060   0.000168   0.000678
    20  C   -0.028020  -0.006488  -0.011292   0.033321   0.002528  -0.021607
    21  C   -0.001969  -0.004605  -0.000087   0.000004  -0.001568   0.015011
    22  C   -0.000386   0.002637   0.000016   0.000022   0.000632  -0.006643
    23  N   -0.000158   0.000971  -0.000024  -0.000208   0.000877  -0.005117
    24  C   -0.001381   0.010314   0.004154  -0.002311  -0.001088   0.000449
    25  H   -0.003214  -0.001431   0.004961  -0.000499   0.000746  -0.001515
    26  H   -0.000068   0.000865  -0.000229  -0.000029  -0.000050  -0.000337
    27  H   -0.000103   0.000284   0.000040  -0.000021   0.000105  -0.001256
    28  O    0.000004  -0.000063   0.000002   0.000022  -0.000011   0.000343
    29  O    0.000304  -0.000907   0.000048  -0.000116   0.000410   0.011352
              19         20         21         22         23         24
     1  C    0.050789  -0.002647  -0.019421   0.007676   0.020670  -0.231646
     2  C   -0.025085   0.052601   0.005873  -0.030670   0.018560   0.099980
     3  C    0.013433  -1.188481  -0.087695  -0.102938  -0.041017  -0.168590
     4  O    0.001128  -0.001844   0.010553  -0.003723  -0.013416   0.018044
     5  H   -0.003485   0.016036  -0.036430   0.007984   0.008561   0.014774
     6  O    0.010292   0.251500  -0.049365  -0.001797   0.006936  -0.091180
     7  H    0.001792  -0.027446  -0.032316   0.007538  -0.002727   0.105578
     8  N    0.034867   0.194883  -0.193186  -0.155293  -0.008528  -0.339548
     9  C   -0.085026   0.293475   0.100802  -0.017158   0.005695  -0.166865
    10  H   -0.006017  -0.004778  -0.000107   0.000205   0.000147   0.006834
    11  O   -0.001231   0.005111  -0.001167   0.000642   0.000164   0.019592
    12  C    0.032291  -0.088891   0.000809  -0.004289  -0.003052   0.006120
    13  H    0.007793  -0.028020  -0.001969  -0.000386  -0.000158  -0.001381
    14  O    0.266392  -0.006488  -0.004605   0.002637   0.000971   0.010314
    15  H    0.024112  -0.011292  -0.000087   0.000016  -0.000024   0.004154
    16  H   -0.038060   0.033321   0.000004   0.000022  -0.000208  -0.002311
    17  H    0.000168   0.002528  -0.001568   0.000632   0.000877  -0.001088
    18  H    0.000678  -0.021607   0.015011  -0.006643  -0.005117   0.000449
    19  H    0.551881  -0.036404   0.018021   0.001359  -0.001556   0.009340
    20  C   -0.036404   9.766538  -2.440031   0.191053   0.216460  -1.395590
    21  C    0.018021  -2.440031   9.458506  -1.690840  -0.065238   0.711324
    22  C    0.001359   0.191053  -1.690840   7.562614   0.258499  -0.419428
    23  N   -0.001556   0.216460  -0.065238   0.258499   7.209871  -0.399021
    24  C    0.009340  -1.395590   0.711324  -0.419428  -0.399021   7.497381
    25  H    0.008289  -0.923288   0.072613  -0.108643   0.009810   0.050531
    26  H    0.000547   0.528432  -0.901215   0.206519  -0.049555  -0.069778
    27  H    0.000361  -0.041190   0.033237  -0.157864   0.441278  -0.291350
    28  O   -0.000209   0.079373  -0.105706   0.140104  -0.119837   0.045763
    29  O   -0.000592  -0.067692   0.023347  -0.023474  -0.301450   0.366126
              25         26         27         28         29
     1  C    0.113858  -0.000849  -0.000387  -0.000665   0.024340
     2  C   -0.162833  -0.003262  -0.003835   0.002578  -0.005077
     3  C    0.276975   0.018708   0.003102   0.000374   0.135754
     4  O    0.000805   0.000425   0.000171   0.000007  -0.070799
     5  H   -0.001412  -0.001416  -0.000122   0.000720   0.034542
     6  O   -0.150373  -0.003233  -0.000535   0.000929  -0.004676
     7  H    0.012504  -0.000651   0.001701  -0.000150   0.056309
     8  N   -0.005076   0.040721   0.060981  -0.004006  -0.218112
     9  C   -0.161424   0.002183  -0.001345   0.000572   0.012109
    10  H   -0.000949   0.000209  -0.000078  -0.000039  -0.000233
    11  O   -0.002387   0.000037   0.000062   0.000000  -0.002005
    12  C    0.049982  -0.001900  -0.000092   0.000039  -0.000805
    13  H   -0.003214  -0.000068  -0.000103   0.000004   0.000304
    14  O   -0.001431   0.000865   0.000284  -0.000063  -0.000907
    15  H    0.004961  -0.000229   0.000040   0.000002   0.000048
    16  H   -0.000499  -0.000029  -0.000021   0.000022  -0.000116
    17  H    0.000746  -0.000050   0.000105  -0.000011   0.000410
    18  H   -0.001515  -0.000337  -0.001256   0.000343   0.011352
    19  H    0.008289   0.000547   0.000361  -0.000209  -0.000592
    20  C   -0.923288   0.528432  -0.041190   0.079373  -0.067692
    21  C    0.072613  -0.901215   0.033237  -0.105706   0.023347
    22  C   -0.108643   0.206519  -0.157864   0.140104  -0.023474
    23  N    0.009810  -0.049555   0.441278  -0.119837  -0.301450
    24  C    0.050531  -0.069778  -0.291350   0.045763   0.366126
    25  H    2.859634  -0.206714  -0.000199   0.000260  -0.001938
    26  H   -0.206714   2.057523   0.010281  -0.020818   0.001657
    27  H   -0.000199   0.010281   1.094720  -0.049571  -0.000897
    28  O    0.000260  -0.020818  -0.049571   8.692262  -0.002343
    29  O   -0.001938   0.001657  -0.000897  -0.002343   8.757131
 Mulliken charges:
               1
     1  C    1.256841
     2  C    0.893532
     3  C    0.812690
     4  O   -0.663618
     5  H   -0.564775
     6  O   -0.782622
     7  H   -0.497166
     8  N   -0.017901
     9  C    1.008082
    10  H   -0.428936
    11  O   -0.759625
    12  C    0.972319
    13  H   -0.450586
    14  O   -0.499444
    15  H   -0.308757
    16  H   -0.303568
    17  H    0.197115
    18  H    0.194329
    19  H    0.164135
    20  C    0.654379
    21  C    1.180847
    22  C    0.335649
    23  N   -0.187595
    24  C    0.611472
    25  H   -0.729069
    26  H   -0.608002
    27  H   -0.097477
    28  O   -0.659935
    29  O   -0.722312
 Sum of Mulliken charges =  -0.00000
 Mulliken charges with hydrogens summed into heavy atoms:
               1
     1  C    0.827905
     2  C    0.328757
     3  C    0.315523
     4  O   -0.469289
     6  O   -0.782622
     8  N   -0.017901
     9  C    0.557496
    11  O   -0.562510
    12  C    0.359993
    14  O   -0.335310
    20  C   -0.074691
    21  C    0.572845
    22  C    0.335649
    23  N   -0.285072
    24  C    0.611472
    28  O   -0.659935
    29  O   -0.722312
 Electronic spatial extent (au):  <R**2>=           4102.5141
 Charge=              0.0000 electrons
 Dipole moment (field-independent basis, Debye):
    X=              1.5913    Y=             -2.1303    Z=             -0.8777  Tot=              2.8002
 Quadrupole moment (field-independent basis, Debye-Ang):
   XX=           -118.1101   YY=            -97.5236   ZZ=           -102.9445
   XY=             -9.5765   XZ=              3.1227   YZ=              3.9973
 Traceless Quadrupole moment (field-independent basis, Debye-Ang):
   XX=            -11.9174   YY=              8.6691   ZZ=              3.2482
   XY=             -9.5765   XZ=              3.1227   YZ=              3.9973
 Octapole moment (field-independent basis, Debye-Ang**2):
  XXX=            135.8311  YYY=            -14.5334  ZZZ=             -1.5520  XYY=             -4.7186
  XXY=             14.1330  XXZ=              4.8333  XZZ=             -7.5028  YZZ=             11.1107
  YYZ=            -11.7149  XYZ=              0.5747
 Hexadecapole moment (field-independent basis, Debye-Ang**3):
 XXXX=          -4370.0298 YYYY=          -1204.4039 ZZZZ=           -368.7169 XXXY=           -256.0549
 XXXZ=            102.1746 YYYX=             26.5747 YYYZ=             14.5274 ZZZX=            -18.8481
 ZZZY=              8.0448 XXYY=           -744.7245 XXZZ=           -674.8523 YYZZ=           -286.7164
 XXYZ=             47.1816 YYXZ=            -19.2061 ZZXY=              0.9327
 N-N= 1.333549717266D+03 E-N=-4.797939143107D+03  KE= 9.051748257529D+02
 Calling FoFJK, ICntrl=      2127 FMM=F ISym2X=0 I1Cent= 0 IOpClX= 0 NMat=1 NMatS=1 NMatT=0.
 ***** Axes restored to original set *****
 -------------------------------------------------------------------
 Center     Atomic                   Forces (Hartrees/Bohr)
 Number     Number              X              Y              Z
 -------------------------------------------------------------------
      1        6          -0.005985972   -0.007156761   -0.023061498
      2        6           0.011480397   -0.019103819   -0.006162386
      3        6          -0.012584137    0.005649032   -0.005057500
      4        8          -0.002768200    0.013263093    0.004412082
      5        1          -0.000179833    0.006166973    0.002898632
      6        8           0.017032640   -0.020830564    0.003820097
      7        1          -0.000136869   -0.003313249   -0.000906814
      8        7           0.002094616    0.004043054    0.004239576
      9        6          -0.003321971    0.003762222    0.009762052
     10        1           0.000651173    0.003180830    0.008700014
     11        8           0.007659871   -0.002174101    0.008622672
     12        6           0.013585609    0.000517481    0.001157554
     13        1          -0.001212586   -0.002325522   -0.002704583
     14        8           0.004722274    0.003977011   -0.002806479
     15        1          -0.000812878   -0.002473655    0.000532826
     16        1          -0.004513333    0.004028116   -0.005573425
     17        1          -0.004503438    0.012054146   -0.000176053
     18        1          -0.009886278    0.003370501   -0.000959326
     19        1          -0.009085313   -0.007643641    0.002840010
     20        6          -0.008171373   -0.000042700   -0.002992662
     21        6           0.015767913   -0.015271445   -0.000322013
     22        6           0.008089833    0.045676822    0.018349462
     23        7          -0.007800828   -0.005073547   -0.005096045
     24        6          -0.007242569   -0.004445327   -0.001537102
     25        1          -0.005674814   -0.005745098   -0.003550687
     26        1          -0.000131596    0.001860752    0.000773050
     27        1           0.001746801   -0.005083326   -0.001144449
     28        8           0.000337890   -0.012483386   -0.004411698
     29        8           0.000842973    0.005616109    0.000354692
 -------------------------------------------------------------------
 Cartesian Forces:  Max     0.045676822 RMS     0.009002911

 GradGradGradGradGradGradGradGradGradGradGradGradGradGradGradGradGradGrad
 Berny optimization.
 FormGI is forming the generalized inverse of G from B-inverse, IUseBI=4.
 Internal  Forces:  Max     0.022036350 RMS     0.005438127
 Search for a local minimum.
 Step number   1 out of a maximum of  173
 All quantities printed in internal units (Hartrees-Bohrs-Radians)
 Mixed Optimization -- RFO/linear search
 Second derivative matrix not updated -- first step.
 ITU=  0
     Eigenvalues ---    0.00369   0.00579   0.00711   0.00729   0.01181
     Eigenvalues ---    0.01266   0.01355   0.01409   0.01601   0.01781
     Eigenvalues ---    0.01954   0.01981   0.02097   0.02144   0.02330
     Eigenvalues ---    0.02524   0.03126   0.03668   0.04332   0.04807
     Eigenvalues ---    0.04945   0.04999   0.05333   0.05567   0.05673
     Eigenvalues ---    0.06140   0.06555   0.06875   0.07693   0.08292
     Eigenvalues ---    0.09903   0.11642   0.13174   0.13885   0.15998
     Eigenvalues ---    0.15999   0.16000   0.16000   0.16000   0.16000
     Eigenvalues ---    0.16160   0.16851   0.18101   0.20046   0.22042
     Eigenvalues ---    0.22351   0.23436   0.24578   0.24914   0.24997
     Eigenvalues ---    0.25000   0.26095   0.28893   0.29420   0.29539
     Eigenvalues ---    0.33932   0.34167   0.34221   0.34229   0.34329
     Eigenvalues ---    0.34386   0.35019   0.35247   0.35277   0.35775
     Eigenvalues ---    0.36763   0.37578   0.39779   0.40672   0.41645
     Eigenvalues ---    0.45102   0.45981   0.46272   0.49560   0.50558
     Eigenvalues ---    0.51043   0.51540   0.52498   0.56972   0.91008
     Eigenvalues ---    0.93501
 RFO step:  Lambda=-2.06066113D-02 EMin= 3.68603812D-03
 Linear search not attempted -- first point.
 Iteration  1 RMS(Cart)=  0.13813954 RMS(Int)=  0.00418565
 Iteration  2 RMS(Cart)=  0.00790727 RMS(Int)=  0.00042872
 Iteration  3 RMS(Cart)=  0.00001334 RMS(Int)=  0.00042865
 Iteration  4 RMS(Cart)=  0.00000000 RMS(Int)=  0.00042865
 Variable       Old X    -DE/DX   Delta X   Delta X   Delta X     New X
                                 (Linear)    (Quad)   (Total)
    R1        2.86521   0.00201   0.00000   0.01297   0.01269   2.87790
    R2        2.87781  -0.00539   0.00000  -0.02111  -0.02069   2.85712
    R3        2.06684   0.00361   0.00000   0.00991   0.00991   2.07675
    R4        2.71855  -0.01163   0.00000  -0.02781  -0.02781   2.69074
    R5        2.91626  -0.00169   0.00000  -0.00408  -0.00432   2.91194
    R6        2.70651  -0.01918   0.00000  -0.04488  -0.04488   2.66163
    R7        2.06946   0.00263   0.00000   0.00724   0.00724   2.07669
    R8        2.72736  -0.02204   0.00000  -0.05317  -0.05335   2.67401
    R9        2.07444   0.00142   0.00000   0.00394   0.00394   2.07838
   R10        2.78575   0.00399   0.00000   0.01070   0.01070   2.79645
   R11        1.86006  -0.00991   0.00000  -0.01884  -0.01884   1.84122
   R12        2.73754  -0.00198   0.00000  -0.00857  -0.00829   2.72925
   R13        2.61666  -0.00351   0.00000  -0.00804  -0.00807   2.60859
   R14        2.62797  -0.00878   0.00000  -0.01898  -0.01905   2.60892
   R15        2.89135  -0.00503   0.00000  -0.01597  -0.01597   2.87539
   R16        2.07049   0.00183   0.00000   0.00506   0.00506   2.07556
   R17        1.85528  -0.01265   0.00000  -0.02383  -0.02383   1.83145
   R18        2.69377  -0.00194   0.00000  -0.00444  -0.00444   2.68933
   R19        2.06779   0.00177   0.00000   0.00486   0.00486   2.07265
   R20        2.06960   0.00429   0.00000   0.01182   0.01182   2.08141
   R21        1.84126  -0.01212   0.00000  -0.02222  -0.02222   1.81904
   R22        2.52236   0.01633   0.00000   0.02701   0.02705   2.54941
   R23        2.05227   0.00058   0.00000   0.00155   0.00155   2.05382
   R24        2.77564  -0.01034   0.00000  -0.02580  -0.02573   2.74991
   R25        2.04434   0.00195   0.00000   0.00516   0.00516   2.04951
   R26        2.57596   0.02114   0.00000   0.03985   0.03987   2.61583
   R27        2.31360  -0.00429   0.00000  -0.00449  -0.00449   2.30911
   R28        2.58643   0.00539   0.00000   0.01014   0.01011   2.59653
   R29        1.90526   0.00473   0.00000   0.00979   0.00979   1.91505
   R30        2.32472  -0.00541   0.00000  -0.00581  -0.00581   2.31891
    A1        1.81058  -0.00255   0.00000  -0.00295  -0.00303   1.80756
    A2        1.98157  -0.00076   0.00000  -0.01647  -0.01723   1.96434
    A3        1.89938   0.00322   0.00000   0.01781   0.01763   1.91700
    A4        1.99539  -0.00130   0.00000  -0.02318  -0.02331   1.97208
    A5        1.90890  -0.00229   0.00000  -0.03011  -0.02990   1.87901
    A6        1.86623   0.00366   0.00000   0.05319   0.05310   1.91934
    A7        1.77463  -0.00095   0.00000   0.00090   0.00059   1.77522
    A8        1.90082  -0.00123   0.00000  -0.03086  -0.03035   1.87047
    A9        1.93968  -0.00178   0.00000  -0.01019  -0.01041   1.92928
   A10        2.00798   0.00110   0.00000   0.01061   0.01046   2.01844
   A11        1.94035  -0.00129   0.00000  -0.02400  -0.02421   1.91614
   A12        1.89774   0.00363   0.00000   0.04798   0.04798   1.94572
   A13        1.86101  -0.00059   0.00000  -0.01339  -0.01303   1.84798
   A14        1.92640  -0.00385   0.00000  -0.00060  -0.00201   1.92439
   A15        1.99295   0.01190   0.00000   0.05086   0.04850   2.04145
   A16        1.88866   0.00307   0.00000   0.02599   0.02658   1.91523
   A17        1.92540  -0.01286   0.00000  -0.10406  -0.10258   1.82282
   A18        1.86763   0.00188   0.00000   0.03940   0.03839   1.90602
   A19        1.86014  -0.00428   0.00000  -0.02368  -0.02368   1.83646
   A20        1.89992   0.00693   0.00000   0.03445   0.03434   1.93425
   A21        2.11958  -0.01039   0.00000  -0.03623  -0.03620   2.08339
   A22        2.05208   0.01135   0.00000   0.04439   0.04438   2.09646
   A23        2.10854  -0.00100   0.00000  -0.00908  -0.00918   2.09937
   A24        1.87214  -0.00361   0.00000  -0.01966  -0.01964   1.85249
   A25        1.97642   0.00437   0.00000   0.02067   0.02094   1.99737
   A26        1.94325  -0.00244   0.00000  -0.02228  -0.02269   1.92055
   A27        1.89022   0.00031   0.00000   0.00791   0.00791   1.89813
   A28        1.87426   0.00165   0.00000   0.00506   0.00462   1.87888
   A29        1.90386  -0.00035   0.00000   0.00798   0.00814   1.91200
   A30        1.82494   0.00110   0.00000   0.00611   0.00611   1.83105
   A31        1.94415   0.00379   0.00000   0.01895   0.01874   1.96289
   A32        1.93218  -0.00148   0.00000  -0.02164  -0.02190   1.91027
   A33        1.93009  -0.00504   0.00000  -0.02248  -0.02335   1.90674
   A34        1.88784  -0.00330   0.00000  -0.02750  -0.02732   1.86052
   A35        1.87599   0.00510   0.00000   0.05718   0.05720   1.93318
   A36        1.89163   0.00108   0.00000  -0.00297  -0.00331   1.88832
   A37        1.85437   0.00244   0.00000   0.01352   0.01352   1.86788
   A38        2.13492   0.00430   0.00000   0.01457   0.01460   2.14953
   A39        2.06003  -0.01118   0.00000  -0.05726  -0.05728   2.00275
   A40        2.08815   0.00689   0.00000   0.04274   0.04272   2.13087
   A41        2.07647   0.00247   0.00000   0.01138   0.01151   2.08798
   A42        2.15273  -0.00172   0.00000  -0.00838  -0.00845   2.14428
   A43        2.05390  -0.00075   0.00000  -0.00305  -0.00312   2.05079
   A44        2.01695  -0.01151   0.00000  -0.03935  -0.03923   1.97772
   A45        2.11599   0.02025   0.00000   0.07322   0.07316   2.18915
   A46        2.15023  -0.00874   0.00000  -0.03390  -0.03396   2.11627
   A47        2.20085   0.00737   0.00000   0.03162   0.03163   2.23248
   A48        2.03999  -0.00102   0.00000  -0.00107  -0.00108   2.03891
   A49        2.04234  -0.00635   0.00000  -0.03055  -0.03055   2.01180
   A50        2.02747  -0.00164   0.00000  -0.00919  -0.00942   2.01805
   A51        2.15957   0.00056   0.00000   0.00379   0.00370   2.16326
   A52        2.09606   0.00110   0.00000   0.00579   0.00569   2.10175
    D1       -0.58145  -0.00077   0.00000  -0.00554  -0.00538  -0.58683
    D2       -2.70826  -0.00097   0.00000  -0.00415  -0.00411  -2.71237
    D3        1.48470  -0.00358   0.00000  -0.03742  -0.03748   1.44723
    D4       -2.75759   0.00309   0.00000   0.03522   0.03516  -2.72243
    D5        1.39878   0.00289   0.00000   0.03661   0.03644   1.43522
    D6       -0.69144   0.00028   0.00000   0.00335   0.00306  -0.68837
    D7        1.44955  -0.00326   0.00000  -0.03363  -0.03348   1.41607
    D8       -0.67726  -0.00346   0.00000  -0.03225  -0.03221  -0.70947
    D9       -2.76748  -0.00607   0.00000  -0.06551  -0.06558  -2.83306
   D10        0.43622   0.00181   0.00000   0.01208   0.01201   0.44823
   D11       -1.64822   0.00122   0.00000   0.00301   0.00301  -1.64521
   D12        2.48207   0.00029   0.00000  -0.00586  -0.00569   2.47639
   D13        2.60341  -0.00174   0.00000  -0.02460  -0.02474   2.57867
   D14        0.51897  -0.00233   0.00000  -0.03367  -0.03374   0.48523
   D15       -1.63392  -0.00326   0.00000  -0.04254  -0.04244  -1.67635
   D16       -1.58807   0.00043   0.00000   0.00647   0.00640  -1.58167
   D17        2.61068  -0.00016   0.00000  -0.00260  -0.00261   2.60807
   D18        0.45778  -0.00109   0.00000  -0.01147  -0.01130   0.44648
   D19        0.73316   0.00053   0.00000  -0.03135  -0.03074   0.70242
   D20        2.70009  -0.00198   0.00000  -0.04105  -0.04083   2.65926
   D21       -1.41374  -0.00265   0.00000  -0.05402  -0.05485  -1.46858
   D22        0.54505  -0.00021   0.00000  -0.01175  -0.01195   0.53311
   D23       -1.50245  -0.00149   0.00000  -0.03471  -0.03502  -1.53747
   D24        2.67609  -0.00938   0.00000  -0.12090  -0.12143   2.55466
   D25        2.59596  -0.00176   0.00000  -0.04324  -0.04314   2.55282
   D26        0.54845  -0.00304   0.00000  -0.06619  -0.06621   0.48224
   D27       -1.55619  -0.01093   0.00000  -0.15238  -0.15262  -1.70882
   D28       -1.52062   0.00295   0.00000   0.01023   0.01013  -1.51049
   D29        2.71506   0.00167   0.00000  -0.01273  -0.01294   2.70212
   D30        0.61041  -0.00621   0.00000  -0.09891  -0.09936   0.51106
   D31        2.88208  -0.00172   0.00000  -0.04906  -0.04885   2.83323
   D32        0.90383  -0.00037   0.00000  -0.03600  -0.03558   0.86825
   D33       -1.28506  -0.00243   0.00000  -0.05102  -0.05166  -1.33672
   D34       -0.28729   0.00119   0.00000   0.01707   0.01758  -0.26971
   D35        1.78504  -0.00204   0.00000   0.02269   0.02188   1.80692
   D36       -2.46040  -0.00515   0.00000   0.02738   0.02538  -2.43502
   D37       -2.17423   0.00277   0.00000   0.06761   0.06875  -2.10548
   D38        1.04956   0.00326   0.00000   0.08063   0.08188   1.13144
   D39       -0.07889   0.00076   0.00000   0.00896   0.00881  -0.07009
   D40       -3.13829   0.00125   0.00000   0.02199   0.02193  -3.11635
   D41        1.97188  -0.00141   0.00000   0.00678   0.00563   1.97751
   D42       -1.08751  -0.00092   0.00000   0.01980   0.01876  -1.06876
   D43       -0.09159  -0.00261   0.00000  -0.02005  -0.02065  -0.11223
   D44        2.04731   0.00069   0.00000  -0.00222  -0.00261   2.04469
   D45       -2.18211   0.00132   0.00000   0.01406   0.01381  -2.16830
   D46       -3.10358  -0.00033   0.00000   0.00495   0.00473  -3.09884
   D47        0.02369  -0.00003   0.00000   0.00938   0.00905   0.03274
   D48       -0.04683  -0.00028   0.00000  -0.00606  -0.00591  -0.05274
   D49        3.08045   0.00002   0.00000  -0.00163  -0.00160   3.07885
   D50        3.10957  -0.00110   0.00000  -0.01716  -0.01737   3.09220
   D51       -0.04672   0.00025   0.00000   0.01395   0.01377  -0.03295
   D52        0.04963  -0.00015   0.00000  -0.00286  -0.00282   0.04681
   D53       -3.10666   0.00120   0.00000   0.02826   0.02832  -3.07834
   D54        1.04202  -0.00335   0.00000  -0.04245  -0.04223   0.99978
   D55       -1.05933  -0.00071   0.00000  -0.00571  -0.00539  -1.06471
   D56        3.12703   0.00220   0.00000   0.02689   0.02678  -3.12937
   D57       -1.03201  -0.00172   0.00000  -0.03589  -0.03600  -1.06801
   D58       -3.13336   0.00091   0.00000   0.00085   0.00085  -3.13250
   D59        1.05300   0.00383   0.00000   0.03345   0.03302   1.08602
   D60       -3.06675  -0.00367   0.00000  -0.05061  -0.05050  -3.11725
   D61        1.11509  -0.00103   0.00000  -0.01387  -0.01365   1.10144
   D62       -0.98173   0.00188   0.00000   0.01873   0.01851  -0.96322
   D63        1.24769   0.00003   0.00000   0.00860   0.00919   1.25689
   D64       -2.90825  -0.00162   0.00000  -0.02470  -0.02448  -2.93273
   D65       -0.86917   0.00062   0.00000  -0.01232  -0.01313  -0.88231
   D66        0.00972   0.00017   0.00000   0.00834   0.00828   0.01801
   D67        3.13723   0.00011   0.00000   0.00436   0.00435   3.14158
   D68       -3.11733   0.00000   0.00000   0.00463   0.00447  -3.11286
   D69        0.01018  -0.00006   0.00000   0.00065   0.00053   0.01071
   D70        0.02068  -0.00014   0.00000  -0.00320  -0.00318   0.01750
   D71       -3.12630  -0.00031   0.00000  -0.00762  -0.00773  -3.13403
   D72       -3.10763  -0.00008   0.00000   0.00061   0.00060  -3.10703
   D73        0.02858  -0.00024   0.00000  -0.00382  -0.00395   0.02463
   D74       -0.01616  -0.00019   0.00000  -0.00559  -0.00553  -0.02169
   D75        3.12365  -0.00024   0.00000  -0.00556  -0.00550   3.11815
   D76        3.13094  -0.00012   0.00000  -0.00144  -0.00157   3.12937
   D77       -0.01244  -0.00017   0.00000  -0.00141  -0.00154  -0.01397
   D78       -0.01834   0.00027   0.00000   0.00832   0.00830  -0.01003
   D79        3.13738  -0.00102   0.00000  -0.02158  -0.02164   3.11574
   D80        3.12504   0.00031   0.00000   0.00826   0.00825   3.13329
   D81       -0.00242  -0.00098   0.00000  -0.02164  -0.02170  -0.02412
         Item               Value     Threshold  Converged?
 Maximum Force            0.022036     0.000450     NO 
 RMS     Force            0.005438     0.000300     NO 
 Maximum Displacement     0.454988     0.001800     NO 
 RMS     Displacement     0.138429     0.001200     NO 
 Predicted change in Energy=-1.214436D-02
 GradGradGradGradGradGradGradGradGradGradGradGradGradGradGradGradGradGrad

                          Input orientation:                          
 ---------------------------------------------------------------------
 Center     Atomic      Atomic             Coordinates (Angstroms)
 Number     Number       Type             X           Y           Z
 ---------------------------------------------------------------------
      1          6           0       -3.752729   -1.700239    0.316761
      2          6           0       -2.290514   -2.070929    0.526046
      3          6           0       -1.568408   -0.886988   -0.145764
      4          8           0       -2.090042   -3.328331   -0.076073
      5          1           0       -2.048357   -2.094712    1.597708
      6          8           0       -2.422052    0.229799    0.016642
      7          1           0       -1.420874   -1.089023   -1.216767
      8          7           0       -0.283405   -0.459024    0.450450
      9          6           0       -3.750684   -0.190404    0.396175
     10          1           0       -4.416261   -2.168146    1.057380
     11          8           0       -4.159664   -2.063038   -0.998615
     12          6           0       -4.064772    0.367856    1.776367
     13          1           0       -4.454005    0.226025   -0.337495
     14          8           0       -3.167251   -0.108461    2.772805
     15          1           0       -5.068815    0.047521    2.080092
     16          1           0       -4.053006    1.468422    1.734185
     17          1           0       -3.742163   -2.922516   -1.160686
     18          1           0       -1.125093   -3.409401   -0.183895
     19          1           0       -2.320972    0.323910    2.619669
     20          6           0       -0.149990    0.833951    0.915140
     21          6           0        0.999787    1.318808    1.427939
     22          6           0        2.177581    0.466171    1.486190
     23          7           0        1.966014   -0.796984    0.961022
     24          6           0        0.803768   -1.309842    0.437467
     25          1           0       -1.045690    1.443365    0.828244
     26          1           0        1.099182    2.335697    1.791687
     27          1           0        2.758504   -1.428574    0.955672
     28          8           0        3.266679    0.792267    1.934113
     29          8           0        0.777255   -2.448649   -0.018844
 ---------------------------------------------------------------------
                    Distance matrix (angstroms):
                    1          2          3          4          5
     1  C    0.000000
     2  C    1.522919   0.000000
     3  C    2.376250   1.540935   0.000000
     4  O    2.359985   1.408473   2.497422   0.000000
     5  H    2.168253   1.098939   2.174545   2.079687   0.000000
     6  O    2.363434   2.360115   1.415025   3.574789   2.835978
     7  H    2.857068   2.181240   1.099833   2.600667   3.053918
     8  N    3.687099   2.575352   1.479817   3.431339   2.665846
     9  C    1.511924   2.384394   2.353987   3.581527   2.822763
    10  H    1.098967   2.193301   3.346518   2.835849   2.429880
    11  O    1.423879   2.412130   2.970699   2.595262   3.346567
    12  C    2.550458   3.264806   3.391319   4.581799   3.187803
    13  H    2.151821   3.271451   3.098746   4.276694   3.862380
    14  O    2.984744   3.109320   3.417667   4.432161   2.564755
    15  H    2.809998   3.823852   4.252128   4.991845   3.734304
    16  H    3.484203   4.134366   3.905815   5.489909   4.090620
    17  H    1.917530   2.382761   3.146212   2.017567   3.341104
    18  H    3.174329   1.911474   2.561357   0.974333   2.398945
    19  H    3.383858   3.181106   3.111309   4.545241   2.639783
    20  C    4.445211   3.629265   2.469627   4.697967   3.556229
    21  C    5.738970   4.809346   3.733324   5.779706   4.579533
    22  C    6.421018   5.227105   4.304270   5.920432   4.942581
    23  N    5.825372   4.464322   3.704756   4.892328   4.266690
    24  C    4.574784   3.187739   2.479150   3.565411   3.177546
    25  H    4.179944   3.740478   2.579239   4.967650   3.757048
    26  H    6.481145   5.701775   4.610364   6.763202   5.438121
    27  H    6.548142   5.107816   4.497627   5.308670   4.895086
    28  O    7.622369   6.408037   5.524840   7.050861   6.057840
    29  O    4.603641   3.138597   2.820821   2.999751   3.274538
                    6          7          8          9         10
     6  O    0.000000
     7  H    2.064691   0.000000
     8  N    2.288335   2.114320   0.000000
     9  C    1.444257   2.972728   3.478093   0.000000
    10  H    3.287878   3.912619   4.513310   2.188983   0.000000
    11  O    3.050761   2.915006   4.438247   2.370540   2.074609
[...]
 0.02225282,-0.01121404,0.02498857,0.02492791,0.01386350,-0.12754205,0.
 04658949,-0.01112988,0.74056124,0.00037949,-0.00016946,-0.00033750,0.0
 0125928,-0.00239666,-0.00110157,0.00079861,-0.00605178,-0.00409737,-0.
 00565123,0.00103658,0.00085194,0.00018900,0.00016714,-0.00001442,0.002
 22190,0.00159319,0.00087052,-0.00039065,0.00010649,0.00074004,0.015597
 43,0.03284481,0.01451088,-0.00024253,-0.00048483,0.00041926,-0.0000429
 8,0.00004010,0.00003437,-0.00072105,0.00050176,0.00007799,-0.00007400,
 -0.00011970,-0.00023259,0.00015966,0.00016331,-0.00008558,0.00005238,0
 .00052241,0.00032476,0.00004725,-0.00001376,0.00000851,-0.00004705,0.0
 0012666,0.00005081,0.00074749,-0.00011508,0.00029088,0.00650511,0.0029
 9466,0.00035215,-0.00036438,-0.00055162,0.00006694,-0.00586960,-0.0172
 3874,-0.00860992,0.01874091,-0.03673211,-0.00909459,0.01218108,-0.2172
 9767,-0.05303983,-0.13195847,0.68430269,0.00015635,-0.00014550,-0.0000
 9469,-0.00001620,-0.00173826,-0.00139291,0.00101195,-0.00108414,0.0034
 0085,-0.00351432,0.00073212,0.00061023,0.00005707,0.00009506,-0.000082
 55,-0.00045749,0.00063282,0.00024488,0.00065425,0.00000262,0.00027360,
 -0.01774957,0.01544913,0.00876113,0.00013307,-0.00004688,-0.00021758,-
 0.00010541,-0.00000318,0.00003198,-0.00049059,0.00021792,-0.00001136,-
 0.00016144,-0.00008849,-0.00032363,-0.00006516,0.00006711,0.00004327,0
 .00017957,0.00024658,0.00052150,0.00002556,-0.00001219,0.00004699,0.00
 001158,0.00004932,0.00003981,0.00045332,-0.00000358,0.00018267,0.00409
 149,0.00194383,0.00082822,-0.00028827,-0.00021761,-0.00024386,-0.00579
 800,-0.01371183,-0.00686914,0.01122603,-0.00663757,0.01161310,-0.02262
 651,-0.04158781,-0.07572952,0.19813190,0.16985351,0.19638771,-0.000617
 19,0.00091560,-0.00069764,0.00010355,-0.00354401,-0.00091439,-0.035079
 50,0.01646694,-0.00522086,-0.00467294,0.00224118,0.00087120,-0.0004014
 7,-0.00018958,0.00127297,-0.00064119,-0.00237198,-0.00152285,0.0017882
 5,0.00133896,0.00028262,-0.21271469,0.04573476,-0.03602470,-0.00197010
 ,0.00034912,0.00010997,0.00057054,-0.00003504,0.00002024,0.00105747,0.
 00051061,0.00081707,-0.00021039,0.00039837,-0.00007553,0.00004266,-0.0
 0014715,0.00011232,0.00067932,-0.00079336,-0.00088752,0.00012472,0.000
 04616,-0.00008164,-0.00004100,-0.00009616,0.00005992,-0.00023373,-0.00
 044470,-0.00012290,0.00504703,-0.00092334,-0.00066346,-0.00001785,0.00
 096470,0.00091651,0.03283149,0.05148271,0.03035366,-0.03510632,0.00350
 501,-0.01220762,0.01794219,-0.08823544,-0.01869055,-0.26246018,0.00421
 658,-0.07246059,0.61788094,-0.00119975,-0.00005846,0.00217341,-0.00731
 638,0.01182334,0.00170769,0.01469911,0.02128415,0.01514582,0.01763664,
 -0.00653784,-0.00274911,-0.00062660,-0.00013290,0.00034556,-0.01076703
 ,-0.00253945,-0.00175662,-0.00467846,-0.00104187,-0.00479560,0.0604732
 0,-0.16424870,-0.01045672,0.00282664,0.00178706,-0.00293622,-0.0004958
 0,-0.00017915,-0.00009792,0.00136448,-0.00207839,-0.00065887,0.0004883
 2,-0.00027672,0.00068622,-0.00101109,-0.00046358,0.00035789,-0.0009647
 6,-0.00045159,-0.00007337,-0.00025512,0.00001263,0.00009550,0.00009339
 ,-0.00019255,-0.00023298,-0.00197018,0.00074251,-0.00075682,-0.0197936
 7,-0.01073624,-0.00348232,0.00110773,-0.00015052,-0.00093630,0.0189745
 3,-0.05051375,-0.01083059,0.01200214,0.00326145,0.00543658,-0.03468233
 ,0.00689003,-0.00544853,-0.03957262,-0.14680282,-0.04430358,0.00432462
 ,0.88379010,-0.00021022,0.00009371,0.00060833,-0.00195005,0.00443324,0
 .00313227,-0.00851427,0.01366999,0.00146624,0.00648380,-0.00202091,-0.
 00111651,0.00006509,-0.00002147,-0.00025083,-0.00321972,-0.00192308,-0
 .00010064,-0.00256376,-0.00056824,-0.00172764,-0.02780328,-0.01988245,
 -0.08552098,0.00010313,0.00060672,-0.00108178,-0.00001948,-0.00000810,
 -0.00009927,0.00061502,-0.00056915,-0.00040480,0.00037018,-0.00003232,
 0.00051387,-0.00026945,-0.00019056,0.00011558,-0.00050429,-0.00012822,
 -0.00059697,-0.00006322,0.00002926,-0.00005920,-0.00001733,-0.00003475
 ,-0.00008252,-0.00077051,0.00015415,-0.00022173,-0.00696992,-0.0039483
 0,-0.00194019,0.00053740,-0.00000401,0.00021501,0.01760579,0.00354678,
 0.00598657,-0.00884985,0.00215628,-0.00192274,-0.00072750,-0.02418682,
 -0.02250830,-0.08675067,-0.02991983,-0.09955980,0.14535901,0.23968783,
 0.34850999,-0.00000919,-0.00023015,-0.00006983,-0.00015665,0.00000869,
 0.00014098,-0.00037190,-0.00046655,-0.00010055,-0.00028217,0.00042681,
 -0.00001245,0.00003619,0.00003509,-0.00004617,-0.00395697,-0.00319449,
 -0.00318208,0.00001986,0.00034319,0.00019496,0.00757391,-0.00068478,0.
 00158705,-0.00150960,-0.00052121,0.00039108,-0.00002647,0.00008339,0.0
 0001655,0.00000583,0.00020620,0.00013498,0.00046660,-0.00047235,0.0004
 2514,0.00014091,0.00000728,-0.00006177,-0.00050478,-0.00001532,-0.0003
 1515,0.00001129,0.00019524,-0.00011986,-0.00022598,0.00029695,0.000104
 96,0.00003850,-0.00003835,-0.00001004,0.00026473,0.00003833,0.00004379
 ,0.00046711,-0.00002214,0.00028448,-0.24084110,0.14600731,-0.03235478,
 -0.01061566,0.01429579,-0.00272315,-0.00075963,-0.00103102,-0.00540797
 ,-0.00023996,-0.00075318,0.00001488,0.00087259,-0.00074257,-0.00132914
 ,0.25072380,0.00017206,-0.00013554,-0.00025874,-0.00002462,-0.00031341
 ,-0.00018116,0.00324985,-0.00177132,0.00067399,-0.00037880,0.00031867,
 0.00011222,0.00005679,0.00002400,-0.00004963,0.00063734,0.00173365,0.0
 0046266,-0.00020009,0.00001848,0.00002383,0.02623663,-0.02126797,0.002
 17074,-0.00142992,-0.00004486,0.00062965,0.00000320,0.00012684,-0.0000
 0980,0.00000151,0.00018244,0.00010869,-0.00036369,0.00030128,-0.000179
 20,0.00018578,0.00003694,0.00000261,0.00043770,0.00003844,-0.00027109,
 0.00009736,-0.00002469,-0.00006163,0.00002815,-0.00005235,0.00003770,0
 .00005767,-0.00004487,-0.00000802,0.00042355,0.00013681,0.00004455,-0.
 00040986,-0.00027784,0.00104164,0.13864764,-0.15784608,0.01808159,-0.0
 0901895,0.01137383,-0.00235116,-0.00096690,-0.00029060,-0.00410355,0.0
 0007618,0.00065175,0.00050984,-0.00524609,-0.00149121,-0.00307111,-0.1
 5236067,0.17034610,0.00019082,0.00011147,-0.00020147,0.00018357,-0.000
 09893,0.00033551,0.00186246,-0.00013130,-0.00106186,-0.00013629,0.0002
 3420,-0.00006433,0.00001754,0.00007142,-0.00004041,-0.00096482,-0.0006
 9012,-0.00187588,-0.00042836,-0.00011038,-0.00007566,0.00980939,-0.009
 54874,0.00434213,-0.00099666,0.00016071,0.00072767,0.00003977,0.000115
 24,-0.00000005,0.00000117,0.00003196,-0.00002778,0.00061587,0.00015346
 ,0.00055544,0.00010393,-0.00000596,-0.00006037,-0.00062362,-0.00023617
 ,-0.00041133,-0.00006482,-0.00007763,-0.00013576,0.00006630,-0.0000947
 4,0.00003112,0.00001404,-0.00003104,0.00000351,0.00018013,0.00003653,0
 .00005428,0.00068635,0.00095695,-0.00066056,-0.03634192,0.02282012,-0.
 05081821,-0.00988286,0.00627824,0.00651431,-0.00481432,-0.00485419,0.0
 0900160,0.00043731,0.00037644,-0.00056626,-0.00275235,-0.00210843,0.00
 224410,0.03979753,-0.01530841,0.03955564,0.00001285,-0.00005025,0.0000
 2587,-0.00003167,0.00019296,-0.00013966,0.00133943,-0.00096891,-0.0005
 6879,0.00005170,-0.00012496,0.00003683,0.00000587,-0.00001699,0.000006
 80,-0.00017809,0.00030630,0.00020161,-0.00036631,-0.00013079,-0.000143
 65,-0.00382397,-0.00066931,-0.00465364,0.00015116,0.00004785,-0.000107
 94,-0.00002892,-0.00000480,0.00000156,-0.00003749,0.00000037,0.0000133
 7,-0.00004398,-0.00006468,-0.00006068,-0.00002791,-0.00000255,0.000011
 45,0.00000954,0.00008013,0.00012095,0.00000270,0.00001207,0.00001731,-
 0.00001544,0.00002117,-0.00000696,0.00001871,0.00001593,-0.00000055,-0
 .00009749,0.00000448,-0.00002433,0.00001165,-0.00014703,-0.00011467,0.
 00093704,-0.02593826,-0.00716829,-0.05281754,-0.02348300,-0.01688165,0
 .00818464,0.02235247,0.00938905,-0.00399900,0.00420475,-0.00100832,-0.
 00243192,0.00023341,-0.00070799,0.00008185,-0.00037766,0.00198612,0.05
 120578,0.00000788,0.00000780,-0.00003991,0.00012786,-0.00000980,-0.000
 00856,0.00046316,0.00011258,-0.00043429,-0.00005301,0.00003073,0.00004
 744,0.00000380,-0.00000812,0.00001585,-0.00001786,0.00004270,0.0000498
 2,-0.00014933,-0.00004827,-0.00003911,-0.00047831,0.00357374,-0.001523
 33,0.00003691,0.00001807,-0.00003095,0.00000387,-0.00000631,0.00000121
 ,0.00000235,0.00001393,0.00002510,-0.00005739,0.00002308,-0.00007364,-
 0.00000354,0.00000004,0.00000950,0.00007739,0.00002265,0.00009507,0.00
 000943,0.00000124,0.00001111,-0.00000357,-0.00000485,0.00000496,0.0000
 0418,-0.00000216,-0.00000262,0.00004903,0.00001357,-0.00000272,-0.0000
 7000,-0.00006395,-0.00011430,0.00217024,-0.00391114,0.00002477,-0.0238
 8647,-0.32356982,-0.10136682,-0.00792530,-0.01190793,-0.00702594,0.003
 28754,-0.00163566,-0.00025388,0.00181329,-0.00004005,0.00070020,-0.000
 78985,0.00009323,0.00154583,0.02639869,0.33558738,0.00000305,-0.000099
 33,0.00012380,-0.00048480,0.00009828,-0.00025000,-0.00017474,-0.000893
 45,0.00173182,0.00006107,-0.00011541,-0.00004782,0.00002283,0.00001782
 ,-0.00002863,0.00008387,0.00016135,0.00007580,0.00028515,0.00007696,0.
 00015634,-0.00429358,-0.00155319,0.00575382,-0.00006838,-0.00007090,-0
 .00002010,-0.00003661,0.00002384,-0.00000771,-0.00001397,-0.00000110,-
 0.00005991,0.00004396,-0.00002877,0.00003870,-0.00000126,0.00000050,-0
 .00000307,-0.00002651,0.00001157,-0.00011599,0.00000350,0.00000111,-0.
 00000811,-0.00000329,0.00001255,0.00000976,0.00000385,0.00000155,0.000
 01397,-0.00005955,0.00000588,-0.00000818,-0.00001990,0.00002642,0.0001
 9363,0.00144912,-0.01078256,-0.00399704,-0.01740542,-0.10043780,-0.064
 68519,0.00049038,0.00363903,0.00251854,-0.00131754,0.00007029,0.002337
 31,-0.00033633,0.00025018,-0.00023239,0.00203610,0.00154912,-0.0044105
 8,0.01876503,0.10753881,0.06262264,-0.00006817,0.00000253,-0.00000077,
 -0.00007815,0.00023280,0.00005616,0.00029550,0.00118582,0.00026877,0.0
 0053004,-0.00003967,-0.00002789,-0.00003794,-0.00002985,0.00004058,-0.
 00029426,-0.00001123,0.00004373,-0.00008157,-0.00004886,-0.00009295,-0
 .00245105,-0.00367264,-0.00395307,-0.00002760,0.00007733,-0.00012025,0
 .00000601,-0.00000425,-0.00000122,0.00010829,-0.00001601,0.00004883,-0
 .00006255,0.00002344,-0.00005738,-0.00002622,-0.00002367,0.00002669,0.
 00010820,-0.00004656,0.00001815,0.00001537,0.00000459,0.00000483,-0.00
 000203,-0.00001186,0.00000610,-0.00008523,-0.00000208,-0.00004441,-0.0
 0059350,-0.00032948,-0.00005949,-0.00006656,0.00002312,0.00002058,0.00
 033424,-0.00066513,0.00011569,0.00068206,-0.00186373,-0.00181084,0.013
 20650,-0.00193730,0.00356859,-0.27716743,0.19036908,-0.02697734,-0.020
 69072,0.02256284,0.00086939,-0.00013017,0.00000790,0.00010133,0.000497
 50,-0.00042001,-0.00001456,0.28556151,0.00002960,-0.00000705,0.0000562
 4,-0.00000916,0.00025995,-0.00000592,0.00039780,0.00084864,0.00016439,
 0.00000084,-0.00022777,-0.00003826,-0.00000445,0.00000309,-0.00001620,
 -0.00069510,0.00003385,0.00005721,-0.00006206,-0.00005484,-0.00005460,
 -0.00421405,0.00028447,-0.00317879,0.00017734,0.00010520,-0.00017568,-
 0.00003165,-0.00000837,0.00000183,-0.00005888,-0.00005507,-0.00004043,
 -0.00000514,-0.00002676,-0.00000583,-0.00005734,-0.00001299,0.00001912
 ,-0.00003855,0.00001477,0.00006304,-0.00001000,0.00000019,0.00001409,0
 .00000711,0.00000093,-0.00000686,0.00001544,0.00003535,0.00000998,0.00
 001810,0.00014650,0.00003999,0.00003330,-0.00002745,-0.00006209,-0.001
 04872,-0.00091586,-0.00040114,-0.00242923,-0.00414683,-0.00369765,0.02
 774667,-0.01601954,0.00403656,0.19561580,-0.23236469,-0.00447953,-0.00
 879144,0.01673497,0.00306076,-0.00000704,-0.00000399,0.00014267,0.0011
 7564,-0.00046675,0.00019705,-0.20569836,0.23491505,-0.00000257,0.00001
 794,0.00005114,-0.00008837,0.00015492,0.00007545,-0.00015315,0.0003925
 0,0.00116994,0.00030608,-0.00008450,-0.00008844,0.00000640,-0.00002356
 ,-0.00001870,-0.00031653,0.00001427,-0.00016545,0.00003188,0.00004853,
 -0.00002062,-0.00392672,-0.00255212,0.00226724,-0.00001027,0.00003604,
 -0.00006563,0.00000140,-0.00000176,-0.00000951,0.00000873,-0.00003357,
 -0.00005951,0.00003702,-0.00002435,0.00002768,-0.00003625,-0.00001021,
 0.00001556,-0.00003959,0.00003257,-0.00005802,-0.00000368,-0.00000007,
 0.00000330,-0.00000931,0.00000860,-0.00000661,-0.00002852,0.00000858,0
 .00000915,-0.00032283,-0.00015505,-0.00001045,0.00000236,-0.00004086,0
 .00004020,-0.00002218,-0.00041237,-0.00089729,-0.00215404,-0.00344081,
 0.00195625,0.01404835,-0.00658964,0.00417782,-0.02517397,-0.00658113,-
 0.02961680,-0.00991754,0.01432752,0.00051840,0.00010185,0.00011550,-0.
 00029830,0.00053923,-0.00037712,0.00028648,0.02488481,0.00192605,0.026
 79279,0.00035765,-0.00016797,0.00054804,-0.00046435,0.00128769,-0.0006
 3482,0.00410709,-0.00057721,0.00116588,-0.00090849,-0.00114589,-0.0000
 9859,0.00011985,0.00006557,-0.00019743,-0.00289390,-0.00008295,0.00013
 286,-0.00088966,-0.00021306,-0.00027430,-0.00171766,-0.01008601,-0.003
 11767,0.00161445,0.00027552,-0.00079665,-0.00027935,-0.00005270,0.0000
 1117,-0.00074596,-0.00031879,-0.00046339,0.00018006,-0.00022644,0.0001
 0874,-0.00027419,0.00002073,0.00003842,-0.00054964,0.00020554,0.000502
 20,-0.00013153,-0.00003548,0.00007885,0.00010587,0.00002960,-0.0000640
 7,0.00037247,0.00022018,0.00018893,0.00098452,0.00099211,0.00011032,0.
 00055979,-0.00004768,-0.00076300,0.00574518,0.01697082,0.00632113,-0.0
 6186107,0.00117804,-0.03059877,-0.57964593,-0.09063434,-0.21875844,-0.
 02314983,-0.04600623,-0.03167501,0.00524977,0.00487071,0.00099960,-0.0
 0105499,-0.00101071,0.00029717,0.00074861,-0.00016746,0.00073989,-0.00
 316853,-0.00254526,-0.00061598,0.66037597,0.00011706,-0.00007226,-0.00
 004930,0.00022488,-0.00036015,-0.00022253,0.00081191,-0.00004598,0.000
 21915,-0.00112327,0.00023824,0.00015443,0.00006304,0.00000639,-0.00004
 894,-0.00044586,0.00078674,0.00028630,-0.00006412,-0.00003618,0.000119
 73,-0.00716239,0.00888709,0.00060064,0.00001020,0.00001136,-0.00014962
 ,-0.00003664,0.00000559,0.00000583,-0.00023475,0.00010926,-0.00002089,
 -0.00003898,-0.00010358,-0.00010612,-0.00004773,0.00001655,0.00001928,
 0.00001884,0.00023579,0.00015558,0.00001306,0.00000254,0.00002020,-0.0
 0002259,0.00006248,0.00000982,0.00019374,-0.00000870,0.00007586,0.0012
 8548,0.00054758,0.00017047,-0.00014513,-0.00028628,0.00000454,0.003069
 11,-0.01089091,-0.00376483,0.02148992,0.02284388,0.00799899,-0.0942635
 3,-0.11924838,-0.05036409,-0.07001192,-0.02101778,-0.03957038,0.021707
 82,-0.00486613,0.00347161,0.00033723,0.00044419,0.00123348,-0.00300971
 ,0.00198933,0.00012465,0.00064707,0.00443267,0.00317849,0.13292337,0.1
 2022836,0.00016190,-0.00009490,0.00015763,0.00000910,0.00046250,-0.000
 36563,0.00192454,-0.00023834,0.00018168,-0.00065609,-0.00043295,0.0000
 7009,0.00005752,0.00001289,-0.00005927,-0.00129011,0.00033001,0.000253
 71,-0.00044490,-0.00002665,-0.00002381,-0.00306455,-0.00070566,-0.0010
 1256,0.00065152,0.00010204,-0.00040100,-0.00012591,-0.00002042,0.00000
 994,-0.00034437,-0.00007738,-0.00011592,-0.00005073,-0.00008581,-0.000
 08698,-0.00012060,0.00001617,0.00003085,-0.00008259,0.00015213,0.00037
 293,-0.00003196,-0.00001517,0.00004356,0.00003903,0.00001901,-0.000015
 17,0.00020775,0.00007982,0.00007583,0.00073258,0.00055487,-0.00002123,
 0.00012490,-0.00010875,-0.00034911,0.00171436,0.00139828,0.00459273,-0
 .02418803,0.00071505,0.01394446,-0.22012577,-0.04907209,-0.17376118,-0
 .03997052,-0.03096113,-0.00656643,0.00692390,-0.00243273,0.00860521,0.
 00077919,0.00059735,-0.00225567,0.00011451,0.00118518,-0.00167944,0.00
 056297,0.00205796,-0.00316155,0.27914132,0.07941523,0.16489787,0.00075
 829,-0.00028479,-0.00030275,0.00165469,-0.00599256,-0.00292425,0.00181
 779,-0.00239515,0.00084782,-0.01783061,-0.00393395,0.00009581,0.000063
 91,0.00041535,-0.00009860,-0.00007310,0.00184643,0.00071236,0.00050690
 ,-0.00005946,0.00100184,0.01431252,0.04591250,0.01356551,0.00036815,-0
 .00018618,-0.00005139,-0.00007441,0.00001952,0.00002101,-0.00124284,0.
 00072137,-0.00029503,-0.00014926,-0.00015296,-0.00035181,0.00000247,0.
 00015855,-0.00001829,0.00007692,0.00043427,0.00061842,0.00001277,-0.00
 002953,0.00006678,0.00002585,0.00010499,0.00005903,0.00121862,-0.00011
 998,0.00078115,-0.00486189,0.00570014,0.00197795,-0.00027131,-0.000273
 75,-0.00022665,-0.00894281,-0.00633744,-0.00674259,0.00663195,-0.00233
 096,0.00200739,-0.00438224,0.02074297,0.00290967,-0.00530917,-0.065548
 66,-0.03275281,-0.10690132,-0.03758143,-0.02176774,-0.00001796,0.00146
 864,0.00061523,0.00064071,-0.00043353,0.00026863,0.00368647,0.00048878
 ,0.00285337,-0.00278621,-0.00630611,-0.00264895,0.12106514,0.00057047,
 0.00054934,-0.00159603,0.00329138,-0.01047757,-0.00250842,-0.01226447,
 -0.00468571,-0.00491543,-0.02140540,0.00510894,0.00132958,0.00051095,0
 .00027179,0.00007490,0.00323994,0.00208388,0.00015133,0.00220998,0.000
 66455,0.00204447,0.03356799,-0.07108022,-0.02345865,-0.00223702,-0.000
 97749,0.00105046,0.00036893,0.00003845,0.00010563,-0.00116742,0.001713
 81,0.00064390,-0.00032935,0.00006199,-0.00066439,0.00037541,0.00030014
 ,-0.00009198,0.00069460,0.00053506,0.00035167,0.00018916,0.00000415,-0
 .00004437,-0.00009015,0.00020795,0.00018975,0.00183701,-0.00068830,0.0
 0081843,0.01602169,0.00507803,0.00312023,-0.00086936,-0.00026752,0.000
 52950,0.00646688,0.00449458,0.00233289,-0.00054652,-0.00406010,-0.0013
 6097,0.00354613,0.01178233,0.00268798,-0.03568892,-0.04205918,-0.03591
 547,-0.04519815,-0.55352433,-0.18510119,-0.00095183,-0.00226190,-0.000
 97268,-0.00005735,0.00014474,0.00017554,-0.00031583,-0.00347766,0.0000
 6561,-0.00572170,-0.00391172,-0.00282652,0.05395293,0.66443198,-0.0001
 0657,0.00015118,-0.00031822,0.00170582,-0.00232006,-0.00212233,-0.0015
 0598,-0.00142116,-0.00575407,-0.00558721,0.00014784,0.00382536,0.00008
 779,0.00017259,0.00067246,-0.00030117,0.00150015,0.00116980,0.00124643
 ,0.00024486,0.00159771,0.00902553,-0.01591703,0.01630769,0.00009930,0.
 00020657,0.00023972,0.00003942,-0.00001198,0.00006871,-0.00011676,0.00
 038114,0.00061105,-0.00043773,-0.00001551,-0.00038495,0.00007732,0.000
 05167,-0.00001694,0.00043911,0.00004777,0.00033021,0.00005603,0.000003
 21,0.00007448,0.00000011,0.00002633,0.00005204,0.00055318,-0.00020424,
 0.00003020,0.00416703,0.00271898,-0.00390246,-0.00036441,-0.00003770,0
 .00003996,-0.00237293,-0.00271272,0.00294846,0.00272407,-0.00177390,-0
 .00065809,-0.00297667,0.00888043,0.00915583,-0.02194120,-0.04482384,-0
 .00404874,-0.02452290,-0.18615751,-0.15448927,-0.00032056,-0.00030817,
 -0.00040079,0.00035746,0.00003835,-0.00030844,0.00252298,0.00031603,-0
 .00291452,-0.00232638,-0.00296754,-0.00336154,0.03977891,0.24378425,0.
 14155669\\-0.00000153,0.00000871,0.00000785,0.00000053,-0.00000860,-0.
 00000215,0.00001874,0.00000428,-0.00000125,-0.00001379,0.00000513,0.00
 000342,0.00000160,0.00000027,0.00000122,-0.00000800,0.00000349,0.00000
 784,-0.00000199,-0.00000302,-0.00000045,-0.00000807,-0.00001275,-0.000
 00493,0.00000642,-0.00000424,-0.00001091,-0.00000048,-0.00000241,-0.00
 000252,0.00000174,0.00000034,-0.00000063,0.00000190,-0.00000635,0.0000
 0706,-0.00000513,-0.00000115,0.00000075,-0.00000269,0.00000021,-0.0000
 0477,-0.00000098,0.00000127,0.00000015,0.00000041,-0.00000140,-0.00000
 114,0.00000087,-0.00000482,0.00000107,0.00001092,0.00000202,-0.0000035
 7,0.00000177,0.00000152,0.00000097,0.00000423,0.00000900,0.00000582,0.
 00000110,0.00000402,-0.00001116,-0.00000155,-0.00001821,0.00002623,0.0
 0000268,-0.00000046,0.00000482,-0.00000374,0.00001562,-0.00000106,0.00
 000008,-0.00000056,0.00000281,-0.00000324,0.00000147,-0.00000268,-0.00
 000069,0.00000319,-0.00000341,-0.00000407,0.00000871,-0.00001560,0.000
 00296,-0.00000527,-0.00000378\\\@
 The archive entry for this job was punched.


 NEVER LISTEN TO CRITICISM
 OR YOU'LL BE DOIN' EVERYBODY ELSE'S THING BUT BUT YOUR OWN.

                                               -- ANDY CAPP
 Job cpu time:       0 days 10 hours 47 minutes 26.5 seconds.
 Elapsed time:       0 days  0 hours 16 minutes 19.2 seconds.
 File lengths (MBytes):  RWF=    632 Int=      0 D2E=      0 Chk=     21 Scr=      1
 Normal termination of Gaussian 16 at Thu Oct 17 12:33:57 2024.
