 Entering Gaussian System, Link 0=g16
 Input=UridineRSsllgPBE0aVDZ.gjf
 Output=UridineRSsllgPBE0aVDZ.log
 Initial command:
 /sw/contrib/chem-src/g16/c01/g16/l1.exe "/scr/Gau-63756.inp" -scrdir="/scr/"
 Entering Link 1 = /sw/contrib/chem-src/g16/c01/g16/l1.exe PID=     63757.
  
 Copyright (c) 1988-2019, Gaussian, Inc.  All Rights Reserved.
  
 This is part of the Gaussian(R) 16 program.  It is based on
 the Gaussian(R) 09 system (copyright 2009, Gaussian, Inc.),
 the Gaussian(R) 03 system (copyright 2003, Gaussian, Inc.),
 the Gaussian(R) 98 system (copyright 1998, Gaussian, Inc.),
 the Gaussian(R) 94 system (copyright 1995, Gaussian, Inc.),
 the Gaussian 92(TM) system (copyright 1992, Gaussian, Inc.),
 the Gaussian 90(TM) system (copyright 1990, Gaussian, Inc.),
 the Gaussian 88(TM) system (copyright 1988, Gaussian, Inc.),
 the Gaussian 86(TM) system (copyright 1986, Carnegie Mellon
 University), and the Gaussian 82(TM) system (copyright 1983,
 Carnegie Mellon University). Gaussian is a federally registered
 trademark of Gaussian, Inc.
  
 This software contains proprietary and confidential information,
 including trade secrets, belonging to Gaussian, Inc.
  
 This software is provided under written license and may be
 used, copied, transmitted, or stored only in accord with that
 written license.
  
 The following legend is applicable only to US Government
 contracts under FAR:
  
                    RESTRICTED RIGHTS LEGEND
  
 Use, reproduction and disclosure by the US Government is
 subject to restrictions as set forth in subparagraphs (a)
 and (c) of the Commercial Computer Software - Restricted
 Rights clause in FAR 52.227-19.
  
 Gaussian, Inc.
 340 Quinnipiac St., Bldg. 40, Wallingford CT 06492
  
  
 ---------------------------------------------------------------
 Warning -- This program may not be used in any manner that
 competes with the business of Gaussian, Inc. or will provide
 assistance to any competitor of Gaussian, Inc.  The licensee
 of this program is prohibited from giving any competitor of
 Gaussian, Inc. access to this program.  By using this program,
 the user acknowledges that Gaussian, Inc. is engaged in the
 business of creating and licensing software in the field of
 computational chemistry and represents and warrants to the
 licensee that it is not a competitor of Gaussian, Inc. and that
 it will not use this program in any manner prohibited above.
 ---------------------------------------------------------------
  

 Cite this work as:
 Gaussian 16, Revision C.01,
 M. J. Frisch, G. W. Trucks, H. B. Schlegel, G. E. Scuseria, 
 M. A. Robb, J. R. Cheeseman, G. Scalmani, V. Barone, 
 G. A. Petersson, H. Nakatsuji, X. Li, M. Caricato, A. V. Marenich, 
 J. Bloino, B. G. Janesko, R. Gomperts, B. Mennucci, H. P. Hratchian, 
 J. V. Ortiz, A. F. Izmaylov, J. L. Sonnenberg, D. Williams-Young, 
 F. Ding, F. Lipparini, F. Egidi, J. Goings, B. Peng, A. Petrone, 
 T. Henderson, D. Ranasinghe, V. G. Zakrzewski, J. Gao, N. Rega, 
 G. Zheng, W. Liang, M. Hada, M. Ehara, K. Toyota, R. Fukuda, 
 J. Hasegawa, M. Ishida, T. Nakajima, Y. Honda, O. Kitao, H. Nakai, 
 T. Vreven, K. Throssell, J. A. Montgomery, Jr., J. E. Peralta, 
 F. Ogliaro, M. J. Bearpark, J. J. Heyd, E. N. Brothers, K. N. Kudin, 
 V. N. Staroverov, T. A. Keith, R. Kobayashi, J. Normand, 
 K. Raghavachari, A. P. Rendell, J. C. Burant, S. S. Iyengar, 
 J. Tomasi, M. Cossi, J. M. Millam, M. Klene, C. Adamo, R. Cammi, 
 J. W. Ochterski, R. L. Martin, K. Morokuma, O. Farkas, 
 J. B. Foresman, and D. J. Fox, Gaussian, Inc., Wallingford CT, 2019.
 
 ******************************************
 Gaussian 16:  EM64L-G16RevC.01  3-Jul-2019
                21-Oct-2024 
 ******************************************
 %nprocshared=40
 Will use up to   40 processors via shared memory.
 %mem=50gb
 ------------------------------------------------------
 # PBE1PBE/aug-cc-pVDZ opt freq EmpiricalDispersion=GD3
 ------------------------------------------------------
 1/18=20,19=15,26=3,38=1/1,3;
 2/9=110,12=2,17=6,18=5,40=1/2;
 3/5=16,7=10,11=2,25=1,30=1,71=1,74=-13,124=31/1,2,3;
 4//1;
 5/5=2,38=5/2;
 6/7=2,8=2,9=2,10=2,28=1/1;
 7//1,2,3,16;
 1/18=20,19=15,26=3/3(2);
 2/9=110/2;
 99//99;
 2/9=110/2;
 3/5=16,7=10,11=2,25=1,30=1,71=1,74=-13,124=31/1,2,3;
 4/5=5,16=3,69=1/1;
 5/5=2,38=5/2;
 7//1,2,3,16;
 1/18=20,19=15,26=3/3(-5);
 2/9=110/2;
 6/7=2,8=2,9=2,10=2,19=2,28=1/1;
 99/9=1/99;
 ----
 blah
 ----
 Symbolic Z-matrix:
 Charge =  0 Multiplicity = 2
 C                    -2.65426  -0.60158   0.23974 
 C                    -1.20059  -0.89246   0.64066 
 C                    -0.42162  -0.30406  -0.54706 
 O                    -1.0141   -2.26345   0.81735 
 H                    -0.9351   -0.3122    1.54273 
 O                    -1.13745   0.86978  -0.88239 
 H                    -0.43766  -1.02773  -1.37973 
 N                     0.96038   0.03929  -0.27292 
 C                    -2.53569   0.64341  -0.65096 
 H                    -3.28679  -0.40199   1.11939 
 O                    -3.16714  -1.68964  -0.4981 
 C                    -3.08909   1.92133  -0.05412 
 H                    -3.03852   0.4308   -1.60846 
 O                    -2.4684    2.24819   1.17326 
 H                    -4.16154   1.79481   0.14857 
 H                    -2.9709    2.74079  -0.7855 
 H                    -2.5902   -2.43107  -0.23558 
 H                    -0.06824  -2.41701   0.49425 
 H                    -1.51766   2.17853   1.02103 
 C                     1.41643   1.32935  -0.24785 
 C                     2.72787   1.58695  -0.06022 
 C                     3.67369   0.47385   0.08313 
 N                     3.16448  -0.8026    0.05739 
 C                     1.87206  -1.03596  -0.09784 
 H                     0.66834   2.10303  -0.40365 
 H                     3.10267   2.60841  -0.04002 
 O                     4.88517   0.69476   0.22124 
 O                     1.35551  -2.19067  -0.106 
 

 GradGradGradGradGradGradGradGradGradGradGradGradGradGradGradGradGradGrad
 Berny optimization.
 Initialization pass.
                           ----------------------------
                           !    Initial Parameters    !
                           ! (Angstroms and Degrees)  !
 --------------------------                            --------------------------
 ! Name  Definition              Value          Derivative Info.                !
 --------------------------------------------------------------------------------
 ! R1    R(1,2)                  1.5357         estimate D2E/DX2                !
 ! R2    R(1,9)                  1.5354         estimate D2E/DX2                !
 ! R3    R(1,10)                 1.1017         estimate D2E/DX2                !
 ! R4    R(1,11)                 1.4111         estimate D2E/DX2                !
 ! R5    R(2,3)                  1.5374         estimate D2E/DX2                !
 ! R6    R(2,4)                  1.3948         estimate D2E/DX2                !
 ! R7    R(2,5)                  1.105          estimate D2E/DX2                !
 ! R8    R(3,6)                  1.4152         estimate D2E/DX2                !
 ! R9    R(3,7)                  1.1033         estimate D2E/DX2                !
 ! R10   R(3,8)                  1.4502         estimate D2E/DX2                !
 ! R11   R(4,18)                 1.0113         estimate D2E/DX2                !
 ! R12   R(6,9)                  1.4352         estimate D2E/DX2                !
 ! R13   R(8,20)                 1.3685         estimate D2E/DX2                !
 ! R14   R(8,24)                 1.4205         estimate D2E/DX2                !
 ! R15   R(9,12)                 1.5151         estimate D2E/DX2                !
 ! R16   R(9,13)                 1.1022         estimate D2E/DX2                !
 ! R17   R(11,17)                0.9755         estimate D2E/DX2                !
 ! R18   R(12,14)                1.4137         estimate D2E/DX2                !
 ! R19   R(12,15)                1.0987         estimate D2E/DX2                !
 ! R20   R(12,16)                1.1047         estimate D2E/DX2                !
 ! R21   R(14,19)                0.9654         estimate D2E/DX2                !
 ! R22   R(20,21)                1.3496         estimate D2E/DX2                !
 ! R23   R(20,25)                1.0874         estimate D2E/DX2                !
 ! R24   R(21,22)                1.4677         estimate D2E/DX2                !
 ! R25   R(21,26)                1.0882         estimate D2E/DX2                !
 ! R26   R(22,23)                1.3745         estimate D2E/DX2                !
 ! R27   R(22,27)                1.2392         estimate D2E/DX2                !
 ! R28   R(23,24)                1.3225         estimate D2E/DX2                !
 ! R29   R(24,28)                1.265          estimate D2E/DX2                !
 ! A1    A(2,1,9)              103.4108         estimate D2E/DX2                !
 ! A2    A(2,1,10)             111.6746         estimate D2E/DX2                !
 ! A3    A(2,1,11)             109.541          estimate D2E/DX2                !
 ! A4    A(9,1,10)             111.1393         estimate D2E/DX2                !
 ! A5    A(9,1,11)             110.485          estimate D2E/DX2                !
 ! A6    A(10,1,11)            110.3954         estimate D2E/DX2                !
 ! A7    A(1,2,3)              101.8546         estimate D2E/DX2                !
 ! A8    A(1,2,4)              110.2299         estimate D2E/DX2                !
 ! A9    A(1,2,5)              109.9433         estimate D2E/DX2                !
 ! A10   A(3,2,4)              113.9719         estimate D2E/DX2                !
 ! A11   A(3,2,5)              107.9369         estimate D2E/DX2                !
 ! A12   A(4,2,5)              112.3723         estimate D2E/DX2                !
 ! A13   A(2,3,6)              104.1351         estimate D2E/DX2                !
 ! A14   A(2,3,7)              108.9439         estimate D2E/DX2                !
 ! A15   A(2,3,8)              115.3046         estimate D2E/DX2                !
 ! A16   A(6,3,7)              110.9692         estimate D2E/DX2                !
 ! A17   A(6,3,8)              109.2961         estimate D2E/DX2                !
 ! A18   A(7,3,8)              108.1695         estimate D2E/DX2                !
 ! A19   A(2,4,18)             103.5227         estimate D2E/DX2                !
 ! A20   A(3,6,9)              108.8899         estimate D2E/DX2                !
 ! A21   A(3,8,20)             122.9721         estimate D2E/DX2                !
 ! A22   A(3,8,24)             117.1098         estimate D2E/DX2                !
 ! A23   A(20,8,24)            119.8283         estimate D2E/DX2                !
 ! A24   A(1,9,6)              107.2578         estimate D2E/DX2                !
 ! A25   A(1,9,12)             115.2899         estimate D2E/DX2                !
 ! A26   A(1,9,13)             108.199          estimate D2E/DX2                !
 ! A27   A(6,9,12)             106.6382         estimate D2E/DX2                !
 ! A28   A(6,9,13)             109.5598         estimate D2E/DX2                !
 ! A29   A(12,9,13)            109.7718         estimate D2E/DX2                !
 ! A30   A(1,11,17)            103.3199         estimate D2E/DX2                !
 ! A31   A(9,12,14)            112.1263         estimate D2E/DX2                !
 ! A32   A(9,12,15)            109.3938         estimate D2E/DX2                !
 ! A33   A(9,12,16)            109.0128         estimate D2E/DX2                !
 ! A34   A(14,12,15)           107.1582         estimate D2E/DX2                !
 ! A35   A(14,12,16)           110.8741         estimate D2E/DX2                !
 ! A36   A(15,12,16)           108.1785         estimate D2E/DX2                !
 ! A37   A(12,14,19)           106.1899         estimate D2E/DX2                !
 ! A38   A(8,20,21)            120.4168         estimate D2E/DX2                !
 ! A39   A(8,20,25)            116.028          estimate D2E/DX2                !
 ! A40   A(21,20,25)           123.5464         estimate D2E/DX2                !
 ! A41   A(20,21,22)           119.6711         estimate D2E/DX2                !
 ! A42   A(20,21,26)           121.0912         estimate D2E/DX2                !
 ! A43   A(22,21,26)           119.2167         estimate D2E/DX2                !
 ! A44   A(21,22,23)           117.6282         estimate D2E/DX2                !
 ! A45   A(21,22,27)           120.3781         estimate D2E/DX2                !
 ! A46   A(23,22,27)           121.9937         estimate D2E/DX2                !
 ! A47   A(22,23,24)           121.8784         estimate D2E/DX2                !
 ! A48   A(8,24,23)            120.5374         estimate D2E/DX2                !
 ! A49   A(8,24,28)            115.3453         estimate D2E/DX2                !
 ! A50   A(23,24,28)           124.1172         estimate D2E/DX2                !
 ! D1    D(9,1,2,3)            -27.3901         estimate D2E/DX2                !
 ! D2    D(9,1,2,4)           -148.7083         estimate D2E/DX2                !
 ! D3    D(9,1,2,5)             86.8725         estimate D2E/DX2                !
 ! D4    D(10,1,2,3)          -146.9752         estimate D2E/DX2                !
 ! D5    D(10,1,2,4)            91.7066         estimate D2E/DX2                !
 ! D6    D(10,1,2,5)           -32.7126         estimate D2E/DX2                !
 ! D7    D(11,1,2,3)            90.4099         estimate D2E/DX2                !
 ! D8    D(11,1,2,4)           -30.9083         estimate D2E/DX2                !
 ! D9    D(11,1,2,5)          -155.3275         estimate D2E/DX2                !
 ! D10   D(2,1,9,6)              8.3882         estimate D2E/DX2                !
 ! D11   D(2,1,9,12)          -110.192          estimate D2E/DX2                !
 ! D12   D(2,1,9,13)           126.4982         estimate D2E/DX2                !
 ! D13   D(10,1,9,6)           128.3401         estimate D2E/DX2                !
 ! D14   D(10,1,9,12)            9.76           estimate D2E/DX2                !
 ! D15   D(10,1,9,13)         -113.5499         estimate D2E/DX2                !
 ! D16   D(11,1,9,6)          -108.7505         estimate D2E/DX2                !
 ! D17   D(11,1,9,12)          132.6694         estimate D2E/DX2                !
 ! D18   D(11,1,9,13)            9.3595         estimate D2E/DX2                !
 ! D19   D(2,1,11,17)           21.8548         estimate D2E/DX2                !
 ! D20   D(9,1,11,17)          135.1404         estimate D2E/DX2                !
 ! D21   D(10,1,11,17)        -101.5178         estimate D2E/DX2                !
 ! D22   D(1,2,3,6)             37.9935         estimate D2E/DX2                !
 ! D23   D(1,2,3,7)            -80.4708         estimate D2E/DX2                !
 ! D24   D(1,2,3,8)            157.7293         estimate D2E/DX2                !
 ! D25   D(4,2,3,6)            156.6795         estimate D2E/DX2                !
 ! D26   D(4,2,3,7)             38.2152         estimate D2E/DX2                !
 ! D27   D(4,2,3,8)            -83.5848         estimate D2E/DX2                !
 ! D28   D(5,2,3,6)            -77.7457         estimate D2E/DX2                !
 ! D29   D(5,2,3,7)            163.79           estimate D2E/DX2                !
 ! D30   D(5,2,3,8)             41.9901         estimate D2E/DX2                !
 ! D31   D(1,2,4,18)           145.2788         estimate D2E/DX2                !
 ! D32   D(3,2,4,18)            31.4841         estimate D2E/DX2                !
 ! D33   D(5,2,4,18)           -91.711          estimate D2E/DX2                !
 ! D34   D(2,3,6,9)            -34.3365         estimate D2E/DX2                !
 ! D35   D(7,3,6,9)             82.7308         estimate D2E/DX2                !
 ! D36   D(8,3,6,9)           -158.0598         estimate D2E/DX2                !
 ! D37   D(2,3,8,20)          -111.8961         estimate D2E/DX2                !
 ! D38   D(2,3,8,24)            71.5628         estimate D2E/DX2                !
 ! D39   D(6,3,8,20)             4.9593         estimate D2E/DX2                !
 ! D40   D(6,3,8,24)          -171.5818         estimate D2E/DX2                !
 ! D41   D(7,3,8,20)           125.8881         estimate D2E/DX2                !
 ! D42   D(7,3,8,24)           -50.6531         estimate D2E/DX2                !
 ! D43   D(3,6,9,1)             16.3469         estimate D2E/DX2                !
 ! D44   D(3,6,9,12)           140.3835         estimate D2E/DX2                !
 ! D45   D(3,6,9,13)          -100.8754         estimate D2E/DX2                !
 ! D46   D(3,8,20,21)         -176.3284         estimate D2E/DX2                !
 ! D47   D(3,8,20,25)            2.6311         estimate D2E/DX2                !
 ! D48   D(24,8,20,21)           0.1225         estimate D2E/DX2                !
 ! D49   D(24,8,20,25)         179.082          estimate D2E/DX2                !
 ! D50   D(3,8,24,23)          175.0215         estimate D2E/DX2                !
 ! D51   D(3,8,24,28)           -4.8663         estimate D2E/DX2                !
 ! D52   D(20,8,24,23)          -1.6337         estimate D2E/DX2                !
 ! D53   D(20,8,24,28)         178.4785         estimate D2E/DX2                !
 ! D54   D(1,9,12,14)           58.0538         estimate D2E/DX2                !
 ! D55   D(1,9,12,15)          -60.681          estimate D2E/DX2                !
 ! D56   D(1,9,12,16)         -178.7889         estimate D2E/DX2                !
 ! D57   D(6,9,12,14)          -60.8705         estimate D2E/DX2                !
 ! D58   D(6,9,12,15)         -179.6053         estimate D2E/DX2                !
 ! D59   D(6,9,12,16)           62.2868         estimate D2E/DX2                !
 ! D60   D(13,9,12,14)        -179.4731         estimate D2E/DX2                !
 ! D61   D(13,9,12,15)          61.7922         estimate D2E/DX2                !
 ! D62   D(13,9,12,16)         -56.3158         estimate D2E/DX2                !
 ! D63   D(9,12,14,19)          48.6517         estimate D2E/DX2                !
 ! D64   D(15,12,14,19)        168.6974         estimate D2E/DX2                !
 ! D65   D(16,12,14,19)        -73.4507         estimate D2E/DX2                !
 ! D66   D(8,20,21,22)           1.5743         estimate D2E/DX2                !
 ! D67   D(8,20,21,26)         179.8968         estimate D2E/DX2                !
 ! D68   D(25,20,21,22)       -177.3038         estimate D2E/DX2                !
 ! D69   D(25,20,21,26)          1.0187         estimate D2E/DX2                !
 ! D70   D(20,21,22,23)         -1.8557         estimate D2E/DX2                !
 ! D71   D(20,21,22,27)        178.1259         estimate D2E/DX2                !
 ! D72   D(26,21,22,23)        179.7901         estimate D2E/DX2                !
 ! D73   D(26,21,22,27)         -0.2282         estimate D2E/DX2                !
 ! D74   D(21,22,23,24)          0.3777         estimate D2E/DX2                !
 ! D75   D(27,22,23,24)       -179.6036         estimate D2E/DX2                !
 ! D76   D(22,23,24,8)           1.3241         estimate D2E/DX2                !
 ! D77   D(22,23,24,28)       -178.7984         estimate D2E/DX2                !
 --------------------------------------------------------------------------------
 Trust Radius=3.00D-01 FncErr=1.00D-07 GrdErr=1.00D-06 EigMax=2.50D+02 EigMin=1.00D-04
 Number of steps in this run=    166 maximum allowed number of steps=    168.
 GradGradGradGradGradGradGradGradGradGradGradGradGradGradGradGradGradGrad

                          Input orientation:                          
 ---------------------------------------------------------------------
 Center     Atomic      Atomic             Coordinates (Angstroms)
 Number     Number       Type             X           Y           Z
 ---------------------------------------------------------------------
      1          6           0       -2.654258   -0.601575    0.239742
      2          6           0       -1.200587   -0.892459    0.640659
      3          6           0       -0.421615   -0.304064   -0.547063
      4          8           0       -1.014104   -2.263447    0.817351
      5          1           0       -0.935095   -0.312197    1.542729
      6          8           0       -1.137451    0.869783   -0.882387
      7          1           0       -0.437663   -1.027728   -1.379729
      8          7           0        0.960384    0.039287   -0.272924
      9          6           0       -2.535690    0.643410   -0.650957
     10          1           0       -3.286788   -0.401989    1.119393
     11          8           0       -3.167141   -1.689639   -0.498095
     12          6           0       -3.089090    1.921332   -0.054121
     13          1           0       -3.038518    0.430803   -1.608459
     14          8           0       -2.468395    2.248189    1.173256
     15          1           0       -4.161544    1.794811    0.148571
     16          1           0       -2.970896    2.740785   -0.785499
     17          1           0       -2.590195   -2.431073   -0.235583
     18          1           0       -0.068238   -2.417008    0.494250
     19          1           0       -1.517659    2.178533    1.021035
     20          6           0        1.416428    1.329349   -0.247854
     21          6           0        2.727874    1.586950   -0.060221
     22          6           0        3.673687    0.473847    0.083126
     23          7           0        3.164478   -0.802597    0.057386
     24          6           0        1.872059   -1.035956   -0.097843
     25          1           0        0.668337    2.103027   -0.403649
     26          1           0        3.102666    2.608411   -0.040018
     27          8           0        4.885165    0.694756    0.221238
     28          8           0        1.355514   -2.190668   -0.105999
 ---------------------------------------------------------------------
                    Distance matrix (angstroms):
                    1          2          3          4          5
     1  C    0.000000
     2  C    1.535743   0.000000
     3  C    2.385848   1.537430   0.000000
     4  O    2.405318   1.394849   2.460051   0.000000
     5  H    2.176473   1.104953   2.151966   2.083217   0.000000
     6  O    2.392649   2.330054   1.415196   3.566715   2.705404
     7  H    2.778054   2.163867   1.103304   2.585816   3.049620
     8  N    3.706638   2.524397   1.450160   3.223335   2.648203
     9  C    1.535380   2.410325   2.319011   3.594575   2.878775
    10  H    1.101687   2.195901   3.316004   2.953193   2.391179
    11  O    1.411147   2.408234   3.075732   2.587513   3.323302
    12  C    2.576916   3.459275   3.508675   4.751569   3.489739
    13  H    2.151582   3.191793   2.918008   4.152323   3.860884
    14  O    3.004521   3.428508   3.696323   4.753577   3.007174
    15  H    2.832470   4.028751   4.344681   5.179103   4.097942
    16  H    3.510377   4.285835   3.978290   5.607183   4.345783
    17  H    1.891323   2.250810   3.053510   1.902848   3.223567
    18  H    3.169869   1.904705   2.381961   1.011256   2.506188
    19  H    3.103430   3.110661   3.134251   4.475069   2.610609
    20  C    4.531744   3.546076   2.477088   4.466579   3.380905
    21  C    5.817814   4.698032   3.705702   5.440413   4.426460
    22  C    6.420588   5.092758   4.215896   5.477887   4.897875
    23  N    5.825062   4.404779   3.670689   4.491345   4.387851
    24  C    4.559627   3.163405   2.449164   3.267147   3.330978
    25  H    4.332258   3.681901   2.646252   4.836067   3.491803
    26  H    6.597306   5.589043   4.600018   6.435672   5.228628
    27  O    7.650079   6.303296   5.454342   6.626288   6.052745
    28  O    4.327011   2.962515   2.629068   2.544202   3.390258
                    6          7          8          9         10
     6  O    0.000000
     7  H    2.082691   0.000000
     8  N    2.337109   2.077998   0.000000
     9  C    1.435227   2.779483   3.567970   0.000000
    10  H    3.200653   3.841181   4.491296   2.188869   0.000000
    11  O    3.289067   2.943714   4.480664   2.421821   2.070900
    12  C    2.366574   4.181418   4.470817   1.515107   2.610372
    13  H    2.081812   2.990665   4.234165   1.102201   2.862928
    14  O    2.810175   4.623120   4.327495   2.430555   2.774187
    15  H    3.326213   4.916271   5.430807   2.146712   2.556095
    16  H    2.621365   4.579527   4.797477   2.146273   3.688554
    17  H    3.663942   2.812800   4.325585   3.102894   2.537397
    18  H    3.720395   2.361858   2.771282   4.094628   3.848398
    19  H    2.341025   4.148514   3.520142   2.487679   3.130269
    20  C    2.671354   3.205403   1.368526   4.031407   5.194914
    21  C    4.016344   4.312571   2.358924   5.379995   6.443875
    22  C    4.923010   4.614962   2.770853   6.254917   7.091484
    23  N    4.710268   3.884766   2.382416   5.923226   6.550357
    24  C    3.647534   2.641612   1.420546   4.749153   5.338284
    25  H    2.238515   3.460866   2.088397   3.529509   4.923188
    26  H    4.659507   5.248834   3.353210   6.002127   7.157644
    27  O    6.125400   5.819153   4.009706   7.472111   8.293995
    28  O    4.022936   2.488032   2.270835   4.844631   5.123663
                   11         12         13         14         15
    11  O    0.000000
    12  C    3.638999   0.000000
    13  H    2.397024   2.154113   0.000000
    14  O    4.334530   1.413702   3.371331   0.000000
    15  H    3.680816   1.098749   2.491758   2.030341   0.000000
    16  H    4.444071   1.104711   2.453131   2.081317   1.784656
    17  H    0.975450   4.384661   3.205638   4.888267   4.524910
    18  H    3.334219   5.314833   4.621036   5.290167   5.883372
    19  H    4.471163   1.921330   3.504541   0.965361   2.810438
    20  C    5.494180   4.548370   4.743962   4.237413   5.611379
    21  C    6.758622   5.826570   6.081529   5.381442   6.895715
    22  C    7.198293   6.917312   6.922211   6.485510   7.946073
    23  N    6.417539   6.821974   6.540143   6.502439   7.773380
    24  C    5.097160   5.775852   5.342949   5.589351   6.669207
    25  H    5.394824   3.778021   4.241306   3.513800   4.871108
    26  H    7.615350   6.229777   6.701949   5.713013   7.312062
    27  O    8.428666   8.072735   8.136474   7.575905   9.113635
    28  O    4.567185   6.055224   5.332637   5.996851   6.810784
                   16         17         18         19         20
    16  H    0.000000
    17  H    5.214926   0.000000
    18  H    6.055246   2.625475   0.000000
    19  H    2.385705   4.896722   4.847404   0.000000
    20  C    4.640024   5.494902   4.097578   3.307576   0.000000
    21  C    5.859466   6.667617   4.915014   4.420818   1.349613
    22  C    7.074178   6.912044   4.746374   5.543979   2.436524
    23  N    7.135042   5.987823   3.639729   5.633663   2.773814
    24  C    6.179875   4.677289   2.454105   4.803646   2.413456
    25  H    3.714372   5.586084   4.666849   2.610365   1.087424
    26  H    6.120574   7.605479   5.966147   4.760045   2.126639
    27  O    8.180309   8.115448   5.856092   6.620984   3.557371
    28  O    6.595360   3.955149   1.561601   5.349322   3.523401
                   21         22         23         24         25
    21  C    0.000000
    22  C    1.467688   0.000000
    23  N    2.431952   1.374506   0.000000
    24  C    2.759252   2.357566   1.322460   0.000000
    25  H    2.150807   3.453014   3.858228   3.375749   0.000000
    26  H    1.088237   2.213051   3.412958   3.846966   2.512687
    27  O    2.351411   1.239175   2.286849   3.489410   4.489471
    28  O    4.019436   3.536854   2.285998   1.265008   4.358512
                   26         27         28
    26  H    0.000000
    27  O    2.628238   0.000000
    28  O    5.107647   4.570688   0.000000
 Stoichiometry    C9H11N2O6(2)
 Framework group  C1[X(C9H11N2O6)]
 Deg. of freedom    78
 Full point group                 C1      NOp   1
 Largest Abelian subgroup         C1      NOp   1
 Largest concise Abelian subgroup C1      NOp   1
                         Standard orientation:                         
 ---------------------------------------------------------------------
 Center     Atomic      Atomic             Coordinates (Angstroms)
 Number     Number       Type             X           Y           Z
 ---------------------------------------------------------------------
      1          6           0        2.654258    0.601575    0.239742
      2          6           0        1.200587    0.892459    0.640659
      3          6           0        0.421615    0.304064   -0.547063
      4          8           0        1.014104    2.263447    0.817351
      5          1           0        0.935095    0.312197    1.542729
      6          8           0        1.137451   -0.869783   -0.882387
      7          1           0        0.437663    1.027728   -1.379729
      8          7           0       -0.960384   -0.039287   -0.272924
      9          6           0        2.535690   -0.643410   -0.650957
     10          1           0        3.286788    0.401989    1.119393
     11          8           0        3.167141    1.689639   -0.498095
     12          6           0        3.089090   -1.921332   -0.054121
     13          1           0        3.038518   -0.430803   -1.608459
     14          8           0        2.468395   -2.248189    1.173256
     15          1           0        4.161544   -1.794811    0.148571
     16          1           0        2.970896   -2.740785   -0.785499
     17          1           0        2.590195    2.431073   -0.235583
     18          1           0        0.068238    2.417008    0.494250
     19          1           0        1.517659   -2.178533    1.021035
     20          6           0       -1.416428   -1.329349   -0.247854
     21          6           0       -2.727874   -1.586950   -0.060221
     22          6           0       -3.673687   -0.473847    0.083126
     23          7           0       -3.164478    0.802597    0.057386
     24          6           0       -1.872059    1.035956   -0.097843
     25          1           0       -0.668337   -2.103027   -0.403649
     26          1           0       -3.102666   -2.608411   -0.040018
     27          8           0       -4.885165   -0.694756    0.221238
     28          8           0       -1.355514    2.190668   -0.105999
 ---------------------------------------------------------------------
 Rotational constants (GHZ):           0.8987132           0.3129187           0.2497262
 Standard basis: Aug-CC-pVDZ (5D, 7F)
 There are   524 symmetry adapted cartesian basis functions of A   symmetry.
 There are   490 symmetry adapted basis functions of A   symmetry.
   490 basis functions,   852 primitive gaussians,   524 cartesian basis functions
    64 alpha electrons       63 beta electrons
       nuclear repulsion energy      1308.7031449283 Hartrees.
 NAtoms=   28 NActive=   28 NUniq=   28 SFac= 1.00D+00 NAtFMM=   60 NAOKFM=F Big=F
 Integral buffers will be    131072 words long.
 Raffenetti 2 integral format.
 Two-electron integral symmetry is turned on.
 Nuclear repulsion after empirical dispersion term =     1308.6836962733 Hartrees.
 One-electron integrals computed using PRISM.
 NBasis=   490 RedAO= T EigKep=  3.28D-06  NBF=   490
 NBsUse=   490 1.00D-06 EigRej= -1.00D+00 NBFU=   490
 ExpMin= 2.97D-02 ExpMax= 1.17D+04 ExpMxC= 4.01D+02 IAcc=3 IRadAn=         5 AccDes= 0.00D+00
 Harris functional with IExCor= 1009 and IRadAn=       5 diagonalized for initial guess.
 HarFok:  IExCor= 1009 AccDes= 0.00D+00 IRadAn=         5 IDoV= 1 UseB2=F ITyADJ=14
 ICtDFT=  3500011 ScaDFX=  1.000000  1.000000  1.000000  1.000000
 FoFCou: FMM=F IPFlag=           0 FMFlag=      100000 FMFlg1=           0
         NFxFlg=           0 DoJE=T BraDBF=F KetDBF=T FulRan=T
         wScrn=  0.000000 ICntrl=       500 IOpCl=  0 I1Cent=   200000004 NGrid=           0
         NMat0=    1 NMatS0=      1 NMatT0=    0 NMatD0=    1 NMtDS0=    0 NMtDT0=    0
 Petite list used in FoFCou.
 Initial guess <Sx>= 0.0000 <Sy>= 0.0000 <Sz>= 0.5000 <S**2>= 0.7500 S= 0.5000
 Requested convergence on RMS density matrix=1.00D-08 within 128 cycles.
 Requested convergence on MAX density matrix=1.00D-06.
 Requested convergence on             energy=1.00D-06.
 No special actions if energy rises.
 Restarting incremental Fock formation.
 SCF Done:  E(UPBE1PBE) =  -909.514367687     A.U. after   33 cycles
            NFock= 33  Conv=0.72D-08     -V/T= 2.0054
 <Sx>= 0.0000 <Sy>= 0.0000 <Sz>= 0.5000 <S**2>= 0.7887 S= 0.5192
 <L.S>= 0.000000000000E+00
 Annihilation of the first spin contaminant:
 S**2 before annihilation     0.7887,   after     0.7509

 **********************************************************************

            Population analysis using the SCF Density.

 **********************************************************************

 Orbital symmetries:
 Alpha Orbitals:
       Occupied  (A) (A) (A) (A) (A) (A) (A) (A) (A) (A) (A) (A)
                 (A) (A) (A) (A) (A) (A) (A) (A) (A) (A) (A) (A)
                 (A) (A) (A) (A) (A) (A) (A) (A) (A) (A) (A) (A)
                 (A) (A) (A) (A) (A) (A) (A) (A) (A) (A) (A) (A)
                 (A) (A) (A) (A) (A) (A) (A) (A) (A) (A) (A) (A)
                 (A) (A) (A) (A)
       Virtual   (A) (A) (A) (A) (A) (A) (A) (A) (A) (A) (A) (A)
                 (A) (A) (A) (A) (A) (A) (A) (A) (A) (A) (A) (A)
                 (A) (A) (A) (A) (A) (A) (A) (A) (A) (A) (A) (A)
                 (A) (A) (A) (A) (A) (A) (A) (A) (A) (A) (A) (A)
                 (A) (A) (A) (A) (A) (A) (A) (A) (A) (A) (A) (A)
                 (A) (A) (A) (A) (A) (A) (A) (A) (A) (A) (A) (A)
                 (A) (A) (A) (A) (A) (A) (A) (A) (A) (A) (A) (A)
                 (A) (A) (A) (A) (A) (A) (A) (A) (A) (A) (A) (A)
                 (A) (A) (A) (A) (A) (A) (A) (A) (A) (A) (A) (A)
                 (A) (A) (A) (A) (A) (A) (A) (A) (A) (A) (A) (A)
                 (A) (A) (A) (A) (A) (A) (A) (A) (A) (A) (A) (A)
                 (A) (A) (A) (A) (A) (A) (A) (A) (A) (A) (A) (A)
                 (A) (A) (A) (A) (A) (A) (A) (A) (A) (A) (A) (A)
                 (A) (A) (A) (A) (A) (A) (A) (A) (A) (A) (A) (A)
                 (A) (A) (A) (A) (A) (A) (A) (A) (A) (A) (A) (A)
                 (A) (A) (A) (A) (A) (A) (A) (A) (A) (A) (A) (A)
                 (A) (A) (A) (A) (A) (A) (A) (A) (A) (A) (A) (A)
                 (A) (A) (A) (A) (A) (A) (A) (A) (A) (A) (A) (A)
                 (A) (A) (A) (A) (A) (A) (A) (A) (A) (A) (A) (A)
                 (A) (A) (A) (A) (A) (A) (A) (A) (A) (A) (A) (A)
                 (A) (A) (A) (A) (A) (A) (A) (A) (A) (A) (A) (A)
                 (A) (A) (A) (A) (A) (A) (A) (A) (A) (A) (A) (A)
                 (A) (A) (A) (A) (A) (A) (A) (A) (A) (A) (A) (A)
                 (A) (A) (A) (A) (A) (A) (A) (A) (A) (A) (A) (A)
                 (A) (A) (A) (A) (A) (A) (A) (A) (A) (A) (A) (A)
                 (A) (A) (A) (A) (A) (A) (A) (A) (A) (A) (A) (A)
                 (A) (A) (A) (A) (A) (A) (A) (A) (A) (A) (A) (A)
                 (A) (A) (A) (A) (A) (A) (A) (A) (A) (A) (A) (A)
                 (A) (A) (A) (A) (A) (A) (A) (A) (A) (A) (A) (A)
                 (A) (A) (A) (A) (A) (A) (A) (A) (A) (A) (A) (A)
                 (A) (A) (A) (A) (A) (A) (A) (A) (A) (A) (A) (A)
                 (A) (A) (A) (A) (A) (A) (A) (A) (A) (A) (A) (A)
                 (A) (A) (A) (A) (A) (A) (A) (A) (A) (A) (A) (A)
                 (A) (A) (A) (A) (A) (A) (A) (A) (A) (A) (A) (A)
                 (A) (A) (A) (A) (A) (A) (A) (A) (A) (A) (A) (A)
                 (A) (A) (A) (A) (A) (A)
 Beta  Orbitals:
       Occupied  (A) (A) (A) (A) (A) (A) (A) (A) (A) (A) (A) (A)
                 (A) (A) (A) (A) (A) (A) (A) (A) (A) (A) (A) (A)
                 (A) (A) (A) (A) (A) (A) (A) (A) (A) (A) (A) (A)
                 (A) (A) (A) (A) (A) (A) (A) (A) (A) (A) (A) (A)
                 (A) (A) (A) (A) (A) (A) (A) (A) (A) (A) (A) (A)
                 (A) (A) (A)
       Virtual   (A) (A) (A) (A) (A) (A) (A) (A) (A) (A) (A) (A)
                 (A) (A) (A) (A) (A) (A) (A) (A) (A) (A) (A) (A)
                 (A) (A) (A) (A) (A) (A) (A) (A) (A) (A) (A) (A)
                 (A) (A) (A) (A) (A) (A) (A) (A) (A) (A) (A) (A)
                 (A) (A) (A) (A) (A) (A) (A) (A) (A) (A) (A) (A)
                 (A) (A) (A) (A) (A) (A) (A) (A) (A) (A) (A) (A)
                 (A) (A) (A) (A) (A) (A) (A) (A) (A) (A) (A) (A)
                 (A) (A) (A) (A) (A) (A) (A) (A) (A) (A) (A) (A)
                 (A) (A) (A) (A) (A) (A) (A) (A) (A) (A) (A) (A)
                 (A) (A) (A) (A) (A) (A) (A) (A) (A) (A) (A) (A)
                 (A) (A) (A) (A) (A) (A) (A) (A) (A) (A) (A) (A)
                 (A) (A) (A) (A) (A) (A) (A) (A) (A) (A) (A) (A)
                 (A) (A) (A) (A) (A) (A) (A) (A) (A) (A) (A) (A)
                 (A) (A) (A) (A) (A) (A) (A) (A) (A) (A) (A) (A)
                 (A) (A) (A) (A) (A) (A) (A) (A) (A) (A) (A) (A)
                 (A) (A) (A) (A) (A) (A) (A) (A) (A) (A) (A) (A)
                 (A) (A) (A) (A) (A) (A) (A) (A) (A) (A) (A) (A)
                 (A) (A) (A) (A) (A) (A) (A) (A) (A) (A) (A) (A)
                 (A) (A) (A) (A) (A) (A) (A) (A) (A) (A) (A) (A)
                 (A) (A) (A) (A) (A) (A) (A) (A) (A) (A) (A) (A)
                 (A) (A) (A) (A) (A) (A) (A) (A) (A) (A) (A) (A)
                 (A) (A) (A) (A) (A) (A) (A) (A) (A) (A) (A) (A)
                 (A) (A) (A) (A) (A) (A) (A) (A) (A) (A) (A) (A)
                 (A) (A) (A) (A) (A) (A) (A) (A) (A) (A) (A) (A)
                 (A) (A) (A) (A) (A) (A) (A) (A) (A) (A) (A) (A)
                 (A) (A) (A) (A) (A) (A) (A) (A) (A) (A) (A) (A)
                 (A) (A) (A) (A) (A) (A) (A) (A) (A) (A) (A) (A)
                 (A) (A) (A) (A) (A) (A) (A) (A) (A) (A) (A) (A)
                 (A) (A) (A) (A) (A) (A) (A) (A) (A) (A) (A) (A)
                 (A) (A) (A) (A) (A) (A) (A) (A) (A) (A) (A) (A)
                 (A) (A) (A) (A) (A) (A) (A) (A) (A) (A) (A) (A)
                 (A) (A) (A) (A) (A) (A) (A) (A) (A) (A) (A) (A)
                 (A) (A) (A) (A) (A) (A) (A) (A) (A) (A) (A) (A)
                 (A) (A) (A) (A) (A) (A) (A) (A) (A) (A) (A) (A)
                 (A) (A) (A) (A) (A) (A) (A) (A) (A) (A) (A) (A)
                 (A) (A) (A) (A) (A) (A) (A)
 The electronic state is 2-A.
 Alpha  occ. eigenvalues --  -19.29663 -19.27521 -19.25534 -19.24220 -19.23867
 Alpha  occ. eigenvalues --  -19.22506 -14.54799 -14.42668 -10.39985 -10.38068
 Alpha  occ. eigenvalues --  -10.37726 -10.35802 -10.32624 -10.31977 -10.31857
 Alpha  occ. eigenvalues --  -10.31137 -10.30700  -1.16200  -1.13464  -1.11900
 Alpha  occ. eigenvalues --   -1.09518  -1.08577  -1.06000  -1.04604  -0.97060
 Alpha  occ. eigenvalues --   -0.88160  -0.83207  -0.81841  -0.74821  -0.73449
 Alpha  occ. eigenvalues --   -0.69242  -0.66674  -0.64662  -0.62553  -0.61258
 Alpha  occ. eigenvalues --   -0.59390  -0.55517  -0.55176  -0.54259  -0.53925
 Alpha  occ. eigenvalues --   -0.52840  -0.51831  -0.51250  -0.49967  -0.49186
 Alpha  occ. eigenvalues --   -0.48058  -0.47145  -0.46217  -0.44587  -0.43517
 Alpha  occ. eigenvalues --   -0.42918  -0.41837  -0.39868  -0.38408  -0.37137
 Alpha  occ. eigenvalues --   -0.35395  -0.34678  -0.33056  -0.32462  -0.32098
 Alpha  occ. eigenvalues --   -0.31619  -0.31306  -0.30646  -0.29966
 Alpha virt. eigenvalues --   -0.08384  -0.03428  -0.02614  -0.00474  -0.00032
 Alpha virt. eigenvalues --    0.00116   0.01029   0.01921   0.02441   0.02895
 Alpha virt. eigenvalues --    0.03299   0.04423   0.05063   0.05427   0.05782
 Alpha virt. eigenvalues --    0.05975   0.06646   0.06953   0.07189   0.07656
 Alpha virt. eigenvalues --    0.07756   0.08283   0.08605   0.09117   0.09216
 Alpha virt. eigenvalues --    0.09390   0.09661   0.09819   0.10273   0.10612
 Alpha virt. eigenvalues --    0.10876   0.11202   0.11548   0.11745   0.12100
 Alpha virt. eigenvalues --    0.12351   0.12442   0.13165   0.13852   0.14347
 Alpha virt. eigenvalues --    0.14876   0.15065   0.15514   0.15941   0.16322
 Alpha virt. eigenvalues --    0.16573   0.16692   0.17338   0.17533   0.18053
 Alpha virt. eigenvalues --    0.18474   0.18677   0.19179   0.19595   0.19990
 Alpha virt. eigenvalues --    0.20481   0.20782   0.21097   0.21575   0.22132
 Alpha virt. eigenvalues --    0.22417   0.22879   0.23220   0.23460   0.23600
 Alpha virt. eigenvalues --    0.24040   0.24235   0.24377   0.25308   0.25476
 Alpha virt. eigenvalues --    0.25577   0.25779   0.25800   0.26351   0.26464
 Alpha virt. eigenvalues --    0.26877   0.27030   0.27611   0.27969   0.28340
 Alpha virt. eigenvalues --    0.28776   0.29350   0.29849   0.29970   0.30148
 Alpha virt. eigenvalues --    0.30859   0.31229   0.31352   0.32134   0.32345
 Alpha virt. eigenvalues --    0.32503   0.33211   0.33381   0.34099   0.34322
 Alpha virt. eigenvalues --    0.34825   0.34980   0.35525   0.36073   0.36661
 Alpha virt. eigenvalues --    0.36868   0.37593   0.37847   0.38370   0.38825
 Alpha virt. eigenvalues --    0.39468   0.39523   0.40198   0.40248   0.40925
 Alpha virt. eigenvalues --    0.41366   0.42326   0.42885   0.43277   0.43617
 Alpha virt. eigenvalues --    0.44300   0.44518   0.45043   0.45440   0.46078
 Alpha virt. eigenvalues --    0.47013   0.47782   0.48334   0.48409   0.49233
 Alpha virt. eigenvalues --    0.49726   0.50269   0.51625   0.51949   0.52409
 Alpha virt. eigenvalues --    0.52471   0.53364   0.53663   0.53798   0.54716
 Alpha virt. eigenvalues --    0.55370   0.55806   0.56602   0.57317   0.57661
 Alpha virt. eigenvalues --    0.58483   0.58594   0.59344   0.59841   0.60896
 Alpha virt. eigenvalues --    0.61008   0.61360   0.61619   0.62128   0.62834
 Alpha virt. eigenvalues --    0.63609   0.63962   0.64320   0.64563   0.65028
 Alpha virt. eigenvalues --    0.65567   0.66208   0.66861   0.67409   0.67865
 Alpha virt. eigenvalues --    0.68431   0.68572   0.69250   0.69366   0.70144
 Alpha virt. eigenvalues --    0.70621   0.70962   0.71599   0.72307   0.72348
 Alpha virt. eigenvalues --    0.72800   0.73008   0.73162   0.74509   0.76082
 Alpha virt. eigenvalues --    0.76402   0.77013   0.77518   0.78455   0.79099
 Alpha virt. eigenvalues --    0.79110   0.79896   0.81132   0.81342   0.82272
 Alpha virt. eigenvalues --    0.82967   0.83575   0.84059   0.84603   0.85674
 Alpha virt. eigenvalues --    0.86313   0.86771   0.87497   0.88732   0.88939
 Alpha virt. eigenvalues --    0.90190   0.90444   0.90907   0.92246   0.93283
 Alpha virt. eigenvalues --    0.94456   0.95127   0.95905   0.96358   0.97796
 Alpha virt. eigenvalues --    0.98385   0.99596   1.00591   1.01351   1.01964
 Alpha virt. eigenvalues --    1.02684   1.03696   1.04423   1.05250   1.06570
 Alpha virt. eigenvalues --    1.07226   1.08680   1.09560   1.10395   1.11509
 Alpha virt. eigenvalues --    1.12329   1.12786   1.13494   1.14374   1.15292
 Alpha virt. eigenvalues --    1.16055   1.17500   1.17874   1.18257   1.18890
 Alpha virt. eigenvalues --    1.19192   1.19972   1.20905   1.23119   1.24080
 Alpha virt. eigenvalues --    1.24671   1.25669   1.26482   1.27855   1.28814
 Alpha virt. eigenvalues --    1.29874   1.30862   1.32061   1.33400   1.34701
 Alpha virt. eigenvalues --    1.34877   1.35545   1.36188   1.36569   1.37956
 Alpha virt. eigenvalues --    1.38249   1.40305   1.41516   1.42317   1.43918
 Alpha virt. eigenvalues --    1.45354   1.46084   1.46410   1.47538   1.48298
 Alpha virt. eigenvalues --    1.48812   1.49317   1.49709   1.50982   1.51768
 Alpha virt. eigenvalues --    1.53065   1.53631   1.54373   1.54477   1.55774
 Alpha virt. eigenvalues --    1.56787   1.58157   1.59676   1.60179   1.61325
 Alpha virt. eigenvalues --    1.61804   1.62889   1.63865   1.65778   1.66407
 Alpha virt. eigenvalues --    1.66942   1.67739   1.68422   1.68975   1.70054
 Alpha virt. eigenvalues --    1.71390   1.71833   1.72589   1.73466   1.73889
 Alpha virt. eigenvalues --    1.75174   1.75384   1.76341   1.77520   1.78190
 Alpha virt. eigenvalues --    1.80267   1.81627   1.82260   1.82932   1.84698
 Alpha virt. eigenvalues --    1.85033   1.85576   1.86363   1.88802   1.89604
 Alpha virt. eigenvalues --    1.90230   1.91957   1.92108   1.93635   1.94967
 Alpha virt. eigenvalues --    1.95751   1.96510   1.98474   1.98562   2.00175
 Alpha virt. eigenvalues --    2.00862   2.02730   2.03395   2.04222   2.05623
 Alpha virt. eigenvalues --    2.07002   2.08020   2.08787   2.10422   2.12056
 Alpha virt. eigenvalues --    2.12801   2.14142   2.15161   2.15720   2.16098
 Alpha virt. eigenvalues --    2.18724   2.19884   2.21790   2.23064   2.23848
 Alpha virt. eigenvalues --    2.25649   2.26498   2.27775   2.30231   2.32088
 Alpha virt. eigenvalues --    2.33389   2.34435   2.35607   2.35873   2.36614
 Alpha virt. eigenvalues --    2.38257   2.39410   2.40305   2.41239   2.41856
 Alpha virt. eigenvalues --    2.43639   2.45725   2.47720   2.48981   2.50153
 Alpha virt. eigenvalues --    2.50704   2.51736   2.53308   2.55104   2.55563
 Alpha virt. eigenvalues --    2.56211   2.60782   2.61928   2.62745   2.63743
 Alpha virt. eigenvalues --    2.64487   2.65724   2.67885   2.70344   2.72025
 Alpha virt. eigenvalues --    2.74682   2.75895   2.75968   2.81004   2.81350
 Alpha virt. eigenvalues --    2.84679   2.86690   2.89458   2.91044   2.93252
 Alpha virt. eigenvalues --    2.95806   2.99460   3.01995   3.09696   3.12712
 Alpha virt. eigenvalues --    3.18423   3.23451   3.24537   3.28469   3.29224
 Alpha virt. eigenvalues --    3.32789   3.32845   3.36902   3.37351   3.39656
 Alpha virt. eigenvalues --    3.42541   3.43987   3.45798   3.46993   3.48720
 Alpha virt. eigenvalues --    3.50319   3.51846   3.53439   3.54481   3.55714
 Alpha virt. eigenvalues --    3.57155   3.58610   3.59362   3.60733   3.62955
 Alpha virt. eigenvalues --    3.64146   3.64674   3.67422   3.73378   3.73995
 Alpha virt. eigenvalues --    3.76398   3.78803   3.81461   3.86740   3.90207
 Alpha virt. eigenvalues --    3.96960   3.98844   4.09632   4.18530   4.42911
 Alpha virt. eigenvalues --    4.75790
  Beta  occ. eigenvalues --  -19.29638 -19.26294 -19.25534 -19.24186 -19.23846
  Beta  occ. eigenvalues --  -19.22561 -14.54135 -14.42349 -10.40086 -10.38074
  Beta  occ. eigenvalues --  -10.37988 -10.35983 -10.32553 -10.31977 -10.31317
  Beta  occ. eigenvalues --  -10.31129 -10.30699  -1.15943  -1.12454  -1.10419
  Beta  occ. eigenvalues --   -1.09380  -1.08572  -1.05905  -1.04111  -0.96091
  Beta  occ. eigenvalues --   -0.87415  -0.83136  -0.81370  -0.74508  -0.73204
  Beta  occ. eigenvalues --   -0.68991  -0.66418  -0.64523  -0.62252  -0.60948
  Beta  occ. eigenvalues --   -0.58905  -0.55413  -0.54932  -0.54172  -0.53608
  Beta  occ. eigenvalues --   -0.52101  -0.51411  -0.50570  -0.49303  -0.49017
  Beta  occ. eigenvalues --   -0.47256  -0.46574  -0.44612  -0.44217  -0.42791
  Beta  occ. eigenvalues --   -0.42588  -0.41173  -0.39589  -0.38151  -0.36933
  Beta  occ. eigenvalues --   -0.34144  -0.33292  -0.32315  -0.31976  -0.31382
  Beta  occ. eigenvalues --   -0.30759  -0.30404  -0.28604
  Beta virt. eigenvalues --   -0.22199  -0.06638  -0.02641  -0.02572  -0.00455
  Beta virt. eigenvalues --    0.00007   0.00175   0.01063   0.01966   0.02469
  Beta virt. eigenvalues --    0.02937   0.03312   0.04457   0.05127   0.05469
  Beta virt. eigenvalues --    0.05834   0.06059   0.06765   0.06984   0.07211
  Beta virt. eigenvalues --    0.07677   0.07935   0.08578   0.08663   0.09258
  Beta virt. eigenvalues --    0.09420   0.09475   0.09846   0.09890   0.10335
  Beta virt. eigenvalues --    0.10688   0.10916   0.11283   0.11632   0.12032
  Beta virt. eigenvalues --    0.12141   0.12373   0.12478   0.13233   0.13934
  Beta virt. eigenvalues --    0.14392   0.14970   0.15126   0.15588   0.16023
  Beta virt. eigenvalues --    0.16382   0.16626   0.16782   0.17375   0.17585
  Beta virt. eigenvalues --    0.18132   0.18550   0.18785   0.19247   0.19773
  Beta virt. eigenvalues --    0.20066   0.20540   0.20805   0.21200   0.21721
  Beta virt. eigenvalues --    0.22193   0.22504   0.22988   0.23292   0.23519
  Beta virt. eigenvalues --    0.23741   0.24206   0.24378   0.24489   0.25373
  Beta virt. eigenvalues --    0.25572   0.25628   0.25850   0.25883   0.26404
  Beta virt. eigenvalues --    0.26547   0.26922   0.27184   0.27666   0.28080
  Beta virt. eigenvalues --    0.28491   0.28877   0.29415   0.29914   0.30029
  Beta virt. eigenvalues --    0.30295   0.30950   0.31314   0.31455   0.32213
  Beta virt. eigenvalues --    0.32427   0.32552   0.33322   0.33484   0.34222
  Beta virt. eigenvalues --    0.34393   0.34912   0.35057   0.35623   0.36186
  Beta virt. eigenvalues --    0.36787   0.37014   0.37649   0.37917   0.38466
  Beta virt. eigenvalues --    0.38876   0.39512   0.39644   0.40294   0.40314
  Beta virt. eigenvalues --    0.41002   0.41490   0.42436   0.43010   0.43390
  Beta virt. eigenvalues --    0.43716   0.44432   0.44583   0.45146   0.45500
  Beta virt. eigenvalues --    0.46239   0.47069   0.47857   0.48450   0.48595
  Beta virt. eigenvalues --    0.49379   0.49781   0.50550   0.51749   0.51991
  Beta virt. eigenvalues --    0.52477   0.52499   0.53556   0.53722   0.53895
  Beta virt. eigenvalues --    0.54810   0.55395   0.55959   0.56676   0.57414
  Beta virt. eigenvalues --    0.57770   0.58610   0.58650   0.59396   0.59967
  Beta virt. eigenvalues --    0.60982   0.61180   0.61459   0.61810   0.62300
  Beta virt. eigenvalues --    0.62901   0.63672   0.64027   0.64438   0.64668
  Beta virt. eigenvalues --    0.65126   0.65750   0.66331   0.66992   0.67472
  Beta virt. eigenvalues --    0.68034   0.68580   0.68741   0.69384   0.69475
  Beta virt. eigenvalues --    0.70263   0.70749   0.71180   0.71742   0.72381
  Beta virt. eigenvalues --    0.72596   0.72969   0.73065   0.73319   0.74742
  Beta virt. eigenvalues --    0.76223   0.76495   0.77189   0.77669   0.78560
  Beta virt. eigenvalues --    0.79149   0.79207   0.80111   0.81292   0.81425
  Beta virt. eigenvalues --    0.82430   0.83076   0.83671   0.84183   0.84674
  Beta virt. eigenvalues --    0.85761   0.86420   0.86903   0.87616   0.88940
  Beta virt. eigenvalues --    0.89163   0.90397   0.90548   0.91070   0.92507
  Beta virt. eigenvalues --    0.93613   0.94611   0.95192   0.96132   0.96494
  Beta virt. eigenvalues --    0.97918   0.98591   0.99725   1.00672   1.01555
  Beta virt. eigenvalues --    1.02525   1.03008   1.03964   1.04680   1.05479
  Beta virt. eigenvalues --    1.06672   1.07404   1.08812   1.09768   1.10495
  Beta virt. eigenvalues --    1.11631   1.12453   1.12894   1.13620   1.14627
  Beta virt. eigenvalues --    1.15459   1.16131   1.17587   1.17954   1.18486
  Beta virt. eigenvalues --    1.19115   1.19353   1.20104   1.21078   1.23287
  Beta virt. eigenvalues --    1.24238   1.24821   1.25737   1.26615   1.28029
  Beta virt. eigenvalues --    1.28963   1.29968   1.31060   1.32142   1.33677
  Beta virt. eigenvalues --    1.34831   1.35076   1.35704   1.36488   1.36747
  Beta virt. eigenvalues --    1.38230   1.38590   1.40433   1.41779   1.42605
  Beta virt. eigenvalues --    1.44110   1.45541   1.46318   1.46562   1.47673
  Beta virt. eigenvalues --    1.48685   1.49080   1.49641   1.50055   1.51154
  Beta virt. eigenvalues --    1.52366   1.53278   1.53921   1.54511   1.54635
  Beta virt. eigenvalues --    1.55884   1.57031   1.58272   1.59748   1.60449
  Beta virt. eigenvalues --    1.61611   1.61914   1.62976   1.63989   1.65846
  Beta virt. eigenvalues --    1.66706   1.67210   1.67845   1.68565   1.69148
  Beta virt. eigenvalues --    1.70256   1.71505   1.71936   1.73138   1.73633
  Beta virt. eigenvalues --    1.74065   1.75314   1.75631   1.76487   1.77739
  Beta virt. eigenvalues --    1.78294   1.80318   1.81808   1.82517   1.83023
  Beta virt. eigenvalues --    1.84836   1.85091   1.85665   1.86480   1.88933
  Beta virt. eigenvalues --    1.89699   1.90376   1.92084   1.92240   1.93728
  Beta virt. eigenvalues --    1.95131   1.95838   1.96676   1.98592   1.98710
  Beta virt. eigenvalues --    2.00372   2.00911   2.02874   2.03568   2.04466
  Beta virt. eigenvalues --    2.05793   2.07146   2.08159   2.09021   2.10591
  Beta virt. eigenvalues --    2.12271   2.12900   2.14248   2.15297   2.15954
  Beta virt. eigenvalues --    2.16250   2.18963   2.20054   2.21994   2.23227
  Beta virt. eigenvalues --    2.24171   2.25712   2.26649   2.27863   2.30316
  Beta virt. eigenvalues --    2.32209   2.33497   2.34635   2.35714   2.36014
  Beta virt. eigenvalues --    2.36698   2.38417   2.39668   2.40449   2.41521
  Beta virt. eigenvalues --    2.42060   2.44142   2.46039   2.47913   2.49381
  Beta virt. eigenvalues --    2.50364   2.50890   2.52121   2.53524   2.55545
  Beta virt. eigenvalues --    2.55956   2.56413   2.60910   2.62046   2.63088
  Beta virt. eigenvalues --    2.63961   2.65009   2.65942   2.68042   2.70786
  Beta virt. eigenvalues --    2.72323   2.75128   2.76068   2.76269   2.81136
  Beta virt. eigenvalues --    2.81511   2.84818   2.86842   2.90003   2.91239
  Beta virt. eigenvalues --    2.93380   2.95935   2.99794   3.02180   3.09831
  Beta virt. eigenvalues --    3.12949   3.18593   3.23643   3.24755   3.28847
  Beta virt. eigenvalues --    3.29556   3.32942   3.36008   3.39399   3.39850
  Beta virt. eigenvalues --    3.40231   3.42558   3.44051   3.45754   3.47043
  Beta virt. eigenvalues --    3.48789   3.50396   3.52036   3.53463   3.54822
  Beta virt. eigenvalues --    3.55878   3.57432   3.58813   3.59439   3.61152
  Beta virt. eigenvalues --    3.63088   3.64241   3.64823   3.67699   3.73687
  Beta virt. eigenvalues --    3.74089   3.76480   3.79039   3.81935   3.86886
  Beta virt. eigenvalues --    3.90209   3.97305   3.98870   4.09668   4.18562
  Beta virt. eigenvalues --    4.42973   4.75816
          Condensed to atoms (all electrons):
               1          2          3          4          5          6
     1  C    8.813216  -1.730217   0.377795   0.016510   0.285951  -0.124454
     2  C   -1.730217   8.077824  -1.669800  -0.357025  -0.610184  -0.038923
     3  C    0.377795  -1.669800  11.081406   0.269237   0.096032  -0.130869
     4  O    0.016510  -0.357025   0.269237   8.737771  -0.225447   0.009915
     5  H    0.285951  -0.610184   0.096032  -0.225447   2.224526   0.019389
     6  O   -0.124454  -0.038923  -0.130869   0.009915   0.019389   9.627306
     7  H   -0.102665   0.159391  -0.287756  -0.027843   0.155486  -0.207928
     8  N    0.092770   0.466677  -1.173350  -0.044454  -0.223492  -0.179435
     9  C   -1.724907   0.487822  -2.708822   0.074402  -0.230956  -0.068780
    10  H   -0.871880   0.541940   0.104124   0.021154  -0.154757   0.025993
    11  O   -0.546759   0.141518  -0.093370  -0.022652  -0.021638   0.023678
    12  C   -0.002202  -0.059940   0.176498  -0.008245   0.020163  -0.055840
    13  H    0.311487   0.124969   0.373614  -0.000845  -0.010770  -0.231011
    14  O   -0.039213  -0.004657  -0.055527   0.000141   0.012988  -0.050677
    15  H    0.049871  -0.004146   0.093003  -0.001701   0.017872   0.116876
    16  H    0.007695  -0.028844  -0.024047   0.000283  -0.008497  -0.064153
    17  H    0.112874  -0.190636   0.032981   0.055300   0.036814   0.010156
    18  H    0.032405  -0.058754  -0.032937   0.315577   0.003778   0.001466
    19  H    0.037739  -0.033643   0.075956   0.001282   0.005917   0.020507
    20  C    0.009991   0.057401  -1.418309  -0.022097   0.058776   0.320933
    21  C   -0.006598   0.011654  -0.185481   0.005815  -0.027191  -0.043990
    22  C    0.005593  -0.005869  -0.042786  -0.003290   0.004064   0.008656
    23  N    0.024372   0.013896  -0.040387  -0.003394  -0.004192  -0.000288
    24  C   -0.096563  -0.040106   0.183493  -0.005446   0.075732  -0.012625
    25  H    0.068101  -0.133584   0.214584   0.000234  -0.005891  -0.208996
    26  H    0.000132  -0.001718   0.037523   0.000303  -0.001454   0.002832
    27  O   -0.000428   0.001030  -0.010833   0.000005   0.000302   0.000575
    28  O    0.031609   0.001299   0.175780  -0.060735   0.002298  -0.009688
               7          8          9         10         11         12
     1  C   -0.102665   0.092770  -1.724907  -0.871880  -0.546759  -0.002202
     2  C    0.159391   0.466677   0.487822   0.541940   0.141518  -0.059940
     3  C   -0.287756  -1.173350  -2.708822   0.104124  -0.093370   0.176498
     4  O   -0.027843  -0.044454   0.074402   0.021154  -0.022652  -0.008245
     5  H    0.155486  -0.223492  -0.230956  -0.154757  -0.021638   0.020163
     6  O   -0.207928  -0.179435  -0.068780   0.025993   0.023678  -0.055840
     7  H    2.263597  -0.440431  -0.091363   0.001938   0.022194   0.002163
     8  N   -0.440431   8.536077   0.281772  -0.013896  -0.002559   0.013337
     9  C   -0.091363   0.281772   9.967035  -0.035874   0.385801  -0.255371
    10  H    0.001938  -0.013896  -0.035874   1.868606  -0.087762  -0.101718
    11  O    0.022194  -0.002559   0.385801  -0.087762   8.718541  -0.032735
    12  C    0.002163   0.013337  -0.255371  -0.101718  -0.032735   4.916551
    13  H    0.011218  -0.024237  -0.992792   0.083164  -0.068032  -0.100313
    14  O    0.001934   0.002607   0.149364   0.031331   0.000898   0.048869
    15  H   -0.000181   0.003246  -0.386848  -0.048601   0.012318   0.251734
    16  H    0.001448  -0.006643   0.298538   0.021070  -0.004741   0.047618
    17  H    0.010377  -0.005851  -0.077732  -0.015467   0.266588   0.003485
    18  H    0.015107  -0.022954   0.025242   0.001119  -0.004705   0.001329
    19  H    0.002913   0.010605  -0.126605  -0.010528  -0.000854   0.008753
    20  C   -0.091696   0.512608   0.240374  -0.014733   0.002200  -0.077468
    21  C   -0.025626  -0.408361   0.069822   0.000714  -0.000313   0.008430
    22  C   -0.001730   0.003962   0.003542   0.000405   0.000047  -0.005360
    23  N   -0.006616   0.049781   0.004175   0.000297   0.000019  -0.000797
    24  C    0.111780  -0.432747  -0.224217   0.006591   0.004044   0.008539
    25  H    0.014470   0.021923  -0.055193  -0.003159  -0.001563   0.027931
    26  H   -0.000408   0.063361   0.003634   0.000305   0.000037  -0.001922
    27  O   -0.000492  -0.017779  -0.000264  -0.000040   0.000002   0.000095
    28  O    0.043436  -0.180302  -0.000623  -0.000198  -0.001862   0.000473
              13         14         15         16         17         18
     1  C    0.311487  -0.039213   0.049871   0.007695   0.112874   0.032405
     2  C    0.124969  -0.004657  -0.004146  -0.028844  -0.190636  -0.058754
     3  C    0.373614  -0.055527   0.093003  -0.024047   0.032981  -0.032937
     4  O   -0.000845   0.000141  -0.001701   0.000283   0.055300   0.315577
     5  H   -0.010770   0.012988   0.017872  -0.008497   0.036814   0.003778
     6  O   -0.231011  -0.050677   0.116876  -0.064153   0.010156   0.001466
     7  H    0.011218   0.001934  -0.000181   0.001448   0.010377   0.015107
     8  N   -0.024237   0.002607   0.003246  -0.006643  -0.005851  -0.022954
     9  C   -0.992792   0.149364  -0.386848   0.298538  -0.077732   0.025242
    10  H    0.083164   0.031331  -0.048601   0.021070  -0.015467   0.001119
    11  O   -0.068032   0.000898   0.012318  -0.004741   0.266588  -0.004705
    12  C   -0.100313   0.048869   0.251734   0.047618   0.003485   0.001329
    13  H    2.149617   0.020795  -0.069437  -0.035334  -0.009211   0.001255
    14  O    0.020795   8.299425  -0.162999  -0.037788  -0.000976  -0.000459
    15  H   -0.069437  -0.162999   1.714622  -0.341468   0.004739  -0.001056
    16  H   -0.035334  -0.037788  -0.341468   1.440729  -0.001434   0.000217
    17  H   -0.009211  -0.000976   0.004739  -0.001434   0.566424  -0.004550
    18  H    0.001255  -0.000459  -0.001056   0.000217  -0.004550   0.437687
    19  H    0.005849   0.282290   0.014616  -0.037861   0.000121   0.000511
    20  C   -0.030175   0.006823  -0.007827   0.017863   0.007305  -0.028655
    21  C   -0.001808  -0.003046  -0.000355   0.003587  -0.002436   0.022806
    22  C    0.000470   0.000578  -0.000162   0.000044   0.000737  -0.011511
    23  N   -0.000073   0.000045   0.000092  -0.000385   0.000610  -0.001624
    24  C    0.005254   0.001040   0.000386   0.000989   0.005901  -0.010596
    25  H   -0.005215  -0.002937   0.002836  -0.000540   0.000227  -0.000394
    26  H    0.000157   0.000099  -0.000277   0.000370  -0.000086  -0.000358
    27  O   -0.000022  -0.000004   0.000005   0.000001   0.000002   0.000521
    28  O   -0.000142  -0.000003   0.000223  -0.000148  -0.000571   0.015869
              19         20         21         22         23         24
     1  C    0.037739   0.009991  -0.006598   0.005593   0.024372  -0.096563
     2  C   -0.033643   0.057401   0.011654  -0.005869   0.013896  -0.040106
     3  C    0.075956  -1.418309  -0.185481  -0.042786  -0.040387   0.183493
     4  O    0.001282  -0.022097   0.005815  -0.003290  -0.003394  -0.005446
     5  H    0.005917   0.058776  -0.027191   0.004064  -0.004192   0.075732
     6  O    0.020507   0.320933  -0.043990   0.008656  -0.000288  -0.012625
     7  H    0.002913  -0.091696  -0.025626  -0.001730  -0.006616   0.111780
     8  N    0.010605   0.512608  -0.408361   0.003962   0.049781  -0.432747
     9  C   -0.126605   0.240374   0.069822   0.003542   0.004175  -0.224217
    10  H   -0.010528  -0.014733   0.000714   0.000405   0.000297   0.006591
    11  O   -0.000854   0.002200  -0.000313   0.000047   0.000019   0.004044
    12  C    0.008753  -0.077468   0.008430  -0.005360  -0.000797   0.008539
    13  H    0.005849  -0.030175  -0.001808   0.000470  -0.000073   0.005254
    14  O    0.282290   0.006823  -0.003046   0.000578   0.000045   0.001040
    15  H    0.014616  -0.007827  -0.000355  -0.000162   0.000092   0.000386
    16  H   -0.037861   0.017863   0.003587   0.000044  -0.000385   0.000989
    17  H    0.000121   0.007305  -0.002436   0.000737   0.000610   0.005901
    18  H    0.000511  -0.028655   0.022806  -0.011511  -0.001624  -0.010596
    19  H    0.613379  -0.038408   0.013855  -0.000387  -0.000346   0.004449
    20  C   -0.038408   8.996759  -2.195190   0.266494  -0.064940  -0.945830
    21  C    0.013855  -2.195190   9.278873  -1.656047   0.282730   0.700645
    22  C   -0.000387   0.266494  -1.656047   7.799318  -0.126548  -0.793967
    23  N   -0.000346  -0.064940   0.282730  -0.126548   7.800707  -0.174835
    24  C    0.004449  -0.945830   0.700645  -0.793967  -0.174835   6.943059
    25  H    0.003061  -0.867549   0.083004  -0.153658   0.046921   0.062821
    26  H    0.000306   0.513138  -0.694356   0.040191  -0.078883  -0.120778
    27  O   -0.000163   0.062292  -0.153111   0.129380  -0.094060   0.056192
    28  O   -0.000387  -0.087014   0.017352   0.016776  -0.168176   0.144071
              25         26         27         28
     1  C    0.068101   0.000132  -0.000428   0.031609
     2  C   -0.133584  -0.001718   0.001030   0.001299
     3  C    0.214584   0.037523  -0.010833   0.175780
     4  O    0.000234   0.000303   0.000005  -0.060735
     5  H   -0.005891  -0.001454   0.000302   0.002298
     6  O   -0.208996   0.002832   0.000575  -0.009688
     7  H    0.014470  -0.000408  -0.000492   0.043436
     8  N    0.021923   0.063361  -0.017779  -0.180302
     9  C   -0.055193   0.003634  -0.000264  -0.000623
    10  H   -0.003159   0.000305  -0.000040  -0.000198
    11  O   -0.001563   0.000037   0.000002  -0.001862
    12  C    0.027931  -0.001922   0.000095   0.000473
    13  H   -0.005215   0.000157  -0.000022  -0.000142
    14  O   -0.002937   0.000099  -0.000004  -0.000003
    15  H    0.002836  -0.000277   0.000005   0.000223
    16  H   -0.000540   0.000370   0.000001  -0.000148
    17  H    0.000227  -0.000086   0.000002  -0.000571
    18  H   -0.000394  -0.000358   0.000521   0.015869
    19  H    0.003061   0.000306  -0.000163  -0.000387
    20  C   -0.867549   0.513138   0.062292  -0.087014
    21  C    0.083004  -0.694356  -0.153111   0.017352
    22  C   -0.153658   0.040191   0.129380   0.016776
    23  N    0.046921  -0.078883  -0.094060  -0.168176
    24  C    0.062821  -0.120778   0.056192   0.144071
    25  H    2.798213  -0.181015   0.001465  -0.000351
    26  H   -0.181015   1.952997  -0.020227   0.002074
    27  O    0.001465  -0.020227   8.625556  -0.004425
    28  O   -0.000351   0.002074  -0.004425   8.856014
          Atomic-Atomic Spin Densities.
               1          2          3          4          5          6
     1  C    0.021170   0.014277  -0.023952  -0.005258   0.006513   0.008516
     2  C    0.014277   0.038712  -0.021682  -0.002510   0.002985   0.002614
     3  C   -0.023952  -0.021682   0.080522   0.006294  -0.023272  -0.013331
     4  O   -0.005258  -0.002510   0.006294   0.013263  -0.002004  -0.000592
     5  H    0.006513   0.002985  -0.023272  -0.002004   0.007210   0.002175
     6  O    0.008516   0.002614  -0.013331  -0.000592   0.002175   0.016026
     7  H    0.002649   0.006176  -0.027773   0.000177   0.001770  -0.002303
     8  N   -0.000892   0.002491  -0.089760  -0.001017   0.010492   0.008821
     9  C   -0.006590  -0.007098   0.013105   0.000986  -0.001907  -0.006427
    10  H   -0.012844  -0.007158   0.010120   0.002012  -0.002405  -0.002620
    11  O   -0.001689   0.000338   0.000028   0.000085  -0.000398  -0.000475
    12  C    0.002817   0.002422  -0.003932  -0.000292   0.000475   0.001947
    13  H   -0.000325   0.000965  -0.000880  -0.000037   0.000042   0.000445
    14  O    0.001048   0.000601  -0.001856  -0.000077   0.000428   0.001002
    15  H    0.000556   0.000730  -0.001317  -0.000032   0.000077   0.000675
    16  H   -0.000738  -0.000547   0.001634   0.000004  -0.000079  -0.000904
    17  H   -0.001151  -0.000358   0.001100   0.000150  -0.000095  -0.000131
    18  H    0.003012  -0.000416  -0.006736  -0.000018   0.002407   0.000222
    19  H    0.001161   0.000200  -0.001144  -0.000184   0.000595   0.000585
    20  C   -0.004279   0.004247   0.012196   0.000177  -0.004416   0.000524
    21  C    0.001960   0.002126   0.017331  -0.000017   0.001059   0.000570
    22  C    0.000514   0.000361  -0.002210   0.000098   0.000473   0.000227
    23  N   -0.000050   0.000749   0.004098  -0.000030  -0.000201   0.000332
    24  C    0.003609  -0.002067   0.005874  -0.000767   0.002288  -0.003371
    25  H   -0.002765  -0.001103   0.013703   0.000191  -0.001158  -0.005636
    26  H    0.000132   0.000000  -0.004709  -0.000003   0.000071   0.000373
    27  O    0.000011   0.000015  -0.000964  -0.000007   0.000014   0.000002
    28  O   -0.001193   0.000143   0.004784   0.000478  -0.001208  -0.000247
               7          8          9         10         11         12
     1  C    0.002649  -0.000892  -0.006590  -0.012844  -0.001689   0.002817
     2  C    0.006176   0.002491  -0.007098  -0.007158   0.000338   0.002422
     3  C   -0.027773  -0.089760   0.013105   0.010120   0.000028  -0.003932
     4  O    0.000177  -0.001017   0.000986   0.002012   0.000085  -0.000292
     5  H    0.001770   0.010492  -0.001907  -0.002405  -0.000398   0.000475
     6  O   -0.002303   0.008821  -0.006427  -0.002620  -0.000475   0.001947
     7  H    0.045984  -0.005013   0.000175   0.000084  -0.001204   0.000256
     8  N   -0.005013   0.437492  -0.002375  -0.000369   0.001040  -0.000323
     9  C    0.000175  -0.002375   0.009587   0.005890   0.000060  -0.004164
    10  H    0.000084  -0.000369   0.005890   0.014169  -0.000114  -0.001310
    11  O   -0.001204   0.001040   0.000060  -0.000114   0.008940   0.000030
    12  C    0.000256  -0.000323  -0.004164  -0.001310   0.000030   0.000320
    13  H   -0.000000   0.000220  -0.000747  -0.000190  -0.000022   0.000478
    14  O   -0.000010   0.000694  -0.001776  -0.000425  -0.000014   0.000623
    15  H   -0.000096   0.000102  -0.001032  -0.000497   0.000009   0.000398
    16  H    0.000160  -0.000334   0.001452   0.000117   0.000024  -0.000572
    17  H   -0.000106   0.000014   0.000261   0.000248   0.000097  -0.000117
    18  H    0.002441  -0.000569  -0.000973  -0.000413  -0.000213   0.000218
    19  H    0.000169   0.000732  -0.001333  -0.000429  -0.000046   0.000183
    20  C   -0.000303  -0.031893   0.002343   0.000127   0.000253   0.000153
    21  C    0.001031   0.004100  -0.000575   0.000018  -0.000023   0.000185
    22  C   -0.000784   0.005968  -0.000134  -0.000036  -0.000036  -0.000012
    23  N    0.000884  -0.008726   0.000165   0.000000   0.000001  -0.000016
    24  C    0.007830  -0.007808  -0.001160  -0.000587  -0.000351   0.000681
    25  H   -0.000296   0.002432   0.000637   0.000441   0.000146   0.000114
    26  H   -0.000227  -0.009385  -0.000031  -0.000021  -0.000006   0.000013
    27  O    0.000148   0.001790  -0.000016   0.000002   0.000000   0.000006
    28  O   -0.003351  -0.000142   0.000411   0.000111   0.000131  -0.000072
              13         14         15         16         17         18
     1  C   -0.000325   0.001048   0.000556  -0.000738  -0.001151   0.003012
     2  C    0.000965   0.000601   0.000730  -0.000547  -0.000358  -0.000416
     3  C   -0.000880  -0.001856  -0.001317   0.001634   0.001100  -0.006736
     4  O   -0.000037  -0.000077  -0.000032   0.000004   0.000150  -0.000018
     5  H    0.000042   0.000428   0.000077  -0.000079  -0.000095   0.002407
     6  O    0.000445   0.001002   0.000675  -0.000904  -0.000131   0.000222
     7  H   -0.000000  -0.000010  -0.000096   0.000160  -0.000106   0.002441
     8  N    0.000220   0.000694   0.000102  -0.000334   0.000014  -0.000569
     9  C   -0.000747  -0.001776  -0.001032   0.001452   0.000261  -0.000973
    10  H   -0.000190  -0.000425  -0.000497   0.000117   0.000248  -0.000413
    11  O   -0.000022  -0.000014   0.000009   0.000024   0.000097  -0.000213
    12  C    0.000478   0.000623   0.000398  -0.000572  -0.000117   0.000218
    13  H    0.000662   0.000027   0.000082  -0.000165  -0.000003  -0.000016
    14  O    0.000027   0.000158   0.000165  -0.000253   0.000002   0.000032
    15  H    0.000082   0.000165   0.000186  -0.000249  -0.000000   0.000019
    16  H   -0.000165  -0.000253  -0.000249   0.000335  -0.000003  -0.000015
    17  H   -0.000003   0.000002  -0.000000  -0.000003  -0.000066  -0.000170
    18  H   -0.000016   0.000032   0.000019  -0.000015  -0.000170   0.004802
    19  H    0.000039   0.000099   0.000081  -0.000075  -0.000008   0.000105
    20  C    0.000096  -0.000270   0.000059  -0.000020  -0.000011  -0.002083
    21  C    0.000045   0.000196   0.000023  -0.000098  -0.000020   0.000237
    22  C   -0.000004   0.000026   0.000003  -0.000008   0.000004   0.000922
    23  N    0.000001  -0.000001  -0.000003   0.000012  -0.000023  -0.000298
    24  C   -0.000015   0.000117   0.000044  -0.000092  -0.000065   0.002053
    25  H   -0.000122  -0.000500  -0.000089   0.000293  -0.000016  -0.000293
    26  H   -0.000005   0.000039   0.000007  -0.000008  -0.000000   0.000093
    27  O    0.000000   0.000002   0.000000   0.000001  -0.000001   0.000008
    28  O    0.000019  -0.000020  -0.000004   0.000003   0.000083  -0.004121
              19         20         21         22         23         24
     1  C    0.001161  -0.004279   0.001960   0.000514  -0.000050   0.003609
     2  C    0.000200   0.004247   0.002126   0.000361   0.000749  -0.002067
     3  C   -0.001144   0.012196   0.017331  -0.002210   0.004098   0.005874
     4  O   -0.000184   0.000177  -0.000017   0.000098  -0.000030  -0.000767
     5  H    0.000595  -0.004416   0.001059   0.000473  -0.000201   0.002288
     6  O    0.000585   0.000524   0.000570   0.000227   0.000332  -0.003371
     7  H    0.000169  -0.000303   0.001031  -0.000784   0.000884   0.007830
     8  N    0.000732  -0.031893   0.004100   0.005968  -0.008726  -0.007808
     9  C   -0.001333   0.002343  -0.000575  -0.000134   0.000165  -0.001160
    10  H   -0.000429   0.000127   0.000018  -0.000036   0.000000  -0.000587
    11  O   -0.000046   0.000253  -0.000023  -0.000036   0.000001  -0.000351
    12  C    0.000183   0.000153   0.000185  -0.000012  -0.000016   0.000681
    13  H    0.000039   0.000096   0.000045  -0.000004   0.000001  -0.000015
    14  O    0.000099  -0.000270   0.000196   0.000026  -0.000001   0.000117
    15  H    0.000081   0.000059   0.000023   0.000003  -0.000003   0.000044
    16  H   -0.000075  -0.000020  -0.000098  -0.000008   0.000012  -0.000092
    17  H   -0.000008  -0.000011  -0.000020   0.000004  -0.000023  -0.000065
    18  H    0.000105  -0.002083   0.000237   0.000922  -0.000298   0.002053
    19  H    0.000107  -0.000954   0.000146   0.000141  -0.000075   0.000284
    20  C   -0.000954  -0.231510   0.076310   0.006333   0.012496   0.012817
    21  C    0.000146   0.076310   0.259947   0.111844  -0.006867  -0.027852
    22  C    0.000141   0.006333   0.111844  -0.367385   0.012145   0.033105
    23  N   -0.000075   0.012496  -0.006867   0.012145   0.175393  -0.008741
    24  C    0.000284   0.012817  -0.027852   0.033105  -0.008741  -0.098757
    25  H   -0.000456   0.004898  -0.016522  -0.006983  -0.000635   0.004073
    26  H    0.000149  -0.050296   0.080819   0.016176   0.001702   0.003932
    27  O    0.000018  -0.005024  -0.023366  -0.020761  -0.007427  -0.000775
    28  O   -0.000061   0.000353   0.001267  -0.000229   0.000514   0.014695
              25         26         27         28
     1  C   -0.002765   0.000132   0.000011  -0.001193
     2  C   -0.001103   0.000000   0.000015   0.000143
     3  C    0.013703  -0.004709  -0.000964   0.004784
     4  O    0.000191  -0.000003  -0.000007   0.000478
     5  H   -0.001158   0.000071   0.000014  -0.001208
     6  O   -0.005636   0.000373   0.000002  -0.000247
     7  H   -0.000296  -0.000227   0.000148  -0.003351
     8  N    0.002432  -0.009385   0.001790  -0.000142
     9  C    0.000637  -0.000031  -0.000016   0.000411
    10  H    0.000441  -0.000021   0.000002   0.000111
    11  O    0.000146  -0.000006   0.000000   0.000131
    12  C    0.000114   0.000013   0.000006  -0.000072
    13  H   -0.000122  -0.000005   0.000000   0.000019
    14  O   -0.000500   0.000039   0.000002  -0.000020
    15  H   -0.000089   0.000007   0.000000  -0.000004
    16  H    0.000293  -0.000008   0.000001   0.000003
    17  H   -0.000016  -0.000000  -0.000001   0.000083
    18  H   -0.000293   0.000093   0.000008  -0.004121
    19  H   -0.000456   0.000149   0.000018  -0.000061
    20  C    0.004898  -0.050296  -0.005024   0.000353
    21  C   -0.016522   0.080819  -0.023366   0.001267
    22  C   -0.006983   0.016176  -0.020761  -0.000229
    23  N   -0.000635   0.001702  -0.007427   0.000514
    24  C    0.004073   0.003932  -0.000775   0.014695
    25  H    0.023974  -0.004513  -0.000297   0.000155
    26  H   -0.004513  -0.047554  -0.001390  -0.000104
    27  O   -0.000297  -0.001390   0.521050  -0.000334
    28  O    0.000155  -0.000104  -0.000334  -0.029082
 Mulliken charges and spin densities:
               1          2
     1  C    0.967774   0.006219
     2  C    0.882624   0.037213
     3  C    0.582248  -0.052730
     4  O   -0.724755   0.011070
     5  H   -0.495618   0.001931
     6  O   -0.760625   0.009018
     7  H   -0.532715   0.028469
     8  N    0.117764   0.317782
     9  C    0.988822  -0.001266
    10  H   -0.350138   0.003923
    11  O   -0.688341   0.006591
    12  C    1.165946   0.000509
    13  H   -0.508432   0.000591
    14  O   -0.500939   0.000057
    15  H   -0.257382  -0.000103
    16  H   -0.248572  -0.000124
    17  H    0.194310  -0.000385
    18  H    0.303663   0.000240
    19  H    0.147073   0.000031
    20  C    0.816934  -0.197677
    21  C    0.904621   0.483876
    22  C    0.521060  -0.210243
    23  N   -0.458102   0.175398
    24  C    0.542725  -0.061006
    25  H   -0.725743   0.009672
    26  H   -0.515978  -0.014744
    27  O   -0.575577   0.462707
    28  O   -0.792645  -0.017019
 Sum of Mulliken charges =  -0.00000   1.00000
 Mulliken charges and spin densities with hydrogens summed into heavy atoms:
               1          2
     1  C    0.617636   0.010141
     2  C    0.387005   0.039144
     3  C    0.049534  -0.024260
     4  O   -0.421092   0.011310
     6  O   -0.760625   0.009018
     8  N    0.117764   0.317782
     9  C    0.480389  -0.000675
    11  O   -0.494031   0.006205
    12  C    0.659992   0.000282
    14  O   -0.353866   0.000089
    20  C    0.091191  -0.188005
    21  C    0.388644   0.469132
    22  C    0.521060  -0.210243
    23  N   -0.458102   0.175398
    24  C    0.542725  -0.061006
    27  O   -0.575577   0.462707
    28  O   -0.792645  -0.017019
 Electronic spatial extent (au):  <R**2>=           4202.5738
 Charge=             -0.0000 electrons
 Dipole moment (field-independent basis, Debye):
    X=              2.6578    Y=             -5.5300    Z=             -1.5340  Tot=              6.3244
 Quadrupole moment (field-independent basis, Debye-Ang):
   XX=           -123.0572   YY=           -104.4149   ZZ=            -99.4179
   XY=              6.4357   XZ=             -0.8323   YZ=              2.1254
 Traceless Quadrupole moment (field-independent basis, Debye-Ang):
   XX=            -14.0939   YY=              4.5485   ZZ=              9.5455
   XY=              6.4357   XZ=             -0.8323   YZ=              2.1254
 Octapole moment (field-independent basis, Debye-Ang**2):
  XXX=            133.9480  YYY=            -20.1390  ZZZ=             -2.6494  XYY=             -5.6204
  XXY=            -33.6594  XXZ=            -11.6426  XZZ=             -5.4919  YZZ=              6.0181
  YYZ=            -12.9072  XYZ=             12.0855
 Hexadecapole moment (field-independent basis, Debye-Ang**3):
 XXXX=          -4458.5530 YYYY=          -1258.2524 ZZZZ=           -286.3151 XXXY=            -73.6311
 XXXZ=             50.2282 YYYX=             94.0850 YYYZ=             12.5580 ZZZX=            -12.8914
 ZZZY=             -1.9297 XXYY=           -893.8149 XXZZ=           -685.9698 YYZZ=           -281.7930
 XXYZ=             48.4199 YYXZ=            -32.1274 ZZXY=             10.3639
 N-N= 1.308683696273D+03 E-N=-4.745807582341D+03  KE= 9.045865301809D+02
                          Isotropic Fermi Contact Couplings
        Atom                 a.u.       MegaHertz       Gauss      10(-4) cm-1
     1  C(13)             -0.00049      -0.55606      -0.19842      -0.18548
     2  C(13)              0.00897      10.08173       3.59741       3.36290
     3  C(13)             -0.01251     -14.05838      -5.01638      -4.68937
     4  O(17)              0.00254      -1.54072      -0.54977      -0.51393
     5  H(1)              -0.00017      -0.74234      -0.26489      -0.24762
     6  O(17)              0.00127      -0.76834      -0.27416      -0.25629
     7  H(1)               0.01221      54.56080      19.46865      18.19952
     8  N(14)              0.07050      22.78018       8.12854       7.59865
     9  C(13)              0.00026       0.28820       0.10284       0.09613
    10  H(1)               0.00170       7.58611       2.70691       2.53046
    11  O(17)              0.00179      -1.08304      -0.38645      -0.36126
    12  C(13)             -0.00005      -0.05177      -0.01847      -0.01727
    13  H(1)               0.00015       0.65652       0.23426       0.21899
    14  O(17)             -0.00004       0.02262       0.00807       0.00754
    15  H(1)              -0.00000      -0.00095      -0.00034      -0.00032
    16  H(1)              -0.00001      -0.06488      -0.02315      -0.02164
    17  H(1)               0.00000       0.01550       0.00553       0.00517
    18  H(1)               0.00033       1.48535       0.53001       0.49546
    19  H(1)               0.00000       0.00765       0.00273       0.00255
    20  C(13)             -0.02757     -30.99508     -11.05981     -10.33884
[...]
 ,0.00002305,-0.00002920,-0.00031260,-0.00010353,0.00010908,0.00003220,
 0.00004218,-0.00010453,-0.04048340,0.00468316,-0.05930207,0.07699250,0
 .00733137,0.11878453,0.00074899,0.00044424,0.00612403,0.00061226,0.010
 93580,-0.01408387,-0.00734712,-0.01730006,0.01334013,0.00374852,-0.011
 06529,0.00165818,-0.00015902,0.00017439,0.00008837,-0.00026173,0.00252
 278,-0.00032087,0.00008160,0.00018586,-0.00141537,0.06059101,-0.034906
 36,0.00684578,0.00236257,-0.00092191,0.00052015,-0.00160142,0.00046852
 ,-0.00098457,-0.00184778,-0.00216096,-0.00108186,-0.00016683,-0.000655
 84,-0.00025996,-0.00027324,0.00004025,-0.00008167,-0.00026715,0.001014
 80,0.00049953,-0.00005558,0.00008108,0.00010844,0.00015205,0.00016860,
 -0.00001474,0.00077529,0.00080546,0.00003886,-0.00874639,0.00214831,0.
 00045861,0.00018785,-0.00070206,-0.00038078,0.01052952,0.02387737,-0.0
 0435291,-0.08708370,0.03639495,0.00455071,0.50586264,-0.00011318,0.000
 13526,0.00192142,0.00035479,0.00642947,-0.00498740,-0.00668467,-0.0079
 4733,0.00145404,0.00599827,-0.00491048,0.00057328,-0.00033634,-0.00016
 952,0.00027030,0.00143825,-0.00079058,-0.00003073,-0.00184285,0.002012
 14,-0.00079164,0.01000538,-0.01627862,0.00461120,0.00050323,-0.0001702
 0,0.00041901,-0.00032413,0.00013897,-0.00036404,0.00003119,-0.00113965
 ,-0.00025021,0.00007589,0.00013634,0.00010729,0.00004136,-0.00008009,0
 .00001115,-0.00007955,-0.00022172,-0.00006340,-0.00002219,-0.00000564,
 -0.00001632,0.00002570,-0.00005327,0.00001532,-0.00057622,0.00031433,-
 0.00035334,-0.00945184,-0.00016389,0.00205502,0.00014642,0.00013466,-0
 .00012483,0.00772619,0.02454631,0.00460596,0.07317811,-0.19702626,0.01
 111437,0.08931951,0.61698182,0.00035020,-0.00011237,0.00106056,0.00059
 632,0.00235315,-0.00278069,0.00041592,-0.00406478,0.00042947,-0.000030
 39,-0.00146896,0.00035689,0.00001073,-0.00005056,0.00008081,0.00006092
 ,0.00135746,-0.00125360,-0.00118402,-0.00003586,-0.00047737,0.00674179
 ,-0.00220330,-0.00093237,0.00055990,-0.00019140,-0.00001114,-0.0002948
 0,0.00015946,-0.00023017,-0.00059839,-0.00044771,-0.00026471,0.0000810
 0,-0.00009132,0.00009765,-0.00004480,0.00004677,-0.00005758,-0.0002030
 4,0.00031557,-0.00000486,-0.00001543,-0.00002137,0.00001768,0.00002626
 ,0.00005396,-0.00002335,0.00024214,0.00023008,-0.00000061,-0.00039203,
 0.00042363,0.00008371,0.00007013,-0.00025241,-0.00002854,-0.00009872,-
 0.00792812,0.02266764,0.00057157,0.01027279,-0.08491609,0.05676120,-0.
 00335083,0.17765536,-0.00021972,-0.00006393,-0.00350758,0.00042127,-0.
 00961584,0.00819174,0.00902696,0.01553596,-0.00743916,-0.00813505,0.00
 876355,0.00029616,0.00018029,0.00025091,-0.00000568,-0.00402085,0.0004
 4163,0.00027246,0.00093080,-0.00069971,0.00145035,-0.08172624,0.054111
 68,-0.01426972,-0.00046873,0.00064228,-0.00113459,0.00078285,-0.000291
 76,0.00058784,0.00037688,0.00148714,0.00044927,-0.00017621,-0.00008894
 ,-0.00018197,-0.00015338,0.00004394,0.00009539,0.00021511,0.00003989,0
 .00012383,0.00002691,0.00003423,0.00005479,-0.00005033,0.00000391,0.00
 000754,0.00032972,-0.00039780,0.00028589,0.01353198,-0.00036277,-0.003
 57366,-0.00030683,0.00000984,0.00006368,-0.03984107,-0.03285492,-0.003
 83782,0.01901103,0.01431887,0.00046449,0.00820177,-0.06212593,0.001267
 31,0.55117732,-0.00002252,-0.00040869,-0.00195167,-0.00069735,-0.00819
 454,0.00529697,0.00366699,-0.00059671,-0.00185953,-0.00883558,0.007227
 95,0.00033296,0.00035517,0.00043137,-0.00015902,0.00294373,0.00044277,
 0.00027882,0.00150612,-0.00150262,0.00113331,0.01709906,0.02082943,0.0
 0000840,-0.00118035,-0.00020172,0.00051226,0.00040826,-0.00007586,0.00
 030098,0.00000439,0.00138475,0.00020668,0.00014232,0.00005852,-0.00005
 886,0.00031792,0.00009193,-0.00011077,0.00008982,0.00010216,-0.0000511
 6,0.00005355,-0.00007548,-0.00004068,-0.00006162,0.00006449,0.00000518
 ,0.00064302,-0.00034993,0.00038303,0.01314385,0.00006481,-0.00429465,-
 0.00021312,-0.00000325,0.00014897,-0.01271398,-0.00770920,0.00026369,-
 0.00260312,-0.04276202,0.00077862,0.01612117,-0.31078265,0.00844941,0.
 19334332,0.52475040,-0.00006287,0.00001095,-0.00003303,-0.00035516,-0.
 00065058,0.00041809,0.00027584,0.00210788,0.00149138,-0.00051639,0.000
 50633,0.00001261,-0.00009343,0.00002866,-0.00004119,-0.00060355,-0.000
 19519,-0.00019482,0.00044638,-0.00033842,-0.00001670,-0.01182866,0.002
 62610,0.01688909,0.00015550,0.00004729,-0.00034569,0.00001325,-0.00001
 727,0.00002254,0.00008237,0.00002532,0.00004377,0.00000636,-0.00002543
 ,-0.00007384,-0.00009759,0.00000259,0.00004910,0.00003077,-0.00000594,
 0.00009265,-0.00000904,-0.00000322,0.00001421,0.00000666,-0.00001988,0
 .00001337,-0.00003205,0.00000494,-0.00000809,0.00081848,0.00028206,-0.
 00010946,0.00001646,0.00001448,-0.00006640,0.00001780,0.00172336,-0.00
 468202,-0.00390334,0.00330399,0.02137665,0.00124271,0.00140630,-0.0590
 8744,0.04907062,0.00252398,0.06527751,0.00028951,0.00047381,0.00435903
 ,-0.00172508,0.01248915,-0.01052480,-0.02767370,0.00592093,0.00262021,
 0.00687330,-0.00991751,0.00141325,-0.00019495,0.00000028,0.00020916,-0
 .00106821,-0.00227917,-0.00095511,-0.00287414,-0.00042328,-0.00310323,
 -0.07036445,-0.08187899,0.00196698,0.00156144,-0.00044106,-0.00077018,
 -0.00099019,0.00032594,-0.00069692,-0.00044467,-0.00201034,-0.00046015
 ,0.00014886,0.00001187,0.00018305,-0.00039987,0.00001385,0.00008699,-0
 .00031617,0.00005849,-0.00005392,-0.00005409,-0.00002661,-0.00000777,0
 .00009595,-0.00002270,-0.00001477,-0.00035259,0.00049620,-0.00033021,-
 0.01406939,-0.00390389,0.00128920,0.00052862,-0.00011928,-0.00009940,0
 .09263053,0.05716335,0.01964048,-0.02723991,0.00832475,-0.01047854,-0.
 17796958,-0.05039466,-0.02138321,-0.29452584,-0.06326147,-0.02607015,0
 .57061054,-0.00027905,0.00123087,0.00255118,-0.00127360,0.01780324,-0.
 00717758,0.01121155,0.02561883,0.00448426,0.02530523,-0.01575751,-0.00
 230313,-0.00076973,-0.00136072,-0.00032325,-0.01329779,-0.00324515,-0.
 00094409,-0.00423294,0.00143885,-0.00353443,-0.02191880,-0.05279371,0.
 00000428,0.00248587,0.00101869,-0.00239088,-0.00057265,-0.00010160,-0.
 00027386,0.00076889,-0.00294356,-0.00005443,-0.00057998,-0.00029541,0.
 00003816,-0.00112694,-0.00018244,0.00036791,-0.00005729,-0.00026531,0.
 00026887,-0.00012395,0.00028269,0.00013326,0.00012104,-0.00020685,-0.0
 0003453,-0.00202723,0.00058942,-0.00101077,-0.03483522,-0.00451556,0.0
 1213146,0.00037263,-0.00011174,-0.00036002,-0.01220032,-0.04844353,-0.
 00769982,0.01051813,0.00294119,0.00501197,-0.02757939,-0.02106057,0.00
 244998,-0.06231115,-0.11221805,-0.00430623,0.32853078,0.72098839,0.000
 14172,-0.00005744,0.00047112,-0.00078645,0.00007182,-0.00018694,-0.004
 86855,0.00170505,0.00138657,0.00095969,0.00024434,-0.00049214,0.000318
 88,-0.00013469,-0.00024660,-0.00035256,-0.00082225,0.00108727,-0.00060
 752,0.00009458,0.00045926,-0.00268756,-0.01636322,-0.07202040,-0.00011
 472,0.00026268,0.00085882,-0.00015944,0.00004148,-0.00010628,-0.000272
 19,-0.00018981,-0.00031136,-0.00018853,-0.00002801,0.00010910,0.000169
 12,0.00004161,-0.00013042,-0.00006321,0.00006095,-0.00014667,0.0000066
 0,0.00005274,-0.00001022,-0.00000174,0.00005164,-0.00002367,0.00016058
 ,0.00005577,0.00005130,-0.00060432,0.00164667,-0.00056008,0.00005832,-
 0.00006826,0.00011176,0.01438833,0.01104653,0.00571118,-0.00295705,-0.
 00036556,-0.00365280,-0.02648508,-0.00579273,-0.01689699,-0.01536102,-
 0.00512189,-0.06807048,0.01299552,-0.00891338,0.21186958,-0.00005382,-
 0.00026979,0.00031533,-0.00003787,0.00020684,-0.00038638,-0.00103514,-
 0.00145765,0.00106350,-0.00031346,0.00031172,-0.00009112,0.00003871,0.
 00005009,0.00003805,-0.00418038,-0.00263441,-0.00174697,0.00024611,0.0
 0068771,-0.00005538,0.01402144,-0.00385782,0.00130250,-0.00166089,-0.0
 0012871,0.00048802,-0.00006386,0.00008146,-0.00009294,-0.00000308,0.00
 026600,-0.00005049,-0.00012840,-0.00007575,0.00009456,0.00027448,0.000
 01774,-0.00002395,0.00001735,-0.00007128,-0.00036546,0.00008711,0.0000
 3900,-0.00010991,-0.00013723,0.00017553,-0.00006404,0.00005728,-0.0000
 2865,0.00002737,0.00033834,0.00000370,-0.00010668,-0.00001661,0.000230
 59,0.00099660,-0.20683370,0.14532795,-0.04100208,-0.00961493,0.0196192
 3,-0.00384673,0.00010001,-0.00505468,-0.00075351,-0.00083836,0.0000211
 5,0.00053758,0.00190493,-0.00179777,-0.00108644,0.21067887,0.00015392,
 -0.00019591,-0.00008682,0.00006647,-0.00046901,0.00003790,0.00296012,-
 0.00203288,0.00057445,-0.00043985,0.00049972,-0.00000960,-0.00001231,0
 .00000762,0.00010322,0.00122552,0.00158465,-0.00000920,-0.00011101,0.0
 0011051,0.00007787,0.02445382,-0.02714989,0.00611501,-0.00132785,0.000
 63606,0.00043493,0.00003019,0.00009921,-0.00007169,0.00003883,0.000194
 77,-0.00000121,-0.00003386,0.00027928,-0.00007341,0.00029302,0.0000198
 8,-0.00001961,0.00018661,-0.00038847,-0.00016044,0.00004380,-0.0000852
 2,-0.00000699,0.00005839,-0.00004536,0.00007314,0.00003765,-0.00004476
 ,0.00002541,0.00064853,0.00003006,-0.00024792,-0.00020903,0.00066412,0
 .00007182,0.13798848,-0.19119038,0.03461223,-0.00674830,0.01153830,-0.
 00113962,-0.00144301,-0.00120040,0.00133312,0.00108174,0.00078467,-0.0
 0022524,-0.00743731,0.00195655,-0.00109961,-0.15148996,0.20671225,0.00
 028950,-0.00006354,-0.00032922,0.00106321,0.00061589,0.00051260,0.0013
 0768,-0.00103107,-0.00403682,-0.00007204,-0.00016650,-0.00009086,0.000
 00766,0.00000285,-0.00007964,-0.00124528,-0.00088513,-0.00167424,-0.00
 106042,0.00019650,-0.00009709,0.00016705,0.00170084,0.00881576,-0.0004
 4147,0.00022209,-0.00000624,0.00008693,0.00007263,-0.00000064,-0.00014
 377,0.00000478,-0.00000306,0.00045528,0.00005945,0.00081622,0.00005574
 ,-0.00003097,-0.00002578,-0.00052599,-0.00005367,-0.00040659,-0.000059
 43,-0.00004520,-0.00011652,-0.00003561,0.00007963,-0.00008122,0.000060
 00,0.00002526,0.00000105,-0.00003971,0.00003047,-0.00000570,0.00089079
 ,-0.00013673,-0.00042002,-0.04289041,0.03658097,-0.05276460,-0.0014204
 6,0.00438229,0.00636147,0.00233813,-0.00254490,0.00493681,-0.00117875,
 0.00027429,-0.00217775,-0.00182384,0.00030545,0.00672166,0.04455673,-0
 .03998897,0.03784261,-0.00000036,-0.00004110,0.00010312,-0.00014997,0.
 00012078,-0.00032223,0.00094114,-0.00129411,0.00033000,0.00011695,-0.0
 0012414,0.00006135,0.00000903,-0.00001390,0.00001199,0.00002704,0.0002
 7883,0.00003381,-0.00035717,-0.00011147,-0.00006724,-0.00564349,-0.000
 93808,-0.00204633,0.00009744,-0.00003408,-0.00003938,-0.00004355,0.000
 00367,-0.00001264,-0.00003571,-0.00000050,0.00000331,-0.00003376,-0.00
 006564,-0.00005466,-0.00001747,0.00000695,0.00000148,0.00004055,0.0000
 9169,0.00005373,0.00000581,0.00001136,0.00001100,-0.00000975,0.0000117
 1,-0.00000638,0.00001296,0.00001498,-0.00000878,-0.00019502,0.00002164
 ,0.00002638,-0.00004646,-0.00009135,-0.00000423,-0.00260608,-0.0279376
 7,-0.00021451,-0.08476842,-0.09123796,-0.00747043,0.01107567,0.0178672
 6,0.00104189,-0.00194729,0.00516866,-0.00075876,-0.00305816,0.00030727
 ,-0.00032548,0.00068380,0.00037710,0.00071881,0.08373803,0.00002174,-0
 .00001602,-0.00000566,-0.00007006,-0.00009329,0.00003158,0.00069613,0.
 00035994,0.00009959,-0.00006994,0.00006307,-0.00002133,0.00001692,0.00
 000231,-0.00001364,-0.00002617,-0.00000404,-0.00004430,-0.00000497,-0.
 00010109,0.00000941,0.00060951,0.00139220,0.00033475,0.00001802,-0.000
 00308,-0.00002647,-0.00000288,0.00000162,0.00000253,0.00000304,0.00001
 138,0.00000459,0.00000727,0.00000680,-0.00000722,-0.00000304,0.0000044
 4,0.00000074,0.00000843,-0.00000905,0.00001056,-0.00000023,-0.00000294
 ,0.00000238,-0.00000086,-0.00000195,0.00000478,0.00000637,-0.00000516,
 0.00000494,0.00011217,0.00001019,-0.00004849,0.00000461,0.00001394,-0.
 00002012,0.00460576,0.00129328,0.00087402,-0.09458362,-0.32887867,-0.0
 1083044,-0.01503342,-0.01327066,-0.00264029,0.00362531,-0.00316417,0.0
 0035396,0.00053558,0.00067601,0.00011078,-0.00024702,0.00040376,-0.000
 22579,0.09929084,0.33885651,-0.00010399,0.00005064,-0.00020699,-0.0001
 6971,-0.00025623,0.00047679,0.00023466,-0.00021329,0.00022018,-0.00005
 953,0.00015096,-0.00011936,0.00001409,-0.00000352,-0.00002570,-0.00007
 626,0.00003865,0.00036020,0.00003674,0.00020730,0.00016303,-0.00199299
 ,-0.00043719,0.00501487,-0.00001919,0.00000796,0.00005168,0.00003521,-
 0.00002358,0.00004285,0.00002083,0.00003285,0.00003609,-0.00001079,-0.
 00001334,0.00004928,0.00000222,-0.00001034,-0.00000467,-0.00001893,-0.
 00003389,-0.00006190,-0.00000376,0.00001256,-0.00000294,-0.00000064,0.
 00000254,-0.00000768,-0.00001711,-0.00001543,0.00001367,0.00010255,-0.
 00000093,-0.00000077,0.00001114,0.00002622,0.00005737,-0.00154243,-0.0
 0292852,0.00344078,-0.00432945,-0.01075781,-0.03089912,-0.00717146,0.0
 0093794,0.00409494,0.00230685,0.00087563,0.00424540,0.00054517,0.00006
 007,-0.00210234,0.00097268,-0.00033960,-0.00292791,0.00848550,0.011413
 57,0.01995407,-0.00038675,-0.00017277,-0.00337851,-0.00030907,-0.00664
 693,0.00779018,0.00388469,0.00934686,-0.00705855,-0.00307623,0.0065167
 5,-0.00067648,0.00010180,-0.00002193,-0.00005223,-0.00027322,-0.001742
 23,0.00015470,0.00013649,-0.00017088,0.00093857,-0.03291391,0.02295048
 ,-0.00435175,-0.00106690,0.00033884,-0.00029453,0.00085906,-0.00026429
 ,0.00054903,0.00088111,0.00119147,0.00056249,0.00010830,0.00031400,0.0
 0011533,0.00010597,-0.00001120,0.00003711,0.00010835,-0.00045127,-0.00
 019222,0.00002289,-0.00004183,-0.00004607,-0.00006644,-0.00008670,0.00
 000997,-0.00028540,-0.00042030,0.00002773,0.00620540,-0.00105047,-0.00
 086388,-0.00006097,0.00029467,0.00008940,-0.02500979,0.00683569,0.0002
 3142,-0.09894432,0.02851553,-0.01913857,-0.35020225,-0.09347309,-0.048
 69207,-0.10466708,-0.08100396,-0.00803900,0.09468469,-0.01089229,0.014
 07453,-0.00279342,-0.00100172,-0.00175299,0.00129504,0.00068089,0.0031
 8256,0.53452725,0.00001765,-0.00002254,-0.00076192,-0.00035674,-0.0024
 2355,0.00196759,0.00266397,0.00331200,0.00002431,-0.00203085,0.0016568
 4,-0.00018247,0.00011760,0.00005957,-0.00012317,-0.00040975,-0.0000515
 0,-0.00002534,0.00068515,-0.00078909,0.00023905,-0.00426775,-0.0020936
 7,-0.00214045,-0.00025764,0.00006444,-0.00006659,0.00013502,-0.0000573
 4,0.00014894,0.00006542,0.00043666,0.00011429,-0.00002200,-0.00002364,
 -0.00001691,0.00000476,0.00003051,-0.00001127,0.00002896,0.00003086,0.
 00000533,0.00000443,0.00000302,-0.00000203,-0.00000991,0.00001188,-0.0
 0000703,0.00017330,-0.00013578,0.00013063,0.00303625,0.00006016,-0.000
 77923,-0.00001895,-0.00002048,0.00003387,0.00821690,0.00238474,-0.0016
 3370,0.01514035,0.01754657,0.00154090,-0.07709471,-0.10142399,-0.00446
 144,-0.07240274,-0.03116960,-0.00881721,0.01089158,-0.00515728,0.00090
 466,0.00115150,0.00054935,0.00113267,-0.00177803,0.00257342,0.00098748
 ,0.12491993,0.12127945,-0.00012203,0.00004292,-0.00076594,0.00007886,-
 0.00160859,0.00174668,-0.00024978,0.00212498,-0.00142673,-0.00063962,0
 .00097779,-0.00006149,-0.00000517,0.00006281,-0.00001108,0.00000968,-0
 .00062765,0.00051589,0.00043963,0.00017234,0.00027336,-0.00413500,0.00
 446225,-0.00260337,-0.00037810,0.00012738,-0.00001487,0.00020106,-0.00
 008828,0.00014674,0.00030215,0.00034111,0.00016513,-0.00004188,0.00004
 661,-0.00006703,0.00003456,-0.00001674,0.00002587,0.00010779,-0.000139
 97,0.00003188,0.00001301,0.00000942,-0.00001059,-0.00001714,-0.0000286
 5,0.00001597,-0.00007993,-0.00014508,0.00003569,0.00096263,-0.00015612
 ,-0.00017095,-0.00004815,0.00010774,-0.00000768,-0.00588663,0.00402418
 ,-0.00702844,-0.01720281,0.00203085,0.02038633,-0.04253923,-0.00892915
 ,-0.05472165,-0.01158685,-0.00820189,0.00823704,0.01610531,-0.00491168
 ,0.01183505,-0.00065700,-0.00062380,-0.00009960,0.00036177,0.00049250,
 -0.00168579,0.06984610,0.01094847,0.02723985,0.00001481,0.00002065,-0.
 00259066,0.00077968,-0.01596853,0.00714903,0.00071083,0.00023799,-0.00
 449503,-0.03328526,0.00988331,0.00934315,0.00034719,0.00110480,0.00008
 027,0.00105492,0.00279565,0.00089964,0.00028577,0.00196568,0.00175406,
 0.00994892,0.02706526,-0.00570484,-0.00053965,0.00000596,0.00038024,0.
 00053511,-0.00018063,0.00035696,-0.00061649,0.00184996,-0.00021487,-0.
 00004789,-0.00018414,-0.00018710,0.00023948,0.00013984,-0.00015281,0.0
 0004405,0.00042105,0.00013594,0.00002199,-0.00001836,0.00004184,-0.000
 02392,0.00012449,0.00001242,0.00154458,-0.00017414,0.00118479,0.007970
 66,0.00640677,-0.00414506,-0.00025876,-0.00016864,0.00002682,-0.014941
 70,-0.00692138,-0.00517822,0.00387480,-0.00525456,0.00287524,0.0309520
 5,0.02376780,0.00489316,-0.06713591,-0.08443542,-0.00035079,-0.1460073
 5,-0.18374532,0.01364858,-0.00073727,0.00061002,0.00069268,0.00086921,
 -0.00020038,-0.00043397,-0.02286530,-0.00860369,-0.00487323,0.22726547
 ,0.00007080,-0.00020272,-0.00286363,-0.00024439,-0.01268140,0.00692487
 ,-0.00454532,-0.00142792,-0.00357594,-0.02095684,0.01496027,0.00337881
 ,0.00045915,0.00114889,0.00007234,0.00337142,0.00100701,-0.00017835,0.
 00233552,-0.00183728,0.00171734,0.00646166,-0.09906047,0.01180369,-0.0
 0199087,-0.00025789,0.00059095,0.00056408,-0.00007532,0.00042538,-0.00
 034611,0.00228778,0.00024370,0.00018649,0.00000646,-0.00019616,0.00041
 856,0.00016672,-0.00016499,0.00014389,0.00031958,-0.00002278,0.0000878
 8,-0.00010713,-0.00004993,-0.00008510,0.00016667,0.00001806,0.00148650
 ,-0.00057992,0.00082185,0.02652573,-0.00423634,-0.00947846,-0.00034628
 ,-0.00003694,0.00025816,0.01641955,0.00317438,0.00415009,-0.00255850,-
 0.00504229,-0.00066633,0.00415992,0.02586620,-0.00012466,-0.05251870,-
 0.03701877,-0.00036357,-0.20312029,-0.50588575,0.02256555,-0.00107673,
 -0.00326847,-0.00051359,0.00009528,-0.00011877,0.00022929,-0.00445325,
 -0.00663101,-0.00049374,0.22945596,0.62936443,-0.00016137,-0.00031157,
 0.00030435,0.00071434,0.00614164,-0.00275201,0.00004195,-0.00103497,-0
 .00389771,0.01593142,-0.00356875,0.00074195,-0.00035219,-0.00033238,0.
 00031026,-0.00134946,0.00181011,0.00112658,0.00032520,0.00147142,0.000
 44914,-0.00262424,0.02075016,0.01697688,0.00107378,0.00036253,-0.00033
 219,-0.00011009,0.00002338,0.00002648,0.00040325,-0.00050379,0.0007299
 3,-0.00022424,-0.00003666,-0.00005953,-0.00010023,-0.00013038,0.000086
 58,0.00009278,-0.00016436,0.00015609,-0.00002993,0.00005131,0.00005601
 ,0.00001683,-0.00009904,0.00000092,-0.00070065,-0.00004919,-0.00089174
 ,-0.00723465,-0.00352376,-0.00305375,0.00000095,0.00008083,-0.00012087
 ,-0.00679527,-0.00320567,0.00063475,0.00212524,0.00054370,-0.00099352,
 0.00459754,-0.00190309,0.01020564,-0.00291139,0.00007695,0.01672351,0.
 01535788,0.01643127,-0.07571526,0.00004616,0.00064461,-0.00066471,0.00
 008689,0.00013307,-0.00017605,-0.00307229,0.00085058,-0.00198028,-0.01
 514821,-0.03450794,0.04210855\\0.00000547,-0.00000654,0.00000346,0.000
 00065,0.00002937,-0.00002098,0.00001159,-0.00002531,0.00003115,0.00000
 423,-0.00001970,0.00001424,0.00000012,-0.00000783,0.00000237,-0.000020
 16,0.00000657,-0.00000650,-0.00000175,0.00000455,-0.00000565,-0.000006
 68,0.00002147,-0.00000205,0.00001389,-0.00000049,0.00000010,-0.0000032
 5,0.00000170,-0.00000342,-0.00001856,0.00000761,-0.00000664,-0.0000071
 5,-0.00000438,-0.00000712,-0.00000282,0.00000433,-0.00000029,0.0000024
 3,0.00000391,0.00000916,-0.00000055,-0.00000251,0.00000403,-0.00000014
 ,-0.00000046,0.00000559,0.00000956,0.00000374,0.00000448,0.00000246,0.
 00000276,-0.00000196,0.00000091,-0.00000088,0.00000023,-0.00001262,0.0
 0000136,-0.00000959,0.00002890,-0.00001200,0.00000813,-0.00004930,0.00
 002712,-0.00001238,0.00000891,-0.00000886,0.00001348,0.00000365,-0.000
 03016,-0.00001664,-0.00000250,-0.00000146,-0.00000027,-0.00000261,0.00
 000072,0.00000007,0.00002937,-0.00000055,-0.00000267,0.00000594,0.0000
 0592,-0.00000033\\\@
 The archive entry for this job was punched.


 THE SOLUTION TO A PROBLEM CHANGES THE PROBLEM.

                                 -- JOHN PEERS
           PAUL DICKSON'S "THE OFFICIAL RULES"
 Job cpu time:       0 days 17 hours 23 minutes 17.4 seconds.
 Elapsed time:       0 days  0 hours 26 minutes 18.0 seconds.
 File lengths (MBytes):  RWF=   1167 Int=      0 D2E=      0 Chk=     28 Scr=      1
 Normal termination of Gaussian 16 at Mon Oct 21 16:26:51 2024.
