 Entering Gaussian System, Link 0=g16
 Input=UridineMSsllgPBE0aVDZ.gjf
 Output=UridineMSsllgPBE0aVDZ.log
 Initial command:
 /sw/contrib/chem-src/g16/c01/g16/l1.exe "/scr/Gau-2852.inp" -scrdir="/scr/"
 Entering Link 1 = /sw/contrib/chem-src/g16/c01/g16/l1.exe PID=      2853.
  
 Copyright (c) 1988-2019, Gaussian, Inc.  All Rights Reserved.
  
 This is part of the Gaussian(R) 16 program.  It is based on
 the Gaussian(R) 09 system (copyright 2009, Gaussian, Inc.),
 the Gaussian(R) 03 system (copyright 2003, Gaussian, Inc.),
 the Gaussian(R) 98 system (copyright 1998, Gaussian, Inc.),
 the Gaussian(R) 94 system (copyright 1995, Gaussian, Inc.),
 the Gaussian 92(TM) system (copyright 1992, Gaussian, Inc.),
 the Gaussian 90(TM) system (copyright 1990, Gaussian, Inc.),
 the Gaussian 88(TM) system (copyright 1988, Gaussian, Inc.),
 the Gaussian 86(TM) system (copyright 1986, Carnegie Mellon
 University), and the Gaussian 82(TM) system (copyright 1983,
 Carnegie Mellon University). Gaussian is a federally registered
 trademark of Gaussian, Inc.
  
 This software contains proprietary and confidential information,
 including trade secrets, belonging to Gaussian, Inc.
  
 This software is provided under written license and may be
 used, copied, transmitted, or stored only in accord with that
 written license.
  
 The following legend is applicable only to US Government
 contracts under FAR:
  
                    RESTRICTED RIGHTS LEGEND
  
 Use, reproduction and disclosure by the US Government is
 subject to restrictions as set forth in subparagraphs (a)
 and (c) of the Commercial Computer Software - Restricted
 Rights clause in FAR 52.227-19.
  
 Gaussian, Inc.
 340 Quinnipiac St., Bldg. 40, Wallingford CT 06492
  
  
 ---------------------------------------------------------------
 Warning -- This program may not be used in any manner that
 competes with the business of Gaussian, Inc. or will provide
 assistance to any competitor of Gaussian, Inc.  The licensee
 of this program is prohibited from giving any competitor of
 Gaussian, Inc. access to this program.  By using this program,
 the user acknowledges that Gaussian, Inc. is engaged in the
 business of creating and licensing software in the field of
 computational chemistry and represents and warrants to the
 licensee that it is not a competitor of Gaussian, Inc. and that
 it will not use this program in any manner prohibited above.
 ---------------------------------------------------------------
  

 Cite this work as:
 Gaussian 16, Revision C.01,
 M. J. Frisch, G. W. Trucks, H. B. Schlegel, G. E. Scuseria, 
 M. A. Robb, J. R. Cheeseman, G. Scalmani, V. Barone, 
 G. A. Petersson, H. Nakatsuji, X. Li, M. Caricato, A. V. Marenich, 
 J. Bloino, B. G. Janesko, R. Gomperts, B. Mennucci, H. P. Hratchian, 
 J. V. Ortiz, A. F. Izmaylov, J. L. Sonnenberg, D. Williams-Young, 
 F. Ding, F. Lipparini, F. Egidi, J. Goings, B. Peng, A. Petrone, 
 T. Henderson, D. Ranasinghe, V. G. Zakrzewski, J. Gao, N. Rega, 
 G. Zheng, W. Liang, M. Hada, M. Ehara, K. Toyota, R. Fukuda, 
 J. Hasegawa, M. Ishida, T. Nakajima, Y. Honda, O. Kitao, H. Nakai, 
 T. Vreven, K. Throssell, J. A. Montgomery, Jr., J. E. Peralta, 
 F. Ogliaro, M. J. Bearpark, J. J. Heyd, E. N. Brothers, K. N. Kudin, 
 V. N. Staroverov, T. A. Keith, R. Kobayashi, J. Normand, 
 K. Raghavachari, A. P. Rendell, J. C. Burant, S. S. Iyengar, 
 J. Tomasi, M. Cossi, J. M. Millam, M. Klene, C. Adamo, R. Cammi, 
 J. W. Ochterski, R. L. Martin, K. Morokuma, O. Farkas, 
 J. B. Foresman, and D. J. Fox, Gaussian, Inc., Wallingford CT, 2019.
 
 ******************************************
 Gaussian 16:  EM64L-G16RevC.01  3-Jul-2019
                18-Oct-2024 
 ******************************************
 %nprocshared=40
 Will use up to   40 processors via shared memory.
 %mem=50gb
 ------------------------------------------------------
 # PBE1PBE/aug-cc-pVDZ opt freq EmpiricalDispersion=GD3
 ------------------------------------------------------
 1/18=20,19=15,26=3,38=1/1,3;
 2/9=110,12=2,17=6,18=5,40=1/2;
 3/5=16,7=10,11=2,25=1,30=1,71=1,74=-13,124=31/1,2,3;
 4//1;
 5/5=2,38=5/2;
 6/7=2,8=2,9=2,10=2,28=1/1;
 7//1,2,3,16;
 1/18=20,19=15,26=3/3(2);
 2/9=110/2;
 99//99;
 2/9=110/2;
 3/5=16,7=10,11=2,25=1,30=1,71=1,74=-13,124=31/1,2,3;
 4/5=5,16=3,69=1/1;
 5/5=2,38=5/2;
 7//1,2,3,16;
 1/18=20,19=15,26=3/3(-5);
 2/9=110/2;
 6/7=2,8=2,9=2,10=2,19=2,28=1/1;
 99/9=1/99;
 ----
 blah
 ----
 Symbolic Z-matrix:
 Charge = -1 Multiplicity = 1
 C                     2.76723   0.25862   0.28648 
 C                     1.39827   0.90718   0.49704 
 C                     0.61354   0.41228  -0.73801 
 O                     1.55718   2.29609   0.56155 
 H                     0.93315   0.49715   1.4061 
 O                     1.22052  -0.7658   -1.17641 
 H                     0.63084   1.17737  -1.52882 
 N                    -0.81229   0.1166   -0.44373 
 C                     2.42946  -1.03833  -0.43237 
 H                     3.27438   0.07499   1.24692 
 O                     3.56159   1.04953  -0.56719 
 C                     2.22996  -2.24571   0.46449 
 H                     3.21526  -1.26053  -1.16752 
 O                     1.27985  -2.03245   1.49297 
 H                     3.18399  -2.47487   0.95923 
 H                     1.95949  -3.11428  -0.15731 
 H                     3.33173   1.96966  -0.37478 
 H                     0.6618    2.66951   0.49803 
 H                     0.39692  -2.12348   1.12282 
 C                    -1.36926  -1.11053  -0.7033 
 C                    -2.66986  -1.39433  -0.4674 
 C                    -3.55084  -0.36919   0.05623 
 N                    -2.89991   0.86105   0.24593 
 C                    -1.58478   1.16403   0.01647 
 H                    -0.67557  -1.83462  -1.12326 
 H                    -3.0831   -2.37536  -0.68086 
 O                    -4.73362  -0.48274   0.31789 
 O                    -1.13034   2.2882    0.20989 
 

 GradGradGradGradGradGradGradGradGradGradGradGradGradGradGradGradGradGrad
 Berny optimization.
 Initialization pass.
                           ----------------------------
                           !    Initial Parameters    !
                           ! (Angstroms and Degrees)  !
 --------------------------                            --------------------------
 ! Name  Definition              Value          Derivative Info.                !
 --------------------------------------------------------------------------------
 ! R1    R(1,2)                  1.5294         estimate D2E/DX2                !
 ! R2    R(1,9)                  1.5208         estimate D2E/DX2                !
 ! R3    R(1,10)                 1.1015         estimate D2E/DX2                !
 ! R4    R(1,11)                 1.409          estimate D2E/DX2                !
 ! R5    R(2,3)                  1.5447         estimate D2E/DX2                !
 ! R6    R(2,4)                  1.3995         estimate D2E/DX2                !
 ! R7    R(2,5)                  1.1004         estimate D2E/DX2                !
 ! R8    R(3,6)                  1.3959         estimate D2E/DX2                !
 ! R9    R(3,7)                  1.1005         estimate D2E/DX2                !
 ! R10   R(3,8)                  1.4856         estimate D2E/DX2                !
 ! R11   R(4,18)                 0.9722         estimate D2E/DX2                !
 ! R12   R(6,9)                  1.4455         estimate D2E/DX2                !
 ! R13   R(8,20)                 1.3724         estimate D2E/DX2                !
 ! R14   R(8,24)                 1.3804         estimate D2E/DX2                !
 ! R15   R(9,12)                 1.5172         estimate D2E/DX2                !
 ! R16   R(9,13)                 1.0988         estimate D2E/DX2                !
 ! R17   R(11,17)                0.9677         estimate D2E/DX2                !
 ! R18   R(12,14)                1.4163         estimate D2E/DX2                !
 ! R19   R(12,15)                1.0988         estimate D2E/DX2                !
 ! R20   R(12,16)                1.1019         estimate D2E/DX2                !
 ! R21   R(14,19)                0.9617         estimate D2E/DX2                !
 ! R22   R(20,21)                1.3519         estimate D2E/DX2                !
 ! R23   R(20,25)                1.0871         estimate D2E/DX2                !
 ! R24   R(21,22)                1.4496         estimate D2E/DX2                !
 ! R25   R(21,26)                1.0857         estimate D2E/DX2                !
 ! R26   R(22,23)                1.4047         estimate D2E/DX2                !
 ! R27   R(22,27)                1.2167         estimate D2E/DX2                !
 ! R28   R(23,24)                1.369          estimate D2E/DX2                !
 ! R29   R(24,28)                1.2279         estimate D2E/DX2                !
 ! A1    A(2,1,9)              103.1739         estimate D2E/DX2                !
 ! A2    A(2,1,10)             111.2702         estimate D2E/DX2                !
 ! A3    A(2,1,11)             110.4879         estimate D2E/DX2                !
 ! A4    A(9,1,10)             111.8528         estimate D2E/DX2                !
 ! A5    A(9,1,11)             108.5135         estimate D2E/DX2                !
 ! A6    A(10,1,11)            111.2402         estimate D2E/DX2                !
 ! A7    A(1,2,3)              102.0519         estimate D2E/DX2                !
 ! A8    A(1,2,4)              109.0005         estimate D2E/DX2                !
 ! A9    A(1,2,5)              109.5163         estimate D2E/DX2                !
 ! A10   A(3,2,4)              114.3627         estimate D2E/DX2                !
 ! A11   A(3,2,5)              109.051          estimate D2E/DX2                !
 ! A12   A(4,2,5)              112.3164         estimate D2E/DX2                !
 ! A13   A(2,3,6)              107.4931         estimate D2E/DX2                !
 ! A14   A(2,3,7)              110.1103         estimate D2E/DX2                !
 ! A15   A(2,3,8)              113.1389         estimate D2E/DX2                !
 ! A16   A(6,3,7)              110.7465         estimate D2E/DX2                !
 ! A17   A(6,3,8)              108.1546         estimate D2E/DX2                !
 ! A18   A(7,3,8)              107.2065         estimate D2E/DX2                !
 ! A19   A(2,4,18)             105.8797         estimate D2E/DX2                !
 ! A20   A(3,6,9)              111.1706         estimate D2E/DX2                !
 ! A21   A(3,8,20)             122.0062         estimate D2E/DX2                !
 ! A22   A(3,8,24)             116.8786         estimate D2E/DX2                !
 ! A23   A(20,8,24)            120.9571         estimate D2E/DX2                !
 ! A24   A(1,9,6)              105.5614         estimate D2E/DX2                !
 ! A25   A(1,9,12)             115.3683         estimate D2E/DX2                !
 ! A26   A(1,9,13)             109.261          estimate D2E/DX2                !
 ! A27   A(6,9,12)             110.1415         estimate D2E/DX2                !
 ! A28   A(6,9,13)             106.97           estimate D2E/DX2                !
 ! A29   A(12,9,13)            109.184          estimate D2E/DX2                !
 ! A30   A(1,11,17)            106.2212         estimate D2E/DX2                !
 ! A31   A(9,12,14)            113.4306         estimate D2E/DX2                !
 ! A32   A(9,12,15)            108.5389         estimate D2E/DX2                !
 ! A33   A(9,12,16)            109.0252         estimate D2E/DX2                !
 ! A34   A(14,12,15)           106.6712         estimate D2E/DX2                !
 ! A35   A(14,12,16)           111.3337         estimate D2E/DX2                !
 ! A36   A(15,12,16)           107.6247         estimate D2E/DX2                !
 ! A37   A(12,14,19)           108.7922         estimate D2E/DX2                !
 ! A38   A(8,20,21)            123.0335         estimate D2E/DX2                !
 ! A39   A(8,20,25)            114.1833         estimate D2E/DX2                !
 ! A40   A(21,20,25)           122.7815         estimate D2E/DX2                !
 ! A41   A(20,21,22)           119.9503         estimate D2E/DX2                !
 ! A42   A(20,21,26)           121.4354         estimate D2E/DX2                !
 ! A43   A(22,21,26)           118.6023         estimate D2E/DX2                !
 ! A44   A(21,22,23)           112.7382         estimate D2E/DX2                !
 ! A45   A(21,22,27)           127.0494         estimate D2E/DX2                !
 ! A46   A(23,22,27)           120.2105         estimate D2E/DX2                !
 ! A47   A(22,23,24)           128.0523         estimate D2E/DX2                !
 ! A48   A(8,24,23)            115.1852         estimate D2E/DX2                !
 ! A49   A(8,24,28)            122.6893         estimate D2E/DX2                !
 ! A50   A(23,24,28)           122.1255         estimate D2E/DX2                !
 ! D1    D(9,1,2,3)            -31.5394         estimate D2E/DX2                !
 ! D2    D(9,1,2,4)           -152.8469         estimate D2E/DX2                !
 ! D3    D(9,1,2,5)             83.9144         estimate D2E/DX2                !
 ! D4    D(10,1,2,3)          -151.6286         estimate D2E/DX2                !
 ! D5    D(10,1,2,4)            87.0639         estimate D2E/DX2                !
 ! D6    D(10,1,2,5)           -36.1747         estimate D2E/DX2                !
 ! D7    D(11,1,2,3)            84.2834         estimate D2E/DX2                !
 ! D8    D(11,1,2,4)           -37.0241         estimate D2E/DX2                !
 ! D9    D(11,1,2,5)          -160.2628         estimate D2E/DX2                !
 ! D10   D(2,1,9,6)             29.1913         estimate D2E/DX2                !
 ! D11   D(2,1,9,12)           -92.6543         estimate D2E/DX2                !
 ! D12   D(2,1,9,13)           143.9155         estimate D2E/DX2                !
 ! D13   D(10,1,9,6)           148.8799         estimate D2E/DX2                !
 ! D14   D(10,1,9,12)           27.0343         estimate D2E/DX2                !
 ! D15   D(10,1,9,13)          -96.3959         estimate D2E/DX2                !
 ! D16   D(11,1,9,6)           -88.0325         estimate D2E/DX2                !
 ! D17   D(11,1,9,12)          150.1219         estimate D2E/DX2                !
 ! D18   D(11,1,9,13)           26.6917         estimate D2E/DX2                !
 ! D19   D(2,1,11,17)           34.5339         estimate D2E/DX2                !
 ! D20   D(9,1,11,17)          146.9725         estimate D2E/DX2                !
 ! D21   D(10,1,11,17)         -89.5713         estimate D2E/DX2                !
 ! D22   D(1,2,3,6)             23.8439         estimate D2E/DX2                !
 ! D23   D(1,2,3,7)            -96.8814         estimate D2E/DX2                !
 ! D24   D(1,2,3,8)            143.1814         estimate D2E/DX2                !
 ! D25   D(4,2,3,6)            141.369          estimate D2E/DX2                !
 ! D26   D(4,2,3,7)             20.6438         estimate D2E/DX2                !
 ! D27   D(4,2,3,8)            -99.2935         estimate D2E/DX2                !
 ! D28   D(5,2,3,6)            -91.9494         estimate D2E/DX2                !
 ! D29   D(5,2,3,7)            147.3253         estimate D2E/DX2                !
 ! D30   D(5,2,3,8)             27.388          estimate D2E/DX2                !
 ! D31   D(1,2,4,18)           167.8844         estimate D2E/DX2                !
 ! D32   D(3,2,4,18)            54.4098         estimate D2E/DX2                !
 ! D33   D(5,2,4,18)           -70.5638         estimate D2E/DX2                !
 ! D34   D(2,3,6,9)             -5.9486         estimate D2E/DX2                !
 ! D35   D(7,3,6,9)            114.3747         estimate D2E/DX2                !
 ! D36   D(8,3,6,9)           -128.4246         estimate D2E/DX2                !
 ! D37   D(2,3,8,20)          -123.9607         estimate D2E/DX2                !
 ! D38   D(2,3,8,24)            60.5709         estimate D2E/DX2                !
 ! D39   D(6,3,8,20)            -5.0046         estimate D2E/DX2                !
 ! D40   D(6,3,8,24)           179.527          estimate D2E/DX2                !
 ! D41   D(7,3,8,20)           114.4544         estimate D2E/DX2                !
 ! D42   D(7,3,8,24)           -61.014          estimate D2E/DX2                !
 ! D43   D(3,6,9,1)            -14.8101         estimate D2E/DX2                !
 ! D44   D(3,6,9,12)           110.3488         estimate D2E/DX2                !
 ! D45   D(3,6,9,13)          -131.1052         estimate D2E/DX2                !
 ! D46   D(3,8,20,21)         -178.7115         estimate D2E/DX2                !
 ! D47   D(3,8,20,25)            0.8287         estimate D2E/DX2                !
 ! D48   D(24,8,20,21)          -3.4254         estimate D2E/DX2                !
 ! D49   D(24,8,20,25)         176.1148         estimate D2E/DX2                !
 ! D50   D(3,8,24,23)          178.5            estimate D2E/DX2                !
 ! D51   D(3,8,24,28)           -1.6028         estimate D2E/DX2                !
 ! D52   D(20,8,24,23)           2.981          estimate D2E/DX2                !
 ! D53   D(20,8,24,28)        -177.1218         estimate D2E/DX2                !
 ! D54   D(1,9,12,14)           53.5111         estimate D2E/DX2                !
 ! D55   D(1,9,12,15)          -64.8551         estimate D2E/DX2                !
 ! D56   D(1,9,12,16)          178.1802         estimate D2E/DX2                !
 ! D57   D(6,9,12,14)          -65.8392         estimate D2E/DX2                !
 ! D58   D(6,9,12,15)          175.7946         estimate D2E/DX2                !
 ! D59   D(6,9,12,16)           58.83           estimate D2E/DX2                !
 ! D60   D(13,9,12,14)         176.9819         estimate D2E/DX2                !
 ! D61   D(13,9,12,15)          58.6157         estimate D2E/DX2                !
 ! D62   D(13,9,12,16)         -58.3489         estimate D2E/DX2                !
 ! D63   D(9,12,14,19)          79.415          estimate D2E/DX2                !
 ! D64   D(15,12,14,19)       -161.1453         estimate D2E/DX2                !
 ! D65   D(16,12,14,19)        -43.9982         estimate D2E/DX2                !
 ! D66   D(8,20,21,22)           1.4004         estimate D2E/DX2                !
 ! D67   D(8,20,21,26)        -179.8766         estimate D2E/DX2                !
 ! D68   D(25,20,21,22)       -178.1008         estimate D2E/DX2                !
 ! D69   D(25,20,21,26)          0.6222         estimate D2E/DX2                !
 ! D70   D(20,21,22,23)          0.721          estimate D2E/DX2                !
 ! D71   D(20,21,22,27)       -179.7837         estimate D2E/DX2                !
 ! D72   D(26,21,22,23)       -178.038          estimate D2E/DX2                !
 ! D73   D(26,21,22,27)          1.4573         estimate D2E/DX2                !
 ! D74   D(21,22,23,24)         -1.012          estimate D2E/DX2                !
 ! D75   D(27,22,23,24)        179.4541         estimate D2E/DX2                !
 ! D76   D(22,23,24,8)          -0.7998         estimate D2E/DX2                !
 ! D77   D(22,23,24,28)        179.3024         estimate D2E/DX2                !
 --------------------------------------------------------------------------------
 Trust Radius=3.00D-01 FncErr=1.00D-07 GrdErr=1.00D-06 EigMax=2.50D+02 EigMin=1.00D-04
 Number of steps in this run=    166 maximum allowed number of steps=    168.
 GradGradGradGradGradGradGradGradGradGradGradGradGradGradGradGradGradGrad

                          Input orientation:                          
 ---------------------------------------------------------------------
 Center     Atomic      Atomic             Coordinates (Angstroms)
 Number     Number       Type             X           Y           Z
 ---------------------------------------------------------------------
      1          6           0        2.767232    0.258623    0.286484
      2          6           0        1.398272    0.907176    0.497036
      3          6           0        0.613535    0.412283   -0.738014
      4          8           0        1.557177    2.296087    0.561551
      5          1           0        0.933148    0.497152    1.406097
      6          8           0        1.220522   -0.765795   -1.176409
      7          1           0        0.630837    1.177369   -1.528816
      8          7           0       -0.812286    0.116602   -0.443727
      9          6           0        2.429457   -1.038326   -0.432373
     10          1           0        3.274377    0.074994    1.246920
     11          8           0        3.561589    1.049533   -0.567186
     12          6           0        2.229960   -2.245705    0.464487
     13          1           0        3.215259   -1.260532   -1.167523
     14          8           0        1.279854   -2.032446    1.492968
     15          1           0        3.183995   -2.474873    0.959227
     16          1           0        1.959491   -3.114276   -0.157310
     17          1           0        3.331730    1.969662   -0.374779
     18          1           0        0.661798    2.669512    0.498028
     19          1           0        0.396917   -2.123482    1.122816
     20          6           0       -1.369259   -1.110527   -0.703300
     21          6           0       -2.669861   -1.394328   -0.467404
     22          6           0       -3.550844   -0.369185    0.056233
     23          7           0       -2.899913    0.861046    0.245925
     24          6           0       -1.584777    1.164026    0.016469
     25          1           0       -0.675572   -1.834618   -1.123259
     26          1           0       -3.083095   -2.375364   -0.680855
     27          8           0       -4.733620   -0.482736    0.317890
     28          8           0       -1.130341    2.288204    0.209886
 ---------------------------------------------------------------------
                    Distance matrix (angstroms):
                    1          2          3          4          5
     1  C    0.000000
     2  C    1.529380   0.000000
     3  C    2.389899   1.544694   0.000000
     4  O    2.385614   1.399459   2.475489   0.000000
     5  H    2.162011   1.100387   2.169462   2.082988   0.000000
     6  O    2.362583   2.372940   1.395884   3.536801   2.889110
     7  H    2.950185   2.183126   1.100465   2.545441   3.027838
     8  N    3.655999   2.529152   1.485597   3.372698   2.571616
     9  C    1.520830   2.390005   2.344196   3.587069   2.824288
    10  H    1.101523   2.185091   3.336736   2.889941   2.384304
    11  O    1.409005   2.415114   3.020975   2.616412   3.332818
    12  C    2.567490   3.260893   3.335227   4.592378   3.176730
    13  H    2.150046   3.281944   3.122780   4.288178   3.862771
    14  O    2.986117   3.106007   3.376087   4.436287   2.554725
    15  H    2.845747   3.852361   4.221796   5.056357   3.754855
    16  H    3.496548   4.112811   3.819088   5.472718   4.066944
    17  H    1.919266   2.372172   3.153721   2.032807   3.330616
    18  H    3.207801   1.910032   2.573949   0.972206   2.370099
    19  H    3.462986   3.252568   3.152731   4.603674   2.689891
    20  C    4.468199   3.629209   2.500325   4.665715   3.512160
    21  C    5.732589   4.772502   3.757361   5.704889   4.479886
    22  C    6.353365   5.130025   4.310867   5.783675   4.762232
    23  N    5.699218   4.305761   3.676118   4.693039   4.021290
    24  C    4.453386   3.032408   2.442732   3.383866   2.952242
    25  H    4.268716   3.800476   2.618926   4.988635   3.797733
    26  H    6.488448   5.678481   4.630261   6.700608   5.360683
    27  O    7.537465   6.289996   5.523410   6.881523   5.852917
    28  O    4.395013   2.895441   2.731062   2.710440   2.982746
                    6          7          8          9         10
     6  O    0.000000
     7  H    2.061020   0.000000
     8  N    2.334043   2.094099   0.000000
     9  C    1.445471   3.057209   3.441349   0.000000
    10  H    3.285996   3.988514   4.422763   2.184810   0.000000
    11  O    3.024428   3.087132   4.473967   2.378876   2.079230
    12  C    2.429329   4.271755   3.957349   1.517208   2.662452
    13  H    2.055193   3.571153   4.317580   1.098775   2.759830
    14  O    2.955249   4.455930   3.570188   2.452917   2.912038
    15  H    3.367063   5.103709   4.965308   2.137650   2.567637
    16  H    2.664583   4.697294   4.266539   2.146182   3.724544
    17  H    3.547187   3.042097   4.539984   3.140924   2.494587
    18  H    3.862285   2.517051   3.094701   4.211689   3.757384
    19  H    2.794293   4.240458   2.989014   2.779819   3.623324
    20  C    2.655115   3.149020   1.372386   3.809049   5.174183
    21  C    4.004101   4.316808   2.394589   5.111850   6.358599
    22  C    4.943950   4.731878   2.825889   6.037424   6.942526
    23  N    4.652701   3.964336   2.321207   5.698235   6.304104
    24  C    3.607890   2.701301   1.380442   4.600640   5.129462
    25  H    2.177241   3.308058   2.070680   3.279117   4.986628
    26  H    4.621407   5.209054   3.379748   5.677820   7.080821
    27  O    6.145312   5.911317   4.039323   7.223659   8.080976
    28  O    4.095764   2.712708   2.290027   4.914312   5.037388
                   11         12         13         14         15
    11  O    0.000000
    12  C    3.700835   0.000000
    13  H    2.411794   2.145888   0.000000
    14  O    4.353061   1.416317   3.379328   0.000000
    15  H    3.859268   1.098849   2.449218   2.026419   0.000000
    16  H    4.480181   1.101908   2.456390   2.087027   1.776204
    17  H    0.967726   4.437069   3.328087   4.869861   4.642767
    18  H    3.488237   5.159420   4.973879   4.845648   5.747946
    19  H    4.789497   1.951508   3.732745   0.961706   2.813901
    20  C    5.384946   3.950536   4.610402   3.562489   5.035629
    21  C    6.694280   5.059793   5.928128   4.455390   6.121314
    22  C    7.279294   6.091444   6.933414   5.307192   7.113886
    23  N    6.515189   6.001272   6.625274   5.234297   6.975033
    24  C    5.180622   5.136069   5.506420   4.539118   6.072196
    25  H    5.155684   3.336472   3.933205   3.272227   4.432035
    26  H    7.476274   5.436651   6.414745   4.886555   6.478903
    27  O    8.481845   7.184775   8.123798   6.320149   8.189539
    28  O    4.914504   5.649139   5.777112   5.111101   6.470078
                   16         17         18         19         20
    16  H    0.000000
    17  H    5.270366   0.000000
    18  H    5.963697   2.894844   0.000000
    19  H    2.249896   5.254498   4.840797   0.000000
    20  C    3.923480   5.629812   4.456128   2.734987   0.000000
    21  C    4.948260   6.880705   5.342921   3.530665   1.351945
    22  C    6.159945   7.281882   5.212985   4.449716   2.426065
    23  N    6.291231   6.359849   4.002486   4.532707   2.670399
    24  C    5.558408   4.997416   2.746905   3.994850   2.395435
    25  H    3.084500   5.575952   4.970344   2.505699   1.087141
    26  H    5.123257   7.753897   6.392555   3.927742   2.130153
    27  O    7.207534   8.458364   6.251372   5.446316   3.571537
    28  O    6.234476   4.511472   1.854773   4.756988   3.527373
                   21         22         23         24         25
    21  C    0.000000
    22  C    1.449567   0.000000
    23  N    2.376652   1.404693   0.000000
    24  C    2.820765   2.493539   1.368952   0.000000
    25  H    2.145038   3.435969   3.753527   3.334291   0.000000
    26  H    1.085705   2.187885   3.371472   3.906213   2.506850
    27  O    2.388888   1.216683   2.274513   3.566215   4.513563
    28  O    4.048442   3.597799   2.273645   1.227884   4.356805
                   26         27         28
    26  H    0.000000
    27  O    2.702548   0.000000
    28  O    5.133764   4.546800   0.000000
 Stoichiometry    C9H11N2O6(1-)
 Framework group  C1[X(C9H11N2O6)]
 Deg. of freedom    78
 Full point group                 C1      NOp   1
 Largest Abelian subgroup         C1      NOp   1
 Largest concise Abelian subgroup C1      NOp   1
                         Standard orientation:                         
 ---------------------------------------------------------------------
 Center     Atomic      Atomic             Coordinates (Angstroms)
 Number     Number       Type             X           Y           Z
 ---------------------------------------------------------------------
      1          6           0        2.743873    0.237151    0.283887
      2          6           0        1.383428    0.900896    0.502141
      3          6           0        0.588990    0.421861   -0.732960
      4          8           0        1.559128    2.287455    0.573347
      5          1           0        0.916266    0.491716    1.410537
      6          8           0        1.180480   -0.761076   -1.179378
      7          1           0        0.612977    1.190803   -1.519838
      8          7           0       -0.839342    0.141694   -0.435684
      9          6           0        2.388379   -1.051903   -0.440605
     10          1           0        3.251773    0.042469    1.241744
     11          8           0        3.544970    1.022964   -0.568191
     12          6           0        2.177252   -2.261478    0.450615
     13          1           0        3.169177   -1.279636   -1.179388
     14          8           0        1.232970   -2.042261    1.483198
     15          1           0        3.130014   -2.504601    0.941130
     16          1           0        1.894483   -3.123501   -0.174813
     17          1           0        3.326729    1.944755   -0.370290
     18          1           0        0.668085    2.671871    0.514603
     19          1           0        0.347859   -2.120814    1.115384
     20          6           0       -1.411753   -1.077325   -0.699843
     21          6           0       -2.714915   -1.346803   -0.461294
     22          6           0       -3.581944   -0.313961    0.070442
     23          7           0       -2.915762    0.907403    0.264439
     24          6           0       -1.597818    1.195851    0.032383
     25          1           0       -0.728084   -1.807446   -1.125749
     26          1           0       -3.140512   -2.321708   -0.678513
     27          8           0       -4.765173   -0.414745    0.335260
     28          8           0       -1.129373    2.313498    0.230179
 ---------------------------------------------------------------------
 Rotational constants (GHZ):           0.8853765           0.3357552           0.2721278
 Standard basis: Aug-CC-pVDZ (5D, 7F)
 There are   524 symmetry adapted cartesian basis functions of A   symmetry.
 There are   490 symmetry adapted basis functions of A   symmetry.
   490 basis functions,   852 primitive gaussians,   524 cartesian basis functions
    64 alpha electrons       64 beta electrons
       nuclear repulsion energy      1322.3438898581 Hartrees.
 NAtoms=   28 NActive=   28 NUniq=   28 SFac= 1.00D+00 NAtFMM=   60 NAOKFM=F Big=F
 Integral buffers will be    131072 words long.
 Raffenetti 2 integral format.
 Two-electron integral symmetry is turned on.
 Nuclear repulsion after empirical dispersion term =     1322.3236329120 Hartrees.
 One-electron integrals computed using PRISM.
 NBasis=   490 RedAO= T EigKep=  3.57D-06  NBF=   490
 NBsUse=   490 1.00D-06 EigRej= -1.00D+00 NBFU=   490
 ExpMin= 2.97D-02 ExpMax= 1.17D+04 ExpMxC= 4.01D+02 IAcc=3 IRadAn=         5 AccDes= 0.00D+00
 Harris functional with IExCor= 1009 and IRadAn=       5 diagonalized for initial guess.
 HarFok:  IExCor= 1009 AccDes= 0.00D+00 IRadAn=         5 IDoV= 1 UseB2=F ITyADJ=14
 ICtDFT=  3500011 ScaDFX=  1.000000  1.000000  1.000000  1.000000
 FoFCou: FMM=F IPFlag=           0 FMFlag=      100000 FMFlg1=           0
         NFxFlg=           0 DoJE=T BraDBF=F KetDBF=T FulRan=T
         wScrn=  0.000000 ICntrl=       500 IOpCl=  0 I1Cent=   200000004 NGrid=           0
         NMat0=    1 NMatS0=      1 NMatT0=    0 NMatD0=    1 NMtDS0=    0 NMtDT0=    0
 Petite list used in FoFCou.
 Requested convergence on RMS density matrix=1.00D-08 within 128 cycles.
 Requested convergence on MAX density matrix=1.00D-06.
 Requested convergence on             energy=1.00D-06.
 No special actions if energy rises.
 EnCoef did     2 forward-backward iterations
 SCF Done:  E(RPBE1PBE) =  -909.661332475     A.U. after   16 cycles
            NFock= 16  Conv=0.83D-08     -V/T= 2.0053

 **********************************************************************

            Population analysis using the SCF Density.

 **********************************************************************

 Orbital symmetries:
       Occupied  (A) (A) (A) (A) (A) (A) (A) (A) (A) (A) (A) (A)
                 (A) (A) (A) (A) (A) (A) (A) (A) (A) (A) (A) (A)
                 (A) (A) (A) (A) (A) (A) (A) (A) (A) (A) (A) (A)
                 (A) (A) (A) (A) (A) (A) (A) (A) (A) (A) (A) (A)
                 (A) (A) (A) (A) (A) (A) (A) (A) (A) (A) (A) (A)
                 (A) (A) (A) (A)
       Virtual   (A) (A) (A) (A) (A) (A) (A) (A) (A) (A) (A) (A)
                 (A) (A) (A) (A) (A) (A) (A) (A) (A) (A) (A) (A)
                 (A) (A) (A) (A) (A) (A) (A) (A) (A) (A) (A) (A)
                 (A) (A) (A) (A) (A) (A) (A) (A) (A) (A) (A) (A)
                 (A) (A) (A) (A) (A) (A) (A) (A) (A) (A) (A) (A)
                 (A) (A) (A) (A) (A) (A) (A) (A) (A) (A) (A) (A)
                 (A) (A) (A) (A) (A) (A) (A) (A) (A) (A) (A) (A)
                 (A) (A) (A) (A) (A) (A) (A) (A) (A) (A) (A) (A)
                 (A) (A) (A) (A) (A) (A) (A) (A) (A) (A) (A) (A)
                 (A) (A) (A) (A) (A) (A) (A) (A) (A) (A) (A) (A)
                 (A) (A) (A) (A) (A) (A) (A) (A) (A) (A) (A) (A)
                 (A) (A) (A) (A) (A) (A) (A) (A) (A) (A) (A) (A)
                 (A) (A) (A) (A) (A) (A) (A) (A) (A) (A) (A) (A)
                 (A) (A) (A) (A) (A) (A) (A) (A) (A) (A) (A) (A)
                 (A) (A) (A) (A) (A) (A) (A) (A) (A) (A) (A) (A)
                 (A) (A) (A) (A) (A) (A) (A) (A) (A) (A) (A) (A)
                 (A) (A) (A) (A) (A) (A) (A) (A) (A) (A) (A) (A)
                 (A) (A) (A) (A) (A) (A) (A) (A) (A) (A) (A) (A)
                 (A) (A) (A) (A) (A) (A) (A) (A) (A) (A) (A) (A)
                 (A) (A) (A) (A) (A) (A) (A) (A) (A) (A) (A) (A)
                 (A) (A) (A) (A) (A) (A) (A) (A) (A) (A) (A) (A)
                 (A) (A) (A) (A) (A) (A) (A) (A) (A) (A) (A) (A)
                 (A) (A) (A) (A) (A) (A) (A) (A) (A) (A) (A) (A)
                 (A) (A) (A) (A) (A) (A) (A) (A) (A) (A) (A) (A)
                 (A) (A) (A) (A) (A) (A) (A) (A) (A) (A) (A) (A)
                 (A) (A) (A) (A) (A) (A) (A) (A) (A) (A) (A) (A)
                 (A) (A) (A) (A) (A) (A) (A) (A) (A) (A) (A) (A)
                 (A) (A) (A) (A) (A) (A) (A) (A) (A) (A) (A) (A)
                 (A) (A) (A) (A) (A) (A) (A) (A) (A) (A) (A) (A)
                 (A) (A) (A) (A) (A) (A) (A) (A) (A) (A) (A) (A)
                 (A) (A) (A) (A) (A) (A) (A) (A) (A) (A) (A) (A)
                 (A) (A) (A) (A) (A) (A) (A) (A) (A) (A) (A) (A)
                 (A) (A) (A) (A) (A) (A) (A) (A) (A) (A) (A) (A)
                 (A) (A) (A) (A) (A) (A) (A) (A) (A) (A) (A) (A)
                 (A) (A) (A) (A) (A) (A) (A) (A) (A) (A) (A) (A)
                 (A) (A) (A) (A) (A) (A)
 The electronic state is 1-A.
 Alpha  occ. eigenvalues --  -19.15159 -19.14911 -19.13607 -19.12062 -19.04358
 Alpha  occ. eigenvalues --  -19.01904 -14.31994 -14.19758 -10.22005 -10.20537
 Alpha  occ. eigenvalues --  -10.20360 -10.20003 -10.19727 -10.18655 -10.16150
 Alpha  occ. eigenvalues --  -10.15918 -10.09917  -1.01547  -0.98041  -0.97452
 Alpha  occ. eigenvalues --   -0.95266  -0.93676  -0.89549  -0.85700  -0.73786
 Alpha  occ. eigenvalues --   -0.71727  -0.68669  -0.66081  -0.60852  -0.54884
 Alpha  occ. eigenvalues --   -0.54389  -0.51500  -0.47972  -0.46375  -0.45200
 Alpha  occ. eigenvalues --   -0.44034  -0.43326  -0.41569  -0.40774  -0.38276
 Alpha  occ. eigenvalues --   -0.37799  -0.35476  -0.34301  -0.33359  -0.32986
 Alpha  occ. eigenvalues --   -0.32341  -0.30410  -0.30069  -0.28852  -0.28272
 Alpha  occ. eigenvalues --   -0.27723  -0.26850  -0.24699  -0.23862  -0.23189
 Alpha  occ. eigenvalues --   -0.21777  -0.20519  -0.19175  -0.18883  -0.15151
 Alpha  occ. eigenvalues --   -0.10952  -0.10823  -0.08990  -0.08932
 Alpha virt. eigenvalues --    0.06900   0.08435   0.09015   0.09373   0.10926
 Alpha virt. eigenvalues --    0.11013   0.11426   0.11672   0.12180   0.12732
 Alpha virt. eigenvalues --    0.13913   0.14568   0.15394   0.15569   0.15848
 Alpha virt. eigenvalues --    0.16545   0.16829   0.17225   0.17469   0.17811
 Alpha virt. eigenvalues --    0.18077   0.18221   0.18765   0.19121   0.19640
 Alpha virt. eigenvalues --    0.19958   0.20295   0.20501   0.20728   0.21463
 Alpha virt. eigenvalues --    0.21790   0.21959   0.22458   0.22590   0.22743
 Alpha virt. eigenvalues --    0.23508   0.23907   0.24244   0.24303   0.24975
 Alpha virt. eigenvalues --    0.25307   0.25765   0.26180   0.27057   0.27178
 Alpha virt. eigenvalues --    0.27582   0.27975   0.28473   0.28718   0.29236
 Alpha virt. eigenvalues --    0.29898   0.30432   0.30961   0.31529   0.31894
 Alpha virt. eigenvalues --    0.32723   0.33256   0.33308   0.33380   0.33763
 Alpha virt. eigenvalues --    0.34197   0.34665   0.34787   0.35255   0.35806
 Alpha virt. eigenvalues --    0.35857   0.36285   0.36495   0.36926   0.37014
 Alpha virt. eigenvalues --    0.37458   0.38101   0.38498   0.38762   0.38993
 Alpha virt. eigenvalues --    0.39452   0.39676   0.40055   0.40244   0.40801
 Alpha virt. eigenvalues --    0.40941   0.41352   0.41749   0.42154   0.42516
 Alpha virt. eigenvalues --    0.43251   0.43737   0.44095   0.44346   0.44563
 Alpha virt. eigenvalues --    0.44840   0.45721   0.46017   0.46385   0.46767
 Alpha virt. eigenvalues --    0.46999   0.47343   0.47995   0.48306   0.48713
 Alpha virt. eigenvalues --    0.49144   0.49635   0.49729   0.50561   0.51239
 Alpha virt. eigenvalues --    0.51745   0.52818   0.53046   0.53707   0.54320
 Alpha virt. eigenvalues --    0.55428   0.55813   0.56423   0.56670   0.56975
 Alpha virt. eigenvalues --    0.57250   0.57548   0.58599   0.59105   0.59395
 Alpha virt. eigenvalues --    0.60202   0.60530   0.60863   0.61448   0.61665
 Alpha virt. eigenvalues --    0.62319   0.62555   0.62914   0.64331   0.64528
 Alpha virt. eigenvalues --    0.65196   0.66212   0.66461   0.67552   0.67937
 Alpha virt. eigenvalues --    0.68604   0.69751   0.70018   0.70670   0.71079
 Alpha virt. eigenvalues --    0.71936   0.72180   0.72520   0.72911   0.73413
 Alpha virt. eigenvalues --    0.74304   0.74676   0.75091   0.75734   0.76368
 Alpha virt. eigenvalues --    0.76827   0.77385   0.77657   0.77815   0.78259
 Alpha virt. eigenvalues --    0.78667   0.79683   0.80036   0.80546   0.80872
 Alpha virt. eigenvalues --    0.81601   0.81896   0.82271   0.82372   0.83593
 Alpha virt. eigenvalues --    0.84093   0.84165   0.85135   0.85382   0.86044
 Alpha virt. eigenvalues --    0.86791   0.87212   0.88689   0.89403   0.89855
 Alpha virt. eigenvalues --    0.90676   0.91192   0.91338   0.92280   0.92783
 Alpha virt. eigenvalues --    0.93615   0.94172   0.94279   0.95549   0.96388
 Alpha virt. eigenvalues --    0.96605   0.97582   0.98651   0.98879   1.00038
 Alpha virt. eigenvalues --    1.00554   1.01467   1.02029   1.03072   1.03172
 Alpha virt. eigenvalues --    1.05123   1.05798   1.06398   1.06617   1.08069
 Alpha virt. eigenvalues --    1.08756   1.09310   1.10504   1.11266   1.12050
 Alpha virt. eigenvalues --    1.13577   1.14047   1.14576   1.15719   1.16494
 Alpha virt. eigenvalues --    1.17253   1.18436   1.19074   1.20318   1.20815
 Alpha virt. eigenvalues --    1.21206   1.22469   1.22800   1.23614   1.24965
 Alpha virt. eigenvalues --    1.25755   1.26842   1.27602   1.28551   1.29371
 Alpha virt. eigenvalues --    1.29647   1.31230   1.32032   1.32458   1.33558
 Alpha virt. eigenvalues --    1.35104   1.35622   1.35950   1.37469   1.38070
 Alpha virt. eigenvalues --    1.38368   1.40051   1.40877   1.41450   1.43187
 Alpha virt. eigenvalues --    1.43898   1.44377   1.45427   1.47098   1.47311
 Alpha virt. eigenvalues --    1.48543   1.49502   1.51153   1.53380   1.53582
 Alpha virt. eigenvalues --    1.53968   1.55964   1.56792   1.57068   1.57988
 Alpha virt. eigenvalues --    1.58888   1.59858   1.60895   1.61887   1.62562
 Alpha virt. eigenvalues --    1.64038   1.64688   1.65412   1.65946   1.67679
 Alpha virt. eigenvalues --    1.68262   1.68463   1.70185   1.71110   1.71973
 Alpha virt. eigenvalues --    1.72293   1.74284   1.75130   1.75608   1.75754
 Alpha virt. eigenvalues --    1.77349   1.78030   1.79278   1.79583   1.80008
 Alpha virt. eigenvalues --    1.81580   1.83864   1.84787   1.85294   1.85930
 Alpha virt. eigenvalues --    1.87469   1.88274   1.89381   1.90717   1.91690
 Alpha virt. eigenvalues --    1.92148   1.92313   1.93290   1.93998   1.94446
 Alpha virt. eigenvalues --    1.95581   1.96269   1.97370   1.98205   2.00181
 Alpha virt. eigenvalues --    2.00882   2.01418   2.02419   2.04003   2.04837
 Alpha virt. eigenvalues --    2.06501   2.07412   2.07717   2.08903   2.09642
 Alpha virt. eigenvalues --    2.10581   2.11677   2.13538   2.14459   2.14946
 Alpha virt. eigenvalues --    2.16268   2.17665   2.18389   2.20521   2.21387
 Alpha virt. eigenvalues --    2.22889   2.23681   2.23973   2.25380   2.25753
 Alpha virt. eigenvalues --    2.26337   2.27707   2.28436   2.30995   2.34336
 Alpha virt. eigenvalues --    2.35501   2.36140   2.37376   2.38905   2.40284
 Alpha virt. eigenvalues --    2.41200   2.41902   2.42990   2.44599   2.46503
 Alpha virt. eigenvalues --    2.47879   2.49016   2.50182   2.50351   2.51843
 Alpha virt. eigenvalues --    2.52631   2.53789   2.56445   2.57528   2.58702
 Alpha virt. eigenvalues --    2.59824   2.60490   2.61259   2.62351   2.65227
 Alpha virt. eigenvalues --    2.68493   2.69368   2.69771   2.71749   2.72215
 Alpha virt. eigenvalues --    2.73508   2.75112   2.75792   2.77450   2.80357
 Alpha virt. eigenvalues --    2.82361   2.83958   2.85176   2.85476   2.86122
 Alpha virt. eigenvalues --    2.89740   2.90687   2.91563   2.93123   2.97516
 Alpha virt. eigenvalues --    2.98395   3.00052   3.04463   3.06132   3.09426
 Alpha virt. eigenvalues --    3.11191   3.15390   3.20546   3.25001   3.31028
 Alpha virt. eigenvalues --    3.32812   3.35595   3.37561   3.41858   3.49512
 Alpha virt. eigenvalues --    3.50301   3.53451   3.55914   3.57733   3.57875
 Alpha virt. eigenvalues --    3.59925   3.60948   3.61504   3.61848   3.62745
 Alpha virt. eigenvalues --    3.64242   3.65009   3.66620   3.67539   3.69234
 Alpha virt. eigenvalues --    3.70964   3.73422   3.74096   3.75339   3.76578
 Alpha virt. eigenvalues --    3.79787   3.81880   3.82724   3.85194   3.88013
 Alpha virt. eigenvalues --    3.90573   3.91257   3.97441   4.02455   4.04532
 Alpha virt. eigenvalues --    4.10182   4.16148   4.19003   4.27443   4.49057
 Alpha virt. eigenvalues --    4.68178
          Condensed to atoms (all electrons):
               1          2          3          4          5          6
     1  C   10.887935  -3.200367   0.136259   0.078609   0.086981  -0.088611
     2  C   -3.200367   9.119042  -1.448386  -0.547162  -0.607649  -0.200953
     3  C    0.136259  -1.448386  11.470271   0.223624   0.196248  -0.055847
     4  O    0.078609  -0.547162   0.223624   8.753546  -0.153532   0.028465
     5  H    0.086981  -0.607649   0.196248  -0.153532   2.240204   0.033484
     6  O   -0.088611  -0.200953  -0.055847   0.028465   0.033484   9.629871
     7  H   -0.205520   0.179621  -0.470444  -0.029140   0.136478  -0.186712
     8  N    0.367637   0.129516  -1.046556   0.012132  -0.206797  -0.199405
     9  C   -1.967842   0.897409  -3.102405   0.064203  -0.188821   0.101005
    10  H   -1.096602   0.656294   0.133982   0.001499  -0.125644   0.021786
    11  O   -0.687477   0.303395  -0.128537  -0.033630  -0.000920  -0.002731
    12  C   -0.047340  -0.068098   0.314789  -0.020648   0.090162  -0.042660
    13  H    0.285306   0.116001   0.319146  -0.005683  -0.001702  -0.240265
    14  O   -0.017546  -0.012714  -0.032414   0.002132  -0.019857  -0.014331
    15  H    0.041311  -0.009840   0.073908  -0.001289   0.017263   0.087600
    16  H    0.057859  -0.029369  -0.092639  -0.000793  -0.007374  -0.032412
    17  H    0.171194  -0.225939   0.048634   0.062767   0.024856   0.005968
    18  H   -0.017306   0.072404  -0.115176   0.295134  -0.031628   0.001403
    19  H    0.044686  -0.034822   0.001252   0.000752  -0.006726  -0.007769
    20  C   -0.026077   0.143042  -1.266974   0.002422  -0.028535   0.238440
    21  C    0.013008  -0.034284  -0.256417   0.007071  -0.010611  -0.061009
    22  C   -0.016291  -0.007734  -0.048464  -0.000496  -0.007196   0.007836
    23  N    0.020327   0.064424  -0.041290  -0.009128  -0.011613   0.004086
    24  C   -0.221809   0.023364   0.014507   0.012332   0.061922  -0.039103
    25  H    0.161525  -0.164182   0.225529   0.001971  -0.013000  -0.212937
    26  H   -0.000874  -0.004067   0.065685   0.000350   0.000313  -0.000046
    27  O   -0.000534   0.001534  -0.004324  -0.000037   0.000688   0.000726
    28  O    0.026489   0.006129   0.086398  -0.069255   0.039460  -0.007031
               7          8          9         10         11         12
     1  C   -0.205520   0.367637  -1.967842  -1.096602  -0.687477  -0.047340
     2  C    0.179621   0.129516   0.897409   0.656294   0.303395  -0.068098
     3  C   -0.470444  -1.046556  -3.102405   0.133982  -0.128537   0.314789
     4  O   -0.029140   0.012132   0.064203   0.001499  -0.033630  -0.020648
     5  H    0.136478  -0.206797  -0.188821  -0.125644  -0.000920   0.090162
     6  O   -0.186712  -0.199405   0.101005   0.021786  -0.002731  -0.042660
     7  H    2.117772  -0.272225   0.021305   0.005928   0.028010   0.053345
     8  N   -0.272225   8.264435   0.389440  -0.020114   0.009508  -0.053790
     9  C    0.021305   0.389440  10.112397  -0.041078   0.338300  -0.574370
    10  H    0.005928  -0.020114  -0.041078   1.944272  -0.081768  -0.064587
    11  O    0.028010   0.009508   0.338300  -0.081768   8.778238  -0.018588
    12  C    0.053345  -0.053790  -0.574370  -0.064587  -0.018588   5.161405
    13  H    0.020679  -0.042874  -0.946166   0.044986  -0.065749  -0.031242
    14  O    0.002450   0.007730   0.064621   0.038471   0.002771   0.054863
    15  H   -0.000476   0.013638  -0.292611  -0.052154   0.008233   0.279539
    16  H    0.004514  -0.011083   0.131853   0.029097  -0.001581   0.071833
    17  H    0.006200  -0.005410  -0.085043  -0.029413   0.280594   0.009768
    18  H    0.017441   0.003379   0.020995  -0.000002   0.001790   0.001690
    19  H    0.001105   0.040966  -0.035526  -0.008492  -0.000992   0.042624
    20  C   -0.037603   0.393821   0.508656  -0.002349   0.008282  -0.192701
    21  C   -0.039032  -0.461748   0.029338  -0.001452  -0.001985   0.026292
    22  C    0.006223  -0.036157   0.031734  -0.000068   0.000691  -0.012638
    23  N   -0.011329   0.056648  -0.000638   0.001086   0.000468  -0.001202
    24  C    0.118733  -0.335265  -0.135972   0.000837   0.013154   0.031457
    25  H    0.005622   0.098295  -0.277135   0.001422  -0.002765   0.104746
    26  H    0.001700   0.061524   0.002441  -0.000010  -0.000014  -0.000254
    27  O   -0.000442  -0.019035   0.000025  -0.000035   0.000002  -0.000033
    28  O    0.045370  -0.182056   0.019548   0.000291  -0.001164  -0.000970
              13         14         15         16         17         18
     1  C    0.285306  -0.017546   0.041311   0.057859   0.171194  -0.017306
     2  C    0.116001  -0.012714  -0.009840  -0.029369  -0.225939   0.072404
     3  C    0.319146  -0.032414   0.073908  -0.092639   0.048634  -0.115176
     4  O   -0.005683   0.002132  -0.001289  -0.000793   0.062767   0.295134
     5  H   -0.001702  -0.019857   0.017263  -0.007374   0.024856  -0.031628
     6  O   -0.240265  -0.014331   0.087600  -0.032412   0.005968   0.001403
     7  H    0.020679   0.002450  -0.000476   0.004514   0.006200   0.017441
     8  N   -0.042874   0.007730   0.013638  -0.011083  -0.005410   0.003379
     9  C   -0.946166   0.064621  -0.292611   0.131853  -0.085043   0.020995
    10  H    0.044986   0.038471  -0.052154   0.029097  -0.029413  -0.000002
    11  O   -0.065749   0.002771   0.008233  -0.001581   0.280594   0.001790
    12  C   -0.031242   0.054863   0.279539   0.071833   0.009768   0.001690
    13  H    2.103420   0.030674  -0.100168  -0.014075  -0.011626   0.000865
    14  O    0.030674   8.392952  -0.199991  -0.061240  -0.001069  -0.001362
    15  H   -0.100168  -0.199991   1.836514  -0.386722   0.003508  -0.000680
    16  H   -0.014075  -0.061240  -0.386722   1.567965  -0.000155   0.000184
    17  H   -0.011626  -0.001069   0.003508  -0.000155   0.588652  -0.008577
    18  H    0.000865  -0.001362  -0.000680   0.000184  -0.008577   0.568030
    19  H    0.005869   0.263702   0.022052  -0.037772   0.000271   0.000687
    20  C   -0.020212   0.007005  -0.035733   0.066632   0.000358  -0.011068
    21  C   -0.000410  -0.007139   0.003440  -0.007358  -0.000944   0.012464
    22  C    0.000779   0.001444  -0.000627   0.001408   0.000181  -0.006808
    23  N   -0.000088   0.000091  -0.000147  -0.000411   0.000117   0.006554
    24  C    0.000301   0.008216   0.006211  -0.003284  -0.001417  -0.015228
    25  H   -0.001656  -0.013522   0.005782  -0.001596   0.000530  -0.000814
    26  H   -0.000022   0.001260   0.000274  -0.001394  -0.000033  -0.000495
    27  O   -0.000016   0.000106  -0.000017   0.000071  -0.000006   0.000330
    28  O    0.000451  -0.000855   0.000194  -0.000408   0.000488   0.052230
              19         20         21         22         23         24
     1  C    0.044686  -0.026077   0.013008  -0.016291   0.020327  -0.221809
     2  C   -0.034822   0.143042  -0.034284  -0.007734   0.064424   0.023364
     3  C    0.001252  -1.266974  -0.256417  -0.048464  -0.041290   0.014507
     4  O    0.000752   0.002422   0.007071  -0.000496  -0.009128   0.012332
     5  H   -0.006726  -0.028535  -0.010611  -0.007196  -0.011613   0.061922
     6  O   -0.007769   0.238440  -0.061009   0.007836   0.004086  -0.039103
     7  H    0.001105  -0.037603  -0.039032   0.006223  -0.011329   0.118733
     8  N    0.040966   0.393821  -0.461748  -0.036157   0.056648  -0.335265
     9  C   -0.035526   0.508656   0.029338   0.031734  -0.000638  -0.135972
    10  H   -0.008492  -0.002349  -0.001452  -0.000068   0.001086   0.000837
    11  O   -0.000992   0.008282  -0.001985   0.000691   0.000468   0.013154
    12  C    0.042624  -0.192701   0.026292  -0.012638  -0.001202   0.031457
    13  H    0.005869  -0.020212  -0.000410   0.000779  -0.000088   0.000301
    14  O    0.263702   0.007005  -0.007139   0.001444   0.000091   0.008216
    15  H    0.022052  -0.035733   0.003440  -0.000627  -0.000147   0.006211
    16  H   -0.037772   0.066632  -0.007358   0.001408  -0.000411  -0.003284
    17  H    0.000271   0.000358  -0.000944   0.000181   0.000117  -0.001417
    18  H    0.000687  -0.011068   0.012464  -0.006808   0.006554  -0.015228
    19  H    0.516449  -0.045023   0.022583   0.002097  -0.000301   0.005406
    20  C   -0.045023   9.595589  -2.262349   0.120148   0.010223  -1.285385
    21  C    0.022583  -2.262349  10.142731  -2.485270   0.408633   0.880001
    22  C    0.002097   0.120148  -2.485270   8.984085  -0.324619  -0.655207
    23  N   -0.000301   0.010223   0.408633  -0.324619   8.157020  -0.319173
    24  C    0.005406  -1.285385   0.880001  -0.655207  -0.319173   7.211141
    25  H    0.024399  -1.152823   0.166994  -0.217047   0.050416   0.089804
    26  H    0.000430   0.604047  -1.003966   0.151036  -0.064949  -0.129038
    27  O   -0.000421   0.081621  -0.075126   0.064197  -0.122460   0.046537
    28  O   -0.000384  -0.027977  -0.003335   0.027460  -0.231042   0.193309
              25         26         27         28
     1  C    0.161525  -0.000874  -0.000534   0.026489
     2  C   -0.164182  -0.004067   0.001534   0.006129
     3  C    0.225529   0.065685  -0.004324   0.086398
     4  O    0.001971   0.000350  -0.000037  -0.069255
     5  H   -0.013000   0.000313   0.000688   0.039460
     6  O   -0.212937  -0.000046   0.000726  -0.007031
     7  H    0.005622   0.001700  -0.000442   0.045370
     8  N    0.098295   0.061524  -0.019035  -0.182056
     9  C   -0.277135   0.002441   0.000025   0.019548
    10  H    0.001422  -0.000010  -0.000035   0.000291
    11  O   -0.002765  -0.000014   0.000002  -0.001164
    12  C    0.104746  -0.000254  -0.000033  -0.000970
    13  H   -0.001656  -0.000022  -0.000016   0.000451
    14  O   -0.013522   0.001260   0.000106  -0.000855
    15  H    0.005782   0.000274  -0.000017   0.000194
    16  H   -0.001596  -0.001394   0.000071  -0.000408
    17  H    0.000530  -0.000033  -0.000006   0.000488
    18  H   -0.000814  -0.000495   0.000330   0.052230
    19  H    0.024399   0.000430  -0.000421  -0.000384
    20  C   -1.152823   0.604047   0.081621  -0.027977
    21  C    0.166994  -1.003966  -0.075126  -0.003335
    22  C   -0.217047   0.151036   0.064197   0.027460
    23  N    0.050416  -0.064949  -0.122460  -0.231042
    24  C    0.089804  -0.129038   0.046537   0.193309
    25  H    3.132608  -0.209969   0.002942   0.002566
    26  H   -0.209969   2.163391  -0.016840   0.002585
    27  O    0.002942  -0.016840   8.811394  -0.006845
    28  O    0.002566   0.002585  -0.006845   8.817593
 Mulliken charges:
               1
     1  C    1.215070
     2  C    0.883394
     3  C    0.799641
     4  O   -0.676218
     5  H   -0.506454
     6  O   -0.768852
     7  H   -0.519571
     8  N    0.043846
     9  C    0.914338
    10  H   -0.356182
    11  O   -0.745534
    12  C    0.886606
    13  H   -0.446521
    14  O   -0.496449
    15  H   -0.319010
    16  H   -0.241752
    17  H    0.165546
    18  H    0.153562
    19  H    0.182899
    20  C    0.614523
    21  C    0.999880
    22  C    0.419305
    23  N   -0.641703
    24  C    0.423648
    25  H   -0.807705
    26  H   -0.623063
    27  O   -0.764002
    28  O   -0.789241
 Sum of Mulliken charges =  -1.00000
 Mulliken charges with hydrogens summed into heavy atoms:
               1
     1  C    0.858889
     2  C    0.376940
     3  C    0.280070
     4  O   -0.522656
     6  O   -0.768852
     8  N    0.043846
     9  C    0.467817
    11  O   -0.579988
    12  C    0.325843
    14  O   -0.313550
    20  C   -0.193182
    21  C    0.376817
    22  C    0.419305
    23  N   -0.641703
    24  C    0.423648
    27  O   -0.764002
    28  O   -0.789241
 Electronic spatial extent (au):  <R**2>=           4005.6656
 Charge=             -1.0000 electrons
 Dipole moment (field-independent basis, Debye):
    X=             12.4047    Y=             -5.1415    Z=             -1.9382  Tot=             13.5672
 Quadrupole moment (field-independent basis, Debye-Ang):
   XX=           -174.2628   YY=           -112.9270   ZZ=           -107.4468
   XY=              2.6824   XZ=              7.8382   YZ=             -0.3856
 Traceless Quadrupole moment (field-independent basis, Debye-Ang):
   XX=            -42.7173   YY=             18.6185   ZZ=             24.0987
   XY=              2.6824   XZ=              7.8382   YZ=             -0.3856
 Octapole moment (field-independent basis, Debye-Ang**2):
  XXX=            287.9352  YYY=            -23.5500  ZZZ=             -0.7693  XYY=             32.1221
  XXY=            -20.0908  XXZ=            -15.8535  XZZ=              3.5845  YZZ=             10.5966
  YYZ=            -16.2653  XYZ=              6.2182
 Hexadecapole moment (field-independent basis, Debye-Ang**3):
 XXXX=          -5177.3366 YYYY=          -1309.6763 ZZZZ=           -398.7995 XXXY=            -86.0812
 XXXZ=            172.0334 YYYX=             61.0220 YYYZ=             -0.0396 ZZZX=            -12.6742
 ZZZY=              1.3421 XXYY=           -855.3527 XXZZ=           -692.0719 YYZZ=           -297.9627
 XXYZ=             -3.3526 YYXZ=            -13.1918 ZZXY=              8.3935
 N-N= 1.322323632912D+03 E-N=-4.793614773266D+03  KE= 9.048809010346D+02
 Calling FoFJK, ICntrl=      2127 FMM=F ISym2X=0 I1Cent= 0 IOpClX= 0 NMat=1 NMatS=1 NMatT=0.
 ***** Axes restored to original set *****
 -------------------------------------------------------------------
 Center     Atomic                   Forces (Hartrees/Bohr)
 Number     Number              X              Y              Z
 -------------------------------------------------------------------
      1        6          -0.002767979   -0.000409091    0.001614141
      2        6          -0.000892173   -0.000534902   -0.002337186
      3        6          -0.018847563   -0.000707213    0.004235492
      4        8           0.010082048    0.000213119    0.001788016
      5        1          -0.000557068    0.000527232   -0.000924832
      6        8           0.014274593   -0.007174986    0.000072132
      7        1           0.001842882    0.000779296   -0.000003007
      8        7           0.030382706   -0.006860287   -0.008099285
      9        6          -0.006522826    0.002817213   -0.004346925
     10        1           0.001126097   -0.000131876    0.000420838
     11        8           0.005392831    0.000867830   -0.001448000
     12        6          -0.001972585    0.001244891    0.001824211
     13        1           0.001450126   -0.000680393   -0.000127675
     14        8           0.003636440   -0.003132092    0.000363214
     15        1           0.000912103   -0.000241064    0.000565215
     16        1          -0.000426576   -0.000093691   -0.000585294
     17        1          -0.003232224   -0.000419028    0.000548439
     18        1          -0.011893832   -0.002451033   -0.002155584
     19        1          -0.002478336    0.002789077   -0.001823501
     20        6           0.004824908   -0.000232391   -0.000142825
     21        6          -0.002667198   -0.009538553   -0.002048806
     22        6           0.050497387    0.048495506    0.001489512
     23        7           0.002300048    0.007361813    0.001756082
     24        6          -0.079652947   -0.037621487    0.008168888
     25        1          -0.000662885   -0.000764152   -0.000241311
     26        1           0.002156171   -0.005030551   -0.002191036
     27        8          -0.027236755   -0.015737109    0.002424016
     28        8           0.030932606    0.026663920    0.001205070
 -------------------------------------------------------------------
 Cartesian Forces:  Max     0.079652947 RMS     0.014528592

 GradGradGradGradGradGradGradGradGradGradGradGradGradGradGradGradGradGrad
 Berny optimization.
 FormGI is forming the generalized inverse of G from B-inverse, IUseBI=4.
 Internal  Forces:  Max     0.036049419 RMS     0.007415287
 Search for a local minimum.
 Step number   1 out of a maximum of  166
 All quantities printed in internal units (Hartrees-Bohrs-Radians)
 Mixed Optimization -- RFO/linear search
 Second derivative matrix not updated -- first step.
 ITU=  0
     Eigenvalues ---    0.00513   0.00538   0.00559   0.00879   0.01419
     Eigenvalues ---    0.01476   0.01490   0.01573   0.01699   0.01744
     Eigenvalues ---    0.01980   0.02002   0.02084   0.02264   0.02462
     Eigenvalues ---    0.03160   0.03851   0.04327   0.04831   0.05051
     Eigenvalues ---    0.05161   0.05456   0.05616   0.06011   0.06046
     Eigenvalues ---    0.06239   0.06936   0.07812   0.08254   0.09923
     Eigenvalues ---    0.11711   0.13008   0.14045   0.15996   0.16000
     Eigenvalues ---    0.16000   0.16000   0.16000   0.16138   0.16843
     Eigenvalues ---    0.18399   0.19982   0.22075   0.22434   0.24461
     Eigenvalues ---    0.24920   0.24990   0.24999   0.25000   0.26070
     Eigenvalues ---    0.28464   0.29074   0.30637   0.33472   0.33514
     Eigenvalues ---    0.33631   0.33639   0.33810   0.33818   0.33937
     Eigenvalues ---    0.35145   0.35314   0.37146   0.37246   0.43020
     Eigenvalues ---    0.43067   0.43960   0.44160   0.45710   0.47293
     Eigenvalues ---    0.48582   0.50478   0.52929   0.53682   0.53844
     Eigenvalues ---    0.55108   0.91974   0.96868
 RFO step:  Lambda=-2.48308996D-02 EMin= 5.13189829D-03
 Linear search not attempted -- first point.
 Iteration  1 RMS(Cart)=  0.10228432 RMS(Int)=  0.00381388
 Iteration  2 RMS(Cart)=  0.00579408 RMS(Int)=  0.00026040
 Iteration  3 RMS(Cart)=  0.00002308 RMS(Int)=  0.00026000
 Iteration  4 RMS(Cart)=  0.00000001 RMS(Int)=  0.00026000
 Variable       Old X    -DE/DX   Delta X   Delta X   Delta X     New X
                                 (Linear)    (Quad)   (Total)
    R1        2.89011   0.00007   0.00000  -0.00253  -0.00254   2.88757
    R2        2.87395   0.00036   0.00000   0.00415   0.00442   2.87838
    R3        2.08158   0.00091   0.00000   0.00252   0.00252   2.08410
    R4        2.66263   0.00201   0.00000   0.00432   0.00432   2.66695
    R5        2.91905  -0.00600   0.00000  -0.01981  -0.02006   2.89899
    R6        2.64460  -0.00244   0.00000  -0.00507  -0.00507   2.63952
    R7        2.07943  -0.00072   0.00000  -0.00201  -0.00201   2.07742
    R8        2.63784   0.00908   0.00000   0.01814   0.01797   2.65581
    R9        2.07958   0.00057   0.00000   0.00159   0.00159   2.08116
   R10        2.80737  -0.01132   0.00000  -0.03108  -0.03108   2.77629
   R11        1.83720   0.01015   0.00000   0.01832   0.01832   1.85553
   R12        2.73154  -0.00542   0.00000  -0.01271  -0.01256   2.71898
   R13        2.59343  -0.00992   0.00000  -0.01715  -0.01713   2.57630
   R14        2.60866   0.02261   0.00000   0.04416   0.04425   2.65290
   R15        2.86711  -0.00020   0.00000  -0.00062  -0.00062   2.86649
   R16        2.07638   0.00126   0.00000   0.00347   0.00347   2.07985
   R17        1.82874   0.00048   0.00000   0.00085   0.00085   1.82959
   R18        2.67645  -0.00189   0.00000  -0.00415  -0.00415   2.67230
   R19        2.07652   0.00110   0.00000   0.00302   0.00302   2.07955
   R20        2.08230   0.00051   0.00000   0.00141   0.00141   2.08372
   R21        1.81736   0.00271   0.00000   0.00471   0.00471   1.82207
   R22        2.55481  -0.00448   0.00000  -0.00652  -0.00660   2.54821
   R23        2.05440   0.00018   0.00000   0.00048   0.00048   2.05488
   R24        2.73928   0.01628   0.00000   0.03977   0.03968   2.77896
   R25        2.05169   0.00416   0.00000   0.01100   0.01100   2.06268
   R26        2.65449  -0.01729   0.00000  -0.03835  -0.03836   2.61613
   R27        2.29920   0.02847   0.00000   0.02865   0.02865   2.32785
   R28        2.58694  -0.02489   0.00000  -0.04781  -0.04774   2.53920
   R29        2.32036   0.03605   0.00000   0.03816   0.03816   2.35853
    A1        1.80072  -0.00055   0.00000  -0.00822  -0.00816   1.79256
    A2        1.94203   0.00007   0.00000   0.00103   0.00101   1.94304
    A3        1.92838  -0.00006   0.00000  -0.00054  -0.00052   1.92785
    A4        1.95220   0.00115   0.00000   0.00510   0.00511   1.95731
    A5        1.89392  -0.00012   0.00000   0.00635   0.00630   1.90022
    A6        1.94151  -0.00050   0.00000  -0.00375  -0.00376   1.93775
    A7        1.78114   0.00207   0.00000   0.01156   0.01140   1.79254
    A8        1.90242   0.00201   0.00000   0.02922   0.02955   1.93197
    A9        1.91142   0.00069   0.00000   0.00560   0.00567   1.91709
   A10        1.99601  -0.00333   0.00000  -0.02489  -0.02512   1.97088
   A11        1.90330  -0.00097   0.00000  -0.00966  -0.00989   1.89341
   A12        1.96029  -0.00012   0.00000  -0.00844  -0.00908   1.95121
   A13        1.87611  -0.00141   0.00000  -0.00386  -0.00336   1.87275
   A14        1.92179   0.00111   0.00000  -0.01250  -0.01291   1.90887
   A15        1.97465  -0.01005   0.00000  -0.05095  -0.05100   1.92365
   A16        1.93289  -0.00100   0.00000  -0.00283  -0.00339   1.92950
   A17        1.88765   0.01006   0.00000   0.06936   0.06955   1.95720
   A18        1.87111   0.00145   0.00000   0.00235   0.00086   1.87197
   A19        1.84795  -0.01272   0.00000  -0.06883  -0.06883   1.77912
   A20        1.94029  -0.00077   0.00000  -0.00363  -0.00401   1.93629
   A21        2.12941   0.00864   0.00000   0.02968   0.02959   2.15900
   A22        2.03992  -0.00701   0.00000  -0.02758  -0.02767   2.01224
   A23        2.11110  -0.00159   0.00000  -0.00101  -0.00095   2.11015
   A24        1.84239   0.00136   0.00000   0.00650   0.00655   1.84894
   A25        2.01356   0.00044   0.00000   0.00105   0.00104   2.01460
   A26        1.90696  -0.00016   0.00000   0.00281   0.00274   1.90971
   A27        1.92233  -0.00254   0.00000  -0.01741  -0.01744   1.90490
   A28        1.86698   0.00064   0.00000   0.00583   0.00577   1.87275
   A29        1.90562   0.00030   0.00000   0.00173   0.00175   1.90737
   A30        1.85391  -0.00481   0.00000  -0.02601  -0.02601   1.82790
   A31        1.97974  -0.00125   0.00000  -0.00579  -0.00583   1.97391
   A32        1.89436   0.00158   0.00000   0.01124   0.01126   1.90563
   A33        1.90285  -0.00116   0.00000  -0.00995  -0.00997   1.89288
   A34        1.86176   0.00003   0.00000   0.00218   0.00219   1.86395
   A35        1.94314   0.00086   0.00000   0.00080   0.00073   1.94386
   A36        1.87841   0.00009   0.00000   0.00269   0.00272   1.88113
   A37        1.89878  -0.00022   0.00000  -0.00120  -0.00120   1.89758
   A38        2.14734  -0.01228   0.00000  -0.04270  -0.04275   2.10459
   A39        1.99287   0.00718   0.00000   0.02697   0.02698   2.01986
   A40        2.14294   0.00509   0.00000   0.01570   0.01572   2.15866
   A41        2.09353  -0.00073   0.00000   0.00105   0.00090   2.09443
   A42        2.11945  -0.00392   0.00000  -0.02372  -0.02365   2.09580
   A43        2.07000   0.00465   0.00000   0.02270   0.02278   2.09278
   A44        1.96765   0.01849   0.00000   0.06484   0.06475   2.03240
   A45        2.21743  -0.02488   0.00000  -0.08928  -0.08924   2.12819
   A46        2.09807   0.00639   0.00000   0.02449   0.02452   2.12259
   A47        2.23493  -0.02395   0.00000  -0.09368  -0.09356   2.14137
   A48        2.01036   0.02008   0.00000   0.07187   0.07197   2.08233
   A49        2.14133  -0.03230   0.00000  -0.11694  -0.11709   2.02424
   A50        2.13149   0.01222   0.00000   0.04503   0.04484   2.17634
    D1       -0.55047   0.00067   0.00000   0.00340   0.00358  -0.54689
    D2       -2.66768   0.00248   0.00000   0.01252   0.01251  -2.65517
    D3        1.46458   0.00087   0.00000   0.00041   0.00034   1.46493
    D4       -2.64642  -0.00041   0.00000   0.00167   0.00181  -2.64460
    D5        1.51955   0.00140   0.00000   0.01079   0.01075   1.53030
    D6       -0.63137  -0.00021   0.00000  -0.00133  -0.00142  -0.63279
    D7        1.47102   0.00022   0.00000   0.00616   0.00631   1.47733
    D8       -0.64619   0.00203   0.00000   0.01527   0.01525  -0.63095
    D9       -2.79711   0.00042   0.00000   0.00316   0.00308  -2.79403
   D10        0.50948  -0.00109   0.00000  -0.00323  -0.00322   0.50626
   D11       -1.61712   0.00087   0.00000   0.01347   0.01348  -1.60364
   D12        2.51180   0.00027   0.00000   0.00817   0.00818   2.51998
   D13        2.59844  -0.00075   0.00000  -0.00436  -0.00436   2.59409
   D14        0.47184   0.00120   0.00000   0.01234   0.01234   0.48418
   D15       -1.68243   0.00060   0.00000   0.00704   0.00704  -1.67538
   D16       -1.53646  -0.00070   0.00000  -0.00129  -0.00128  -1.53773
   D17        2.62012   0.00125   0.00000   0.01541   0.01543   2.63555
   D18        0.46586   0.00065   0.00000   0.01011   0.01013   0.47599
   D19        0.60273  -0.00099   0.00000  -0.02647  -0.02649   0.57624
   D20        2.56515  -0.00173   0.00000  -0.03305  -0.03303   2.53212
   D21       -1.56331  -0.00069   0.00000  -0.02473  -0.02474  -1.58805
   D22        0.41615  -0.00070   0.00000  -0.00307  -0.00321   0.41295
   D23       -1.69090   0.00073   0.00000   0.01003   0.01030  -1.68060
   D24        2.49899   0.00482   0.00000   0.04990   0.04967   2.54865
   D25        2.46736   0.00141   0.00000   0.02722   0.02693   2.49428
   D26        0.36030   0.00285   0.00000   0.04033   0.04043   0.40073
   D27       -1.73300   0.00693   0.00000   0.08020   0.07980  -1.65320
   D28       -1.60482  -0.00210   0.00000  -0.01114  -0.01111  -1.61593
   D29        2.57131  -0.00067   0.00000   0.00196   0.00239   2.57371
   D30        0.47801   0.00342   0.00000   0.04184   0.04177   0.51978
   D31        2.93013  -0.00069   0.00000  -0.01557  -0.01581   2.91432
   D32        0.94963  -0.00265   0.00000  -0.03443  -0.03405   0.91557
   D33       -1.23157   0.00150   0.00000   0.00623   0.00610  -1.22547
   D34       -0.10382   0.00018   0.00000   0.00410   0.00422  -0.09961
   D35        1.99622   0.00007   0.00000  -0.01521  -0.01547   1.98074
   D36       -2.24143   0.00724   0.00000   0.02726   0.02712  -2.21432
   D37       -2.16352  -0.00137   0.00000  -0.03536  -0.03473  -2.19825
   D38        1.05716  -0.00193   0.00000  -0.05068  -0.04995   1.00721
   D39       -0.08735  -0.00253   0.00000  -0.02485  -0.02576  -0.11311
   D40        3.13334  -0.00309   0.00000  -0.04017  -0.04098   3.09235
   D41        1.99761   0.00253   0.00000   0.01061   0.01074   2.00835
   D42       -1.06489   0.00197   0.00000  -0.00471  -0.00448  -1.06938
   D43       -0.25849   0.00041   0.00000  -0.00202  -0.00207  -0.26055
   D44        1.92595   0.00031   0.00000  -0.00698  -0.00701   1.91894
   D45       -2.28822  -0.00035   0.00000  -0.01103  -0.01110  -2.29931
   D46       -3.11910   0.00036   0.00000  -0.00488  -0.00482  -3.12393
   D47        0.01446   0.00005   0.00000  -0.00950  -0.00965   0.00481
   D48       -0.05979   0.00073   0.00000   0.00995   0.01015  -0.04964
   D49        3.07378   0.00042   0.00000   0.00533   0.00532   3.07910
   D50        3.11541   0.00121   0.00000   0.01384   0.01347   3.12888
   D51       -0.02797  -0.00008   0.00000  -0.00948  -0.00905  -0.03703
   D52        0.05203   0.00015   0.00000  -0.00280  -0.00282   0.04921
   D53       -3.09136  -0.00113   0.00000  -0.02612  -0.02534  -3.11669
   D54        0.93394  -0.00000   0.00000  -0.00636  -0.00634   0.92761
   D55       -1.13194  -0.00033   0.00000  -0.01310  -0.01306  -1.14499
   D56        3.10983  -0.00067   0.00000  -0.01709  -0.01701   3.09282
   D57       -1.14911  -0.00017   0.00000  -0.00250  -0.00256  -1.15168
   D58        3.06820  -0.00049   0.00000  -0.00923  -0.00928   3.05891
   D59        1.02678  -0.00084   0.00000  -0.01322  -0.01324   1.01354
   D60        3.08892   0.00035   0.00000  -0.00050  -0.00052   3.08840
   D61        1.02304   0.00003   0.00000  -0.00723  -0.00724   1.01580
   D62       -1.01838  -0.00032   0.00000  -0.01122  -0.01119  -1.02958
   D63        1.38605  -0.00282   0.00000  -0.05514  -0.05514   1.33091
   D64       -2.81252  -0.00159   0.00000  -0.04317  -0.04317  -2.85569
   D65       -0.76791  -0.00100   0.00000  -0.03822  -0.03821  -0.80612
   D66        0.02444   0.00004   0.00000  -0.00513  -0.00539   0.01905
   D67       -3.13944   0.00000   0.00000  -0.00288  -0.00319   3.14056
   D68       -3.10845   0.00038   0.00000  -0.00013  -0.00018  -3.10863
   D69        0.01086   0.00034   0.00000   0.00212   0.00202   0.01288
   D70        0.01258  -0.00002   0.00000  -0.00123  -0.00146   0.01113
   D71       -3.13782   0.00022   0.00000   0.00630   0.00614  -3.13168
   D72       -3.10735   0.00012   0.00000  -0.00283  -0.00307  -3.11042
   D73        0.02544   0.00036   0.00000   0.00469   0.00453   0.02996
   D74       -0.01766   0.00019   0.00000   0.00610   0.00642  -0.01124
   D75        3.13207   0.00015   0.00000  -0.00018  -0.00051   3.13156
   D76       -0.01396  -0.00005   0.00000  -0.00360  -0.00395  -0.01791
   D77        3.12942   0.00128   0.00000   0.01975   0.02085  -3.13292
         Item               Value     Threshold  Converged?
 Maximum Force            0.036049     0.000450     NO 
 RMS     Force            0.007415     0.000300     NO 
 Maximum Displacement     0.453433     0.001800     NO 
 RMS     Displacement     0.104948     0.001200     NO 
 Predicted change in Energy=-1.378145D-02
 GradGradGradGradGradGradGradGradGradGradGradGradGradGradGradGradGradGrad

                          Input orientation:                          
 ---------------------------------------------------------------------
 Center     Atomic      Atomic             Coordinates (Angstroms)
 Number     Number       Type             X           Y           Z
 ---------------------------------------------------------------------
      1          6           0        2.742329    0.283787    0.318120
      2          6           0        1.333852    0.855430    0.474067
      3          6           0        0.617634    0.334312   -0.778478
      4          8           0        1.371589    2.250208    0.538524
      5          1           0        0.849875    0.418846    1.359323
      6          8           0        1.304963   -0.814840   -1.205287
      7          1           0        0.638155    1.109770   -1.560216
      8          7           0       -0.793194    0.055890   -0.477732
      9          6           0        2.493000   -1.024402   -0.421154
     10          1           0        3.220625    0.122548    1.298696
     11          8           0        3.529020    1.125841   -0.496621
     12          6           0        2.298733   -2.243701    0.460037
     13          1           0        3.319784   -1.211293   -1.123184
     14          8           0        1.296927   -2.064619    1.441898
     15          1           0        3.235888   -2.454989    0.996770
     16          1           0        2.078092   -3.109637   -0.185968
     17          1           0        3.207857    2.019776   -0.309276
     18          1           0        0.425702    2.484716    0.418374
     19          1           0        0.433179   -2.135222    1.019246
     20          6           0       -1.396001   -1.142713   -0.719834
     21          6           0       -2.702111   -1.323285   -0.437351
     22          6           0       -3.495146   -0.214715    0.114665
     23          7           0       -2.830647    0.985217    0.302158
     24          6           0       -1.528053    1.146154    0.014322
     25          1           0       -0.761677   -1.910477   -1.156409
     26          1           0       -3.176665   -2.286089   -0.635420
     27          8           0       -4.687735   -0.343138    0.395169
     28          8           0       -0.890395    2.206698    0.176622
 ---------------------------------------------------------------------
                    Distance matrix (angstroms):
                    1          2          3          4          5
     1  C    0.000000
     2  C    1.528039   0.000000
     3  C    2.391528   1.534080   0.000000
     4  O    2.407138   1.396776   2.444095   0.000000
     5  H    2.164192   1.099325   2.152039   2.073591   0.000000
     6  O    2.365115   2.368726   1.405395   3.527014   2.882067
     7  H    2.939037   2.164946   1.101305   2.498646   3.007642
     8  N    3.631149   2.463638   1.469151   3.245627   2.491222
     9  C    1.523171   2.383026   2.343241   3.591881   2.820093
    10  H    1.102857   2.185644   3.336922   2.919543   2.389963
    11  O    1.411290   2.415393   3.030203   2.643905   3.334995
    12  C    2.570042   3.245890   3.317553   4.589223   3.161813
    13  H    2.155476   3.281232   3.131985   4.305662   3.862725
    14  O    2.977764   3.076483   3.338619   4.409012   2.524733
    15  H    2.864448   3.853548   4.217458   5.081779   3.752790
    16  H    3.494373   4.087945   3.787451   5.454537   4.043097
    17  H    1.903680   2.341201   3.125731   2.035618   3.302617
    18  H    3.197014   1.866122   2.468508   0.981903   2.309356
    19  H    3.416922   3.170557   3.060136   4.510399   2.610087
    20  C    4.498669   3.587488   2.497953   4.555758   3.435887
    21  C    5.726721   4.676160   3.726218   5.506107   4.345073
    22  C    6.260670   4.959193   4.244301   5.471801   4.563965
    23  N    5.616966   4.170065   3.671797   4.394867   3.870996
    24  C    4.367165   2.913140   2.427260   3.146688   2.827109
    25  H    4.389429   3.834049   2.661655   4.973421   3.788370
    26  H    6.522882   5.607572   4.613423   6.530141   5.244873
    27  O    7.456864   6.140219   5.475703   6.592526   5.672330
    28  O    4.112698   2.619480   2.586929   2.291165   2.761111
                    6          7          8          9         10
     6  O    0.000000
     7  H    2.067543   0.000000
     8  N    2.385324   2.081152   0.000000
     9  C    1.438823   3.048377   3.459669   0.000000
    10  H    3.289131   3.977076   4.389861   2.191532   0.000000
    11  O    3.035602   3.080357   4.452717   2.388007   2.079631
    12  C    2.408843   4.252612   3.965796   1.516881   2.674391
    13  H    2.055096   3.573440   4.351891   1.100611   2.766670
    14  O    2.927388   4.418531   3.542618   2.446141   2.916303
    15  H    3.356727   5.098422   4.971134   2.146852   2.595205
    16  H    2.627325   4.665338   4.283687   2.139081   3.735857
    17  H    3.529715   2.999388   4.460228   3.128986   2.487008
    18  H    3.781064   2.418767   2.861453   4.158418   3.763828
    19  H    2.729828   4.150375   2.923338   2.748006   3.597981
    20  C    2.763760   3.149240   1.363319   3.902248   5.195053
    21  C    4.111555   4.282284   2.355359   5.203727   6.339013
    22  C    5.014326   4.652275   2.779335   6.066349   6.827683
    23  N    4.755614   3.939103   2.371305   5.736110   6.193155
    24  C    3.654986   2.678236   1.403856   4.590188   5.024672
    25  H    2.339617   3.353279   2.080431   3.452340   5.100926
    26  H    4.751243   5.190372   3.345245   5.812303   7.104058
    27  O    6.220642   5.856584   4.011063   7.259026   7.973417
    28  O    3.982331   2.560532   2.250245   4.716430   4.743755
                   11         12         13         14         15
    11  O    0.000000
    12  C    3.712494   0.000000
    13  H    2.428695   2.148255   0.000000
    14  O    4.349613   1.414120   3.376353   0.000000
    15  H    3.890821   1.100448   2.459272   2.027338   0.000000
    16  H    4.487870   1.102656   2.454360   2.086200   1.779867
    17  H    0.968176   4.426690   3.333885   4.837411   4.661552
    18  H    3.509180   5.086050   4.940911   4.743742   5.712476
    19  H    4.745168   1.950582   3.711622   0.964199   2.820981
    20  C    5.426969   4.031789   4.733500   3.574193   5.111085
    21  C    6.695426   5.163419   6.061858   4.480340   6.212671
    22  C    7.177024   6.148585   6.997764   5.305436   7.148689
    23  N    6.411177   6.063115   6.684613   5.257125   7.008591
    24  C    5.082860   5.131673   5.509356   4.508608   6.052154
    25  H    5.297606   3.477073   4.141049   3.318555   4.573095
    26  H    7.525074   5.584066   6.602798   4.937339   6.619170
    27  O    8.394537   7.240654   8.196307   6.314690   8.222265
    28  O    4.599211   5.482418   5.576538   4.962807   6.279346
                   16         17         18         19         20
    16  H    0.000000
    17  H    5.253804   0.000000
    18  H    5.864504   2.913079   0.000000
    19  H    2.260036   5.169895   4.658856   0.000000
    20  C    4.027794   5.600482   4.215728   2.712079   0.000000
    21  C    5.109264   6.791184   5.001635   3.551191   1.348453
    22  C    6.287443   7.078342   4.769928   4.465238   2.442126
    23  N    6.411069   6.156922   3.586894   4.572080   2.762384
[...]
 44,0.00034210,0.00046316,0.00003655,-0.00086690,-0.00614215,0.00083664
 ,0.00077843,0.00349162,-0.00057190,0.00146922,-0.00014003,-0.00003551,
 -0.00006757,0.00368612,-0.00224456,0.00024896,0.00090538,-0.00000147,-
 0.00011236,0.01192558,-0.00093185,-0.00072352,-0.00192561,-0.00000297,
 -0.00041163,0.00040180,-0.00008286,0.00010140,0.00126793,0.00011668,-0
 .00022086,0.00013065,0.00041596,0.00002616,0.00036453,-0.00004408,-0.0
 0014772,0.00023011,-0.00068673,0.00028502,0.00016589,-0.00009338,0.000
 14019,-0.00009186,-0.00012136,-0.00008583,-0.00090146,-0.00008477,0.00
 017370,-0.00492315,-0.00014548,-0.00191564,-0.00025167,0.00060587,-0.0
 0034691,-0.02720757,0.02694299,0.00149939,-0.11509446,0.05352604,0.002
 14781,0.89360803,-0.00002276,0.00019140,-0.00077078,-0.00092623,0.0043
 7882,0.00072163,0.00181888,-0.00130535,-0.00084500,0.00610998,-0.00433
 138,0.00189348,-0.00011117,-0.00033522,0.00026561,-0.00049648,-0.00200
 685,0.00011647,-0.00156151,-0.00039878,0.00081936,0.00237266,-0.056554
 60,-0.00111235,0.00106388,-0.00036151,0.00013580,-0.00014394,0.0000183
 3,0.00004305,0.00017351,-0.00107546,-0.00000003,0.00030468,0.00022716,
 -0.00032530,-0.00012879,-0.00007133,0.00002212,-0.00045369,-0.00045171
 ,0.00016678,-0.00011614,-0.00001273,0.00002544,0.00004437,-0.00012081,
 0.00001358,-0.00075549,0.00040540,0.00034290,-0.00937956,0.00127957,-0
 .00316574,0.00072628,0.00035657,0.00024251,0.04836960,0.04747104,-0.00
 271648,0.03090735,-0.20247975,-0.00049550,0.01221290,0.55664976,-0.000
 05067,-0.00002046,-0.00009887,-0.00006071,0.00039365,0.00035147,0.0001
 2026,-0.00007856,-0.00071974,0.00112502,-0.00057984,0.00013800,-0.0000
 2131,0.00000940,-0.00005281,-0.00018019,0.00019589,-0.00006126,0.00021
 636,0.00019867,-0.00010046,-0.00127508,-0.00005808,-0.00729967,0.00017
 091,-0.00006518,0.00003271,-0.00004057,0.00000788,0.00000104,0.0000315
 3,-0.00008487,-0.00005352,-0.00004269,-0.00001697,0.00009409,-0.000008
 57,0.00000397,-0.00001059,0.00007819,0.00003881,-0.00010249,0.00000814
 ,-0.00000012,-0.00002300,0.00000714,-0.00001500,-0.00001449,-0.0000530
 4,0.00002418,0.00007725,-0.00140669,0.00021949,-0.00001459,-0.00014737
 ,-0.00000167,0.00002453,0.00233179,-0.00161635,0.00423845,0.00070782,-
 0.00123945,-0.08154762,-0.02650165,-0.00235385,0.21753261,0.00025097,-
 0.00000631,0.00028712,0.00008784,-0.00464284,0.00046485,0.00607806,0.0
 0221659,0.00015533,-0.01049789,0.00492281,-0.00451615,0.00020118,0.000
 56927,-0.00029563,-0.00404703,0.00347427,-0.00037308,0.00028901,0.0002
 2055,-0.00064872,-0.04537517,0.05349519,0.00427220,0.00109470,0.000294
 48,0.00042876,-0.00024741,0.00005283,-0.00014403,-0.00125994,0.0008334
 7,0.00020535,-0.00040736,-0.00056126,0.00028035,-0.00027246,0.00010853
 ,0.00009440,0.00017932,0.00092293,-0.00048632,-0.00005968,0.00011375,-
 0.00016662,0.00005497,0.00019390,0.00004571,0.00154582,-0.00029298,-0.
 00053142,0.01529874,-0.00099339,0.00702714,-0.00035089,-0.00074684,0.0
 0028469,-0.02693143,-0.03001858,0.00190785,0.03237810,-0.00478929,-0.0
 0227944,-0.11996471,-0.07002948,0.00337705,0.67184563,0.00004766,-0.00
 040871,0.00045722,0.00018101,-0.00441759,-0.00049439,-0.00241028,-0.00
 825623,0.00120175,-0.00845203,0.00496983,-0.00341687,0.00014846,0.0004
 9057,-0.00022372,0.00353499,0.00150143,0.00000398,0.00059903,0.0003982
 5,-0.00082041,0.03563322,0.01903026,-0.00303527,-0.00055848,-0.0004711
 5,-0.00050622,0.00005757,0.00005582,-0.00002281,-0.00046135,0.00111047
 ,0.00007450,0.00009498,-0.00010907,0.00017913,0.00025752,0.00004541,0.
 00006358,0.00020641,0.00040346,-0.00008041,0.00006522,-0.00007536,0.00
 002958,-0.00002030,0.00012626,-0.00000663,0.00101040,-0.00040407,-0.00
 042324,0.01165293,-0.00130722,0.00598151,-0.00038512,-0.00026670,-0.00
 011840,-0.01050564,-0.01012082,0.00088184,-0.00606993,-0.04210103,0.00
 022622,-0.04652423,-0.26000436,0.00375097,0.14771473,0.42610703,0.0000
 8062,0.00004208,0.00006135,0.00087885,0.00074585,-0.00013885,-0.000277
 40,-0.00052675,0.00429422,0.00097373,-0.00054384,0.00039219,0.00001683
 ,-0.00012829,-0.00007152,-0.00018196,0.00019559,0.00005123,-0.00055645
 ,0.00018912,-0.00026773,0.00433972,-0.00317479,0.02042100,0.00005412,0
 .00007984,-0.00008367,0.00003764,-0.00001728,0.00000843,0.00001123,-0.
 00001702,0.00001561,-0.00000245,-0.00000438,-0.00008066,0.00002809,-0.
 00002670,0.00001699,-0.00003518,-0.00002164,0.00009429,-0.00001049,0.0
 0001113,0.00000640,-0.00000084,0.00000976,0.00001648,-0.00002006,-0.00
 001445,-0.00000150,-0.00135091,-0.00022410,-0.00033944,0.00001483,0.00
 001581,-0.00006388,0.00119816,0.00121632,-0.00104413,-0.00035664,0.000
 71439,0.01875368,0.00346829,0.00333554,-0.06200496,-0.02621876,-0.0047
 0807,0.06279350,-0.00034245,0.00085303,0.00001820,-0.00156863,0.006132
 00,-0.00091258,-0.02638680,0.03298345,0.00035323,0.00989860,-0.0042138
 1,0.00238867,-0.00032553,-0.00041480,0.00006442,-0.00263106,-0.0061001
 1,0.00022062,-0.00129506,0.00041332,0.00176756,-0.15197250,-0.00305871
 ,0.00753663,-0.00131630,0.00095653,0.00061833,0.00042340,-0.00019653,0
 .00011169,0.00189072,-0.00118259,-0.00031762,-0.00003194,0.00052433,-0
 .00024845,-0.00008962,-0.00004864,-0.00021502,-0.00009701,-0.00112749,
 0.00048474,0.00007279,0.00001479,0.00011410,-0.00006053,-0.00026207,-0
 .00004086,-0.00206532,0.00032168,0.00061800,-0.01846570,-0.00631983,-0
 .00408883,0.00044018,0.00084648,-0.00033609,0.05123066,0.02930631,-0.0
 0405430,-0.02707635,0.01007984,0.00257089,-0.05964228,-0.06341522,0.00
 073971,-0.37128281,-0.01064947,0.01301897,0.77493870,-0.00005548,0.000
 40002,-0.00235035,-0.00476746,0.01794998,0.00240880,0.02973577,0.02136
 016,-0.00618769,0.03120938,-0.01740989,0.01150947,-0.00012887,-0.00169
 136,0.00137327,-0.01271669,-0.00310487,0.00018569,-0.00640976,-0.00156
 754,0.00337998,0.02614143,-0.13969865,-0.00461551,0.00294486,0.0011677
 3,0.00188571,-0.00084060,0.00000489,0.00002689,0.00029479,-0.00412673,
 -0.00005622,-0.00047916,-0.00022173,-0.00034345,-0.00105957,-0.0000382
 9,-0.00007602,-0.00044039,-0.00028002,-0.00015134,-0.00024835,0.000295
 81,-0.00020151,0.00008507,-0.00022260,0.00009098,-0.00303678,0.0017018
 4,0.00157129,-0.04283151,0.00117972,-0.01977553,0.00074988,-0.00009459
 ,0.00051704,-0.01375657,-0.05887153,0.00079900,0.01720518,-0.00153356,
 -0.00158313,-0.03964584,0.01331878,0.00107829,0.00624675,-0.11139075,-
 0.00056534,0.18197526,0.66585044,-0.00038045,0.00035788,0.00035031,-0.
 00092643,-0.00120185,0.00081515,0.00162100,-0.00316610,-0.00302698,-0.
 00411380,0.00143780,-0.00150477,-0.00003062,0.00033517,-0.00013924,0.0
 0204125,-0.00042220,-0.00022751,0.00073022,-0.00020988,0.00107291,0.00
 775994,0.00159108,-0.06716311,-0.00035711,-0.00061440,0.00021993,0.000
 03854,-0.00001687,-0.00005828,0.00002886,0.00018084,-0.00021526,0.0001
 7858,0.00006028,0.00007443,-0.00005086,0.00001579,-0.00004430,-0.00000
 978,-0.00000615,-0.00010529,0.00002631,-0.00004511,0.00002254,0.000005
 51,-0.00001555,-0.00002012,0.00009626,-0.00005311,-0.00004653,0.004192
 94,-0.00338769,0.00096459,0.00003257,-0.00000256,0.00011356,-0.0037672
 9,-0.00244651,0.00134297,0.00214791,-0.00059885,0.00000488,0.00094811,
 0.00372831,-0.01898014,0.01303264,0.00024135,-0.07136083,-0.01931984,0
 .00477231,0.22180519,-0.00008853,-0.00015366,-0.00002296,-0.00004006,-
 0.00010055,-0.00022319,0.00024843,-0.00049601,-0.00006979,-0.00027026,
 0.00045557,0.00007466,0.00004241,0.00002871,0.00001279,-0.00503339,-0.
 00233784,0.00138005,0.00015781,0.00025381,0.00003161,0.01339265,-0.014
 15560,-0.00110349,-0.00128261,-0.00006544,-0.00036701,0.00000918,0.000
 03738,0.00003106,0.00007385,0.00022172,0.00000418,-0.00006176,0.000051
 20,-0.00001844,0.00025192,0.00000011,-0.00001618,0.00002874,-0.0001193
 1,0.00029234,0.00004880,-0.00002430,0.00006858,-0.00005444,0.00006862,
 0.00000343,0.00003567,-0.00005275,-0.00001740,0.00045197,-0.00006618,0
 .00017252,-0.00001874,0.00017882,-0.00082240,-0.15516489,0.14295242,0.
 01138074,-0.00914805,0.02553817,0.00149572,-0.00319897,-0.00432565,0.0
 0132859,0.00028377,0.00017716,-0.00024791,-0.00203248,-0.00127228,0.00
 046485,0.16278989,0.00007763,-0.00024216,0.00007206,-0.00012570,-0.000
 45090,0.00009725,0.00339579,-0.00221760,-0.00044677,-0.00058234,0.0005
 8289,-0.00019244,0.00004251,0.00000701,-0.00008080,0.00176256,0.001942
 74,-0.00009837,-0.00026817,0.00001523,-0.00000071,0.01795580,-0.027339
 03,-0.00176395,-0.00069683,0.00070393,-0.00034945,0.00000033,0.0000759
 8,0.00006674,-0.00003004,0.00025304,-0.00001761,-0.00010755,0.00011343
 ,0.00010741,0.00027853,0.00001175,0.00001673,0.00015906,-0.00016386,0.
 00005128,0.00005645,-0.00004660,-0.00001171,0.00003619,-0.00001438,-0.
 00005056,0.00011740,-0.00005546,-0.00002381,0.00096258,-0.00003525,0.0
 0047516,-0.00048551,0.00035236,-0.00025299,0.13357653,-0.24540606,-0.0
 1393482,-0.00274943,0.00602236,0.00004370,-0.00125823,0.00084222,-0.00
 036007,0.00102739,0.00061901,0.00005684,-0.00762859,0.00236947,0.00049
 562,-0.14620287,0.26456025,-0.00010277,-0.00003819,-0.00013326,-0.0003
 6779,-0.00014555,0.00044726,-0.00047989,0.00002706,-0.00145952,0.00004
 758,0.00002785,-0.00013977,-0.00000263,0.00002169,-0.00012855,0.000835
 20,0.00060175,-0.00054531,0.00028718,-0.00002508,0.00005025,-0.0004336
 5,0.00045886,0.00276184,0.00030065,-0.00015854,-0.00005332,-0.00005965
 ,-0.00001723,-0.00000788,0.00001387,-0.00000780,-0.00004693,-0.0003279
 2,0.00000019,0.00055745,0.00000059,0.00004003,-0.00000679,0.00042792,0
 .00015966,-0.00035280,0.00005525,0.00001785,-0.00008422,0.00002464,-0.
 00006281,-0.00008863,-0.00001414,0.00000771,0.00001462,-0.00001332,0.0
 0001647,0.00003396,-0.00088972,-0.00007964,-0.00021094,0.01292469,-0.0
 1632894,-0.04011943,0.00009273,-0.00130272,0.00838561,0.00064939,0.000
 15664,0.01197489,0.00017754,-0.00000166,-0.00231577,0.00018024,0.00024
 866,0.00321775,-0.01302193,0.01617745,0.02624825,0.00000151,-0.0000390
 1,-0.00007605,-0.00014406,0.00015640,0.00025929,0.00066591,-0.00157385
 ,-0.00003207,0.00006126,-0.00011109,-0.00004364,0.00001131,-0.00000778
 ,-0.00001733,-0.00003357,0.00028761,-0.00008173,-0.00037398,-0.0000129
 8,0.00002942,-0.00539589,0.00146916,0.00092395,0.00014317,-0.00002333,
 0.00004341,-0.00004820,0.00001012,-0.00000315,-0.00005974,-0.00000610,
 -0.00000527,-0.00004339,-0.00006486,0.00003109,-0.00002740,0.00000387,
 0.00000393,0.00005204,0.00010307,-0.00004724,0.00000172,0.00001201,-0.
 00001207,-0.00000566,0.00001560,0.00000912,0.00002926,0.00001834,0.000
 00947,-0.00010906,0.00005601,-0.00001222,-0.00003329,-0.00010938,0.000
 03044,-0.00895547,-0.02832916,0.00017133,-0.11964533,-0.12305787,0.004
 33112,0.01006635,0.01269503,-0.00031244,-0.00038163,0.00430553,0.00006
 110,-0.00172125,0.00077065,0.00008458,0.00074879,0.00028100,-0.0003606
 1,0.12376354,0.00001975,-0.00001564,0.00001715,0.00002017,-0.00016865,
 0.00000146,0.00063122,0.00017906,-0.00002512,-0.00032546,0.00017519,-0
 .00012861,0.00001308,0.00001605,-0.00000794,-0.00021511,0.00011196,-0.
 00001243,0.00002228,0.00003558,-0.00003819,0.00076335,0.00322743,-0.00
 005551,0.00008550,-0.00000602,0.00002933,-0.00000818,-0.00000052,-0.00
 000697,-0.00004578,0.00003143,0.00000811,-0.00001764,-0.00003087,0.000
 01857,-0.00002120,0.00000377,0.00000114,0.00001305,0.00004990,-0.00003
 648,-0.00000318,0.00000592,-0.00000850,0.00000292,0.00000630,0.0000023
 9,0.00005179,-0.00001259,-0.00001827,0.00043546,-0.00003008,0.00020795
 ,-0.00000144,-0.00004719,0.00004273,0.00475631,0.00186519,-0.00026190,
 -0.12631770,-0.28219086,0.00596029,-0.02100846,-0.01396986,0.00082097,
 0.00244134,-0.00594205,-0.00000818,0.00413270,-0.00021473,-0.00019884,
 -0.00064179,0.00074025,0.00008539,0.13492203,0.29295880,0.00004658,0.0
 0000567,0.00021248,0.00060738,-0.00018424,-0.00017143,-0.00005619,-0.0
 0011683,0.00246818,-0.00012557,0.00008966,-0.00006422,-0.00001348,-0.0
 0000235,-0.00003375,0.00003134,-0.00008477,-0.00013808,-0.00060203,-0.
 00006094,0.00015438,0.00117847,-0.00004062,0.00828135,0.00002403,0.000
 02509,0.00005165,0.00004369,-0.00002432,-0.00002621,-0.00000731,0.0000
 3225,-0.00006822,-0.00002406,0.00000711,0.00004738,-0.00000055,-0.0000
 0511,-0.00000801,0.00002853,0.00000899,-0.00006355,-0.00000189,0.00000
 333,-0.00000485,0.00000123,-0.00001231,-0.00000787,0.00000419,-0.00000
 040,0.00001725,0.00011176,-0.00003451,0.00003518,0.00002283,-0.0000238
 6,0.00006416,0.00059714,0.00198490,-0.00137893,0.00423940,0.00506471,-
 0.02638891,-0.00057159,-0.00067309,0.00172492,0.00016805,-0.00016419,0
 .00163504,-0.00001312,0.00012310,-0.00001208,-0.00057044,0.00019907,-0
 .00573349,-0.00483858,-0.00625704,0.02172071,0.00026897,-0.00003307,-0
 .00036283,-0.00058531,0.00008806,0.00091671,0.00482673,-0.00128752,-0.
 00069980,-0.00305719,0.00043279,-0.00149214,0.00012572,0.00007523,0.00
 004173,-0.00314697,0.00141744,-0.00017582,-0.00099927,-0.00002048,0.00
 003617,-0.00936398,0.00073095,-0.00022567,0.00179533,-0.00027169,0.000
 42257,-0.00037443,0.00007608,-0.00009398,-0.00112416,-0.00016389,0.000
 19785,-0.00002787,-0.00034839,-0.00002787,-0.00036148,0.00003745,0.000
 12494,-0.00023370,0.00059771,-0.00028019,-0.00014818,0.00006582,-0.000
 11667,0.00008572,0.00009963,0.00007293,0.00076977,0.00010037,-0.000145
 08,0.00424488,0.00013579,0.00206611,0.00029297,-0.00051949,0.00041803,
 0.00673425,0.00940665,-0.00011538,-0.06346091,0.02312322,0.00299463,-0
 .59712719,0.00779088,0.01922704,-0.07270626,-0.04708621,0.00270218,0.0
 2530258,-0.00166972,-0.00048655,-0.00192750,0.00025261,-0.00001636,0.0
 0088053,0.00152090,-0.00001657,0.72041123,-0.00000421,-0.00009242,0.00
 019221,0.00021555,-0.00114277,-0.00014650,-0.00027255,0.00029873,0.000
 13475,-0.00159950,0.00116812,-0.00053435,0.00003095,0.00008843,-0.0000
 8295,0.00017266,0.00071291,-0.00000940,0.00035647,0.00011417,-0.000202
 76,-0.00216620,0.01290362,0.00032503,-0.00034321,0.00013015,-0.0000471
 4,0.00003204,0.00000274,-0.00000677,-0.00003910,0.00031539,-0.00000539
 ,-0.00011089,-0.00008432,0.00010891,0.00004359,0.00002047,-0.00000685,
 0.00016268,0.00015476,-0.00005498,0.00003866,0.00000606,-0.00000888,-0
 .00001656,0.00004239,-0.00000168,0.00020024,-0.00011469,-0.00008826,0.
 00234213,-0.00033211,0.00094619,-0.00024342,-0.00011987,-0.00008545,-0
 .00508260,-0.01432591,0.00044423,0.04601404,0.00576422,-0.00169539,0.0
 0833702,-0.09669924,0.00001726,-0.06535180,0.00062854,0.00249379,0.011
 71114,-0.00857117,-0.00084575,0.00162849,0.00013539,-0.00012907,-0.001
 61992,0.00336322,0.00016430,0.01267542,0.09806318,-0.00000517,0.000009
 37,0.00000180,-0.00009017,-0.00010205,-0.00013396,-0.00019348,0.000090
 69,-0.00056140,-0.00009883,0.00012742,0.00009737,0.00000537,-0.0000192
 1,0.00004482,0.00015952,-0.00008608,0.00002773,0.00006509,-0.00007031,
 0.00004346,0.00039136,0.00009684,-0.00061329,-0.00010888,0.00000611,-0
 .00003683,0.00002051,-0.00000456,0.00000663,0.00001421,0.00001132,0.00
 004326,0.00004040,0.00001837,-0.00006800,0.00000579,-0.00000320,0.0000
 0139,-0.00004625,-0.00003944,0.00009563,0.00000087,-0.00000367,0.00001
 249,-0.00000685,0.00000981,0.00001041,-0.00000611,-0.00000752,-0.00002
 856,0.00009954,-0.00002929,-0.00012610,0.00003875,0.00002630,-0.000054
 92,-0.00025084,-0.00014605,0.00296224,0.00301037,-0.00103455,0.0237600
 2,0.01899197,0.00068953,-0.07629527,0.00347691,0.00064384,0.01460125,-
 0.00066699,0.00023206,0.00987737,-0.00019617,0.00006321,-0.00254207,-0
 .00011356,-0.00006148,-0.00168203,-0.02491140,-0.00083829,0.03225934,-
 0.00003276,0.00030187,0.00159706,0.00116770,-0.01712862,-0.00093577,-0
 .00749884,-0.00640637,0.00262787,-0.05052145,0.01601654,-0.02434315,0.
 00033923,0.00187535,-0.00088952,0.00213444,0.00512544,-0.00040657,0.00
 174605,0.00241556,-0.00158379,0.02642237,0.00816095,0.00111659,-0.0004
 4165,-0.00046609,-0.00070118,0.00014749,0.00000259,-0.00015994,-0.0017
 0517,0.00315785,0.00057440,-0.00010694,-0.00041507,0.00040497,0.000220
 05,0.00015627,0.00020891,0.00029303,0.00104359,-0.00037859,0.00004314,
 -0.00003690,-0.00006380,0.00002836,0.00032504,0.00000171,0.00367253,-0
 .00117818,-0.00209565,0.01895772,0.00564156,0.01167584,-0.00063244,-0.
 00067644,0.00005593,-0.00947227,-0.00790131,0.00146634,0.00680959,-0.0
 0704005,-0.00051224,0.01023381,0.02727612,0.00063142,-0.07580344,-0.07
 256377,0.00237467,-0.19579402,-0.16799997,-0.00398735,-0.00024220,0.00
 015290,0.00007293,0.00055253,-0.00122591,-0.00026322,-0.01109428,-0.00
 711111,0.00037405,0.28057743,-0.00012387,0.00029998,0.00165066,0.00006
 701,-0.00931699,-0.00230532,-0.01362880,-0.00280050,0.00159559,-0.0192
 3457,0.01839830,-0.00783821,0.00018627,0.00130096,-0.00071361,0.003541
 52,0.00130231,0.00115103,0.00280477,-0.00043249,-0.00143792,-0.0105436
 1,-0.08971938,-0.00105903,-0.00234404,-0.00023527,-0.00079328,0.000403
 66,0.00001649,-0.00009778,-0.00031232,0.00260870,-0.00006342,0.0000353
 1,-0.00008726,0.00038956,0.00044606,0.00011748,0.00004853,0.00047035,0
 .00048493,-0.00006404,0.00016126,-0.00011314,0.00007676,-0.00004850,0.
 00022440,-0.00004359,0.00208454,-0.00116546,-0.00093211,0.03117090,-0.
 01624944,0.01522959,-0.00067859,-0.00021712,-0.00034888,0.00852028,-0.
 00259867,-0.00130428,0.00010921,-0.00445059,0.00003273,0.01041959,0.01
 503989,-0.00026895,-0.04741602,-0.01021123,0.00087479,-0.17563303,-0.3
 7656082,0.00001499,-0.00157793,-0.00337600,0.00024997,-0.00015107,-0.0
 0014097,-0.00002361,-0.00722654,-0.00242997,0.00042084,0.21849815,0.48
 031188,0.00003237,0.00026713,0.00047087,-0.00063195,-0.00822082,-0.002
 02723,0.00021810,0.00117583,-0.00507953,-0.02676122,0.00683703,-0.0039
 5758,0.00033086,0.00049769,0.00024374,0.00110202,-0.00161232,0.0018881
 4,-0.00086080,-0.00072843,0.00063095,0.00030498,-0.00396029,0.01851058
 ,-0.00125198,-0.00025025,-0.00050158,0.00010883,-0.00002998,0.00002463
 ,-0.00085220,0.00144716,0.00092022,0.00016391,-0.00000424,0.00003608,0
 .00010434,0.00016276,0.00008736,0.00005213,0.00021117,0.00016426,0.000
 04028,-0.00006477,0.00005226,-0.00000454,0.00014705,-0.00000087,0.0016
 4822,-0.00051556,-0.00154576,0.01239996,0.00418772,-0.00522512,-0.0001
 0953,-0.00012574,-0.00021990,0.00123054,-0.00003652,0.00353635,-0.0003
 5562,-0.00022813,-0.00188459,0.00070205,-0.00026062,0.01118951,-0.0000
 2577,0.00028685,0.01461127,-0.00059231,0.00570353,-0.07697713,-0.00004
 382,-0.00033843,0.00027683,-0.00003228,-0.00007001,-0.00063107,-0.0000
 5462,-0.00003679,-0.00170278,0.01313807,-0.00444101,0.04711009\\0.0000
 0230,0.00002513,-0.00000586,0.00001553,0.00000173,0.00000582,0.0000174
 1,0.00000527,-0.00000572,-0.00007565,0.00003845,-0.00001189,-0.0000037
 2,-0.00000554,-0.00001328,0.00001388,-0.00000022,0.00000013,-0.0000064
 5,-0.00001136,0.00000612,0.00001465,-0.00004414,-0.00000666,-0.0000431
 2,0.00000481,0.00000444,0.00001376,-0.00001253,-0.00000405,0.00000283,
 -0.00002866,0.00001957,-0.00000604,0.00000634,0.00000229,0.00000614,-0
 .00001383,-0.00000947,0.00000564,0.00002124,-0.00000431,0.00000145,-0.
 00001036,0.00000482,-0.00000221,0.00000631,-0.00000692,-0.00001433,0.0
 0001438,0.00000053,0.00003771,-0.00004366,0.00001286,0.00000424,-0.000
 01235,-0.00000102,-0.00000171,0.00000918,0.00000351,0.00001272,-0.0000
 0811,0.00000244,0.00001282,0.00001570,-0.00000453,0.00000622,-0.000001
 80,-0.00000929,-0.00002204,0.00008604,0.00002268,0.00000825,-0.0000064
 3,-0.00000414,-0.00000555,-0.00000340,-0.00000244,0.00000280,-0.000006
 26,0.00000170,0.00000249,-0.00002594,0.00000268\\\@
 The archive entry for this job was punched.


 ALL MY ATTEMPTS TO ADAPT THE THEORETICAL FOUNDATIONS OF PHYSICS
 TO THESE NEW NOTIONS FAILED COMPLETELY. IT WAS AS IF THE GROUND HAD
 BEEN PULLED OUT FROM UNDER ONE WITH NO FIRM FOUNDATION TO BE SEEN ANYWHERE,
 UPON WHICH ONE COULD HAVE BUILT.  -- A.EINSTEIN
 Job cpu time:       0 days  9 hours 44 minutes  1.2 seconds.
 Elapsed time:       0 days  0 hours 14 minutes 43.1 seconds.
 File lengths (MBytes):  RWF=    600 Int=      0 D2E=      0 Chk=     20 Scr=      1
 Normal termination of Gaussian 16 at Fri Oct 18 11:37:51 2024.
